 vasp.5.4.4.18Apr17-6-g9f103f2a35 (build Feb 06 2024 13:54:16) complex          
  
 POSCAR found type information on POSCAR  Cu N  O 
 02/POSCAR found :  3 types and      40 ions
 scaLAPACK will be used

 ----------------------------------------------------------------------------- 
|                                                                             |
|  ADVICE TO THIS USER RUNNING 'VASP/VAMP'   (HEAR YOUR MASTER'S VOICE ...):  |
|                                                                             |
|      You enforced a specific xc-type in the INCAR file,                     |
|      a different type was found on the POTCAR file                          |
|          I HOPE YOU KNOW, WHAT YOU ARE  DOING                               |
|                                                                             |
 ----------------------------------------------------------------------------- 

 LDA part: xc-table for Pade appr. of Perdew
 POSCAR found type information on POSCAR  Cu N  O 
 00/POSCAR found :  3 types and      40 ions
 POSCAR found type information on POSCAR  Cu N  O 
 04/POSCAR found :  3 types and      40 ions
 Jacobian:    19.9537150754471     
 POSCAR, INCAR and KPOINTS ok, starting setup
 FFT: planning ...
 WAVECAR not read
 entering main loop
       N       E                     dE             d eps       ncg     rms          rms(c)
  Solvation turned off during non-self-consistent phase (first NELMDL steps)
DAV:   1     0.425078772460E+04    0.42508E+04   -0.18011E+05 12240   0.210E+03
DAV:   2     0.623610065129E+03   -0.36272E+04   -0.34967E+04 12250   0.471E+02
DAV:   3    -0.335095748501E+02   -0.65712E+03   -0.60346E+03 13970   0.236E+02
DAV:   4    -0.149036047938E+03   -0.11553E+03   -0.99314E+02 21270   0.938E+01
DAV:   5    -0.161964223891E+03   -0.12928E+02   -0.11567E+02 19350   0.288E+01    0.447E+01
 Begin Solvation calculations
  rms_SCF =    6.31454178923326      tol =   0.631454178923326     
 Begin minimization
 Creating dielectric and ionic cavities
  area:      171.291483482118     
  volume:    656.235458023662     
  Acav:     8.992802882811213E-002
  Solving linear dielectric/ionic screening model
        iter                  A_solv                     rms
   LPB:       -0.371213386741656E+03   0.276522806319684E+03
   LPB:    0  -0.851697757928996E+01   0.389303416491873E+02  -0.507856E+01   0.000000E+00   0.281250E+02  -0.142834E+03
   LPB:    1  -0.150012449282752E+01   0.788593666537789E+01   0.105621E-01   0.000000E+00   0.788147E+02   0.878377E-14
   LPB:    2  -0.581534967337745E+00   0.120566650516582E+01   0.133859E-01   0.103296E+00   0.273519E+03   0.138794E-13
   LPB:    3  -0.368012271428881E+00   0.137825623824399E+01   0.258418E-01   0.120406E+00   0.708677E+03   0.136387E-13
   LPB:    4  -0.299558805915410E+00   0.105794183525027E+01   0.240216E-01   0.344883E+00   0.732031E+02   0.123345E-13
   LPB:    5  -0.262707993255049E+00   0.574498610640248E+00   0.235812E-01   0.548387E+00   0.420688E+03   0.119973E-13
  Finished solving LPB equations
  A_corr:   -0.172779964426937     
 End minimization
 Ecorr=   1982.07081743537     
 A_corr= -0.172779964426937     
 Ecorr_band=  -1982.24359739979     
 End Solvation calculations
RMM:   6    -0.157068734138E+03    0.48955E+01   -0.36500E+02 12406   0.957E+01    0.355E+01
 Begin Solvation calculations
  rms_SCF =    6.31454178923326      tol =   0.631454178923326     
 Begin minimization
 Creating dielectric and ionic cavities
  area:      180.118019817622     
  volume:    673.263857732982     
  Acav:     9.456196040425177E-002
  Solving linear dielectric/ionic screening model
        iter                  A_solv                     rms
   LPB:       -0.181592980104482E+02   0.803572438188237E+02
   LPB:    0  -0.164343301029664E+02   0.767879944621186E+02   0.355314E+00   0.000000E+00   0.273266E+02   0.970954E+01
   LPB:    1  -0.152581623448048E+01   0.663208708895231E+01   0.898956E-02   0.000000E+00   0.623199E+02  -0.124446E-15
   LPB:    2  -0.479566295956129E+00   0.192411065102590E+01   0.152150E-01   0.414636E-01   0.138101E+03   0.791180E-14
   LPB:    3  -0.314955277226229E+00   0.956960715577726E+00   0.234792E-01   0.101956E+00   0.898866E+02   0.535262E-14
   LPB:    4  -0.268545435606242E+00   0.824367045893952E+00   0.228708E-01   0.289436E+00   0.250111E+03  -0.343583E-14
   LPB:    5  -0.244669533880380E+00   0.357713156111800E+00   0.249874E-01   0.470881E+00   0.997776E+02  -0.946259E-14
  Finished solving LPB equations
  A_corr:   -0.150107573476128     
 End minimization
 Ecorr=   1864.82031531893     
 A_corr= -0.150107573476128     
 Ecorr_band=  -1864.97042289241     
 End Solvation calculations
RMM:   7    -0.145186828885E+03    0.11882E+02   -0.83051E+01 12510   0.454E+01    0.183E+01
 Begin Solvation calculations
  rms_SCF =    6.31454178923326      tol =   0.631454178923326     
 Begin minimization
 Creating dielectric and ionic cavities
  area:      205.142817483517     
  volume:    670.150743658378     
  Acav:     0.107699979178846     
  Solving linear dielectric/ionic screening model
        iter                  A_solv                     rms
   LPB:       -0.998122313896245E+01   0.598131305751230E+02
   LPB:    0  -0.990497418787845E+01   0.595247571106716E+02  -0.745044E-01   0.000000E+00   0.274726E+02  -0.204683E+01
   LPB:    1  -0.100918477916244E+01   0.533148546125791E+01   0.901694E-02   0.000000E+00   0.616897E+02   0.106879E-15
   LPB:    2  -0.329753755128761E+00   0.102651558671640E+01   0.152037E-01   0.452972E-01   0.136622E+03  -0.831460E-14
   LPB:    3  -0.231260792673426E+00   0.530053500624328E+00   0.230165E-01   0.957567E-01   0.200002E+03  -0.133513E-13
   LPB:    4  -0.211200107880114E+00   0.299995163725111E+00   0.245556E-01   0.190910E+00   0.159761E+03  -0.144039E-13
  Finished solving LPB equations
  A_corr:   -0.103500128701267     
 End minimization
 Ecorr=   1857.26714593587     
 A_corr= -0.103500128701267     
 Ecorr_band=  -1857.37064606457     
 End Solvation calculations
RMM:   8    -0.136570964377E+03    0.86159E+01   -0.52207E+00 12512   0.939E+00    0.102E+01
 Begin Solvation calculations
  rms_SCF =    6.31454178923326      tol =   0.631454178923326     
 Begin minimization
 Creating dielectric and ionic cavities
  area:      164.113191019352     
  volume:    669.873682460167     
  Acav:     8.615942528515970E-002
  Solving linear dielectric/ionic screening model
        iter                  A_solv                     rms
   LPB:       -0.631266916404322E+00   0.122922385162438E+02
   LPB:    0  -0.629016420640216E+00   0.123074339391323E+02   0.127968E-01   0.000000E+00   0.274856E+02   0.351728E+00
   LPB:    1  -0.245892617586537E+00   0.123610337341003E+01   0.907531E-02   0.000000E+00   0.612146E+02  -0.912918E-17
   LPB:    2  -0.206383392708420E+00   0.337470918098107E+00   0.171688E-01   0.545107E-01   0.108876E+03  -0.786368E-15
   LPB:    3  -0.198855173119154E+00   0.122421547636942E+00   0.235943E-01   0.138652E+00   0.104029E+03  -0.970145E-15
   LPB:    4  -0.194483924080350E+00   0.199287284373087E+00   0.420274E-01   0.325978E+00   0.101592E+03  -0.193096E-14
  Finished solving LPB equations
  A_corr:   -0.108324498795191     
 End minimization
 Ecorr=   1830.81149179621     
 A_corr= -0.108324498795191     
 Ecorr_band=  -1830.91981629500     
 End Solvation calculations
RMM:   9    -0.134346892021E+03    0.22241E+01   -0.18440E+00 12737   0.507E+00    0.506E+00
 Begin Solvation calculations
  rms_SCF =   0.945187501465665      tol =   9.451875014656652E-002
 Begin minimization
 Creating dielectric and ionic cavities
  area:      157.997557623392     
  volume:    670.435569160606     
  Acav:     8.294871775228091E-002
  Solving linear dielectric/ionic screening model
        iter                  A_solv                     rms
   LPB:       -0.320926180295063E+00   0.521654125954987E+01
   LPB:    0  -0.267682052552485E+00   0.405053066863008E+01   0.622740E-01   0.000000E+00   0.274592E+02   0.171000E+01
   LPB:    1  -0.218448185946573E+00   0.474633706617716E+00   0.953371E-02   0.000000E+00   0.660304E+02   0.195945E-16
   LPB:    2  -0.209548801216849E+00   0.168308140130733E+00   0.202900E-01   0.849329E-01   0.150996E+03  -0.350633E-15
   LPB:    3  -0.205472331435626E+00   0.131395858968755E+00   0.285431E-01   0.325616E+00   0.264673E+03  -0.340853E-15
   LPB:    4  -0.201889256014828E+00   0.310331387047489E+00   0.446383E-01   0.562037E+00   0.192272E+03  -0.246933E-15
   LPB:    5  -0.199144879626774E+00   0.227215006441258E+00   0.296574E-01   0.115282E+01   0.242154E+02   0.322439E-15
   LPB:    6  -0.197138341800055E+00   0.115117616016309E+00   0.288177E-01   0.752452E+00   0.129932E+03  -0.339276E-15
   LPB:    7  -0.195825679811436E+00   0.443290418962773E-01   0.315138E-01   0.598224E+00   0.601399E+02  -0.126623E-14
  Finished solving LPB equations
  A_corr:   -0.112876962059155     
 End minimization
 Ecorr=   1780.65752780352     
 A_corr= -0.112876962059155     
 Ecorr_band=  -1780.77040476558     
 End Solvation calculations
RMM:  10    -0.133957939629E+03    0.38895E+00   -0.93760E-01 13072   0.281E+00    0.363E+00
 Begin Solvation calculations
  rms_SCF =   0.945187501465665      tol =   9.451875014656652E-002
 Begin minimization
 Creating dielectric and ionic cavities
  area:      150.176272018039     
  volume:    667.148535159184     
  Acav:     7.884254280947021E-002
  Solving linear dielectric/ionic screening model
        iter                  A_solv                     rms
   LPB:       -0.274417307657136E+00   0.252029355881779E+01
   LPB:    0  -0.273477104572339E+00   0.212095330550256E+01  -0.825214E-02   0.000000E+00   0.276133E+02  -0.227869E+00
   LPB:    1  -0.228854658326333E+00   0.572744416595013E+00   0.150392E-01   0.000000E+00   0.509612E+02  -0.843836E-17
   LPB:    2  -0.222566490221597E+00   0.201746129566430E+00   0.167523E-01   0.126509E+00   0.192769E+03  -0.377880E-14
   LPB:    3  -0.220464343586481E+00   0.830856880913369E-01   0.246813E-01   0.226905E+00   0.120720E+03  -0.220762E-14
   LPB:    4  -0.219189722541284E+00   0.105148403686925E+00   0.354260E-01   0.422439E+00   0.213810E+03  -0.687679E-15
   LPB:    5  -0.218362247163121E+00   0.230487070939603E+00   0.303944E-01   0.756663E+00   0.135067E+03   0.216679E-15
   LPB:    6  -0.217659934846035E+00   0.134463395521522E+00   0.235781E-01   0.109411E+01   0.691613E+02   0.807790E-15
   LPB:    7  -0.216962982134076E+00   0.382402246606845E-01   0.321614E-01   0.727523E+00   0.935422E+02   0.128682E-14
  Finished solving LPB equations
  A_corr:   -0.138120439324606     
 End minimization
 Ecorr=   1752.67368204461     
 A_corr= -0.138120439324606     
 Ecorr_band=  -1752.81180248393     
 End Solvation calculations
RMM:  11    -0.133774054360E+03    0.18389E+00   -0.37718E-01 12626   0.229E+00    0.216E+00
 Begin Solvation calculations
  rms_SCF =   0.587900871353754      tol =   5.879008713537544E-002
 Begin minimization
 Creating dielectric and ionic cavities
  area:      141.037287654000     
  volume:    661.202744696189     
  Acav:     7.404457601835010E-002
  Solving linear dielectric/ionic screening model
        iter                  A_solv                     rms
   LPB:       -0.353584154453494E+00   0.216286302615850E+01
   LPB:    0  -0.352573780551164E+00   0.253587857618018E+01   0.851169E-02   0.000000E+00   0.278921E+02   0.237409E+00
   LPB:    1  -0.269973060424779E+00   0.103541695019160E+01   0.152994E-01   0.000000E+00   0.691931E+02   0.859250E-17
   LPB:    2  -0.258875094760324E+00   0.322850150483620E+00   0.155366E-01   0.132306E+00   0.106158E+03   0.383863E-14
   LPB:    3  -0.255503154468493E+00   0.204079655353933E+00   0.202036E-01   0.233648E+00   0.215714E+03   0.454060E-14
   LPB:    4  -0.253933032632851E+00   0.251451512920331E+00   0.236047E-01   0.398551E+00   0.972914E+02   0.411175E-14
   LPB:    5  -0.252598433971421E+00   0.157628530258261E+00   0.262184E-01   0.765262E+00   0.178886E+03   0.351400E-14
   LPB:    6  -0.251352790439734E+00   0.608049681618311E-01   0.376670E-01   0.649662E+00   0.888441E+02   0.224301E-14
   LPB:    7  -0.250454984925133E+00   0.320684692658654E-01   0.367766E-01   0.738206E+00   0.128401E+03   0.146734E-14
  Finished solving LPB equations
  A_corr:   -0.176410408906783     
 End minimization
 Ecorr=   1715.05452063971     
 A_corr= -0.176410408906783     
 Ecorr_band=  -1715.23093104861     
 End Solvation calculations
RMM:  12    -0.133762722754E+03    0.11332E-01   -0.25717E-01 12528   0.208E+00    0.159E+00
 Begin Solvation calculations
  rms_SCF =   0.578346238118287      tol =   5.783462381182865E-002
 Begin minimization
 Creating dielectric and ionic cavities
  area:      140.409504014855     
  volume:    659.403335185530     
  Acav:     7.371498960779864E-002
  Solving linear dielectric/ionic screening model
        iter                  A_solv                     rms
   LPB:       -0.268096711806140E+00   0.550073713945978E+00
   LPB:    0  -0.267099543806738E+00   0.764858557600011E+00   0.844312E-02   0.000000E+00   0.279764E+02   0.236208E+00
   LPB:    1  -0.261670111350041E+00   0.364916684163427E+00   0.128654E-01   0.000000E+00   0.811866E+02   0.207729E-17
   LPB:    2  -0.260564103022389E+00   0.101316419527070E+00   0.155100E-01   0.168972E+00   0.951562E+02  -0.900569E-15
   LPB:    3  -0.260127531364598E+00   0.846248094615736E-01   0.237331E-01   0.257963E+00   0.316955E+03  -0.132343E-14
   LPB:    4  -0.259794895469450E+00   0.976168499725634E-01   0.316303E-01   0.571695E+00   0.100676E+03  -0.130820E-14
   LPB:    5  -0.259237826256594E+00   0.907295558362656E-01   0.427420E-01   0.123933E+01   0.210431E+03  -0.115126E-14
   LPB:    6  -0.258709170909239E+00   0.332135260992942E-01   0.372667E-01   0.108842E+01   0.732579E+02  -0.625044E-15
  Finished solving LPB equations
  A_corr:   -0.184994181301440     
 End minimization
 Ecorr=   1702.09700696166     
 A_corr= -0.184994181301440     
 Ecorr_band=  -1702.28200114296     
 End Solvation calculations
RMM:  13    -0.133726090012E+03    0.36633E-01   -0.70659E-02 12530   0.119E+00    0.832E-01
 Begin Solvation calculations
  rms_SCF =   0.578346238118287      tol =   5.783462381182865E-002
 Begin minimization
 Creating dielectric and ionic cavities
  area:      140.543071623742     
  volume:    657.460594607446     
  Acav:     7.378511260246480E-002
  Solving linear dielectric/ionic screening model
        iter                  A_solv                     rms
   LPB:       -0.276165073755675E+00   0.434114941150708E+00
   LPB:    0  -0.274514519717753E+00   0.615928570782068E+00   0.108450E-01   0.000000E+00   0.280675E+02   0.304391E+00
   LPB:    1  -0.267235240352000E+00   0.319288140143218E+00   0.154707E-01   0.000000E+00   0.118923E+03   0.114947E-16
   LPB:    2  -0.266305301229967E+00   0.108062975845350E+00   0.150661E-01   0.131182E+00   0.794086E+02   0.208236E-14
   LPB:    3  -0.266058073415527E+00   0.591423155644866E-01   0.187171E-01   0.213996E+00   0.247675E+03   0.298651E-14
   LPB:    4  -0.265907608891017E+00   0.685968509618757E-01   0.271702E-01   0.419259E+00   0.110913E+03   0.360102E-14
   LPB:    5  -0.265766940709056E+00   0.564970151423285E-01   0.285760E-01   0.888903E+00   0.210052E+03   0.388363E-14
  Finished solving LPB equations
  A_corr:   -0.191981828106591     
 End minimization
 Ecorr=   1692.49232220996     
 A_corr= -0.191981828106591     
 Ecorr_band=  -1692.68430403807     
 End Solvation calculations
RMM:  14    -0.133715475296E+03    0.10615E-01   -0.18677E-02 12913   0.483E-01    0.431E-01
 Begin Solvation calculations
  rms_SCF =   0.578346238118287      tol =   5.783462381182865E-002
 Begin minimization
 Creating dielectric and ionic cavities
  area:      140.639239728926     
  volume:    656.310773359379     
  Acav:     7.383560085768619E-002
  Solving linear dielectric/ionic screening model
        iter                  A_solv                     rms
   LPB:       -0.276035593338730E+00   0.777931808204683E+00
   LPB:    0  -0.275768305487569E+00   0.848204503260899E+00   0.435999E-02   0.000000E+00   0.281214E+02   0.122609E+00
   LPB:    1  -0.270907588909859E+00   0.234524792074792E+00   0.141566E-01   0.000000E+00   0.600966E+02   0.594622E-17
   LPB:    2  -0.270161322147569E+00   0.825055089271054E-01   0.132621E-01   0.163886E+00   0.221166E+03   0.185066E-14
   LPB:    3  -0.269970257487085E+00   0.660994106350112E-01   0.218683E-01   0.155268E+00   0.120836E+03   0.203104E-14
   LPB:    4  -0.269824286242358E+00   0.630361698556159E-01   0.288415E-01   0.579275E+00   0.101195E+03   0.207137E-14
   LPB:    5  -0.269654554272761E+00   0.449039556309453E-01   0.354787E-01   0.945250E+00   0.133116E+03   0.217713E-14
  Finished solving LPB equations
  A_corr:   -0.195818953415075     
 End minimization
 Ecorr=   1686.85029859975     
 A_corr= -0.195818953415075     
 Ecorr_band=  -1687.04611755317     
 End Solvation calculations
RMM:  15    -0.133712254965E+03    0.32203E-02   -0.50505E-03 13313   0.218E-01    0.271E-01
 Begin Solvation calculations
  rms_SCF =   0.512466852975009      tol =   5.124668529750086E-002
 Begin minimization
 Creating dielectric and ionic cavities
  area:      140.826515350204     
  volume:    655.544113905260     
  Acav:     7.393392055885718E-002
  Solving linear dielectric/ionic screening model
        iter                  A_solv                     rms
   LPB:       -0.275599532501771E+00   0.570188782501356E+00
   LPB:    0  -0.275581500654726E+00   0.597333473158160E+00   0.113172E-02   0.000000E+00   0.281574E+02   0.318663E-01
   LPB:    1  -0.272953190957237E+00   0.157278932777260E+00   0.143457E-01   0.000000E+00   0.614012E+02  -0.139072E-17
   LPB:    2  -0.272585913620864E+00   0.582837714597830E-01   0.134437E-01   0.149115E+00   0.210420E+03   0.417158E-15
   LPB:    3  -0.272496363877142E+00   0.550267087631203E-01   0.222256E-01   0.147481E+00   0.102401E+03   0.461966E-15
   LPB:    4  -0.272405353596436E+00   0.559290413370383E-01   0.314396E-01   0.718460E+00   0.837552E+02   0.499142E-15
   LPB:    5  -0.272259963568179E+00   0.401566253969563E-01   0.412031E-01   0.121896E+01   0.972541E+02   0.609116E-15
  Finished solving LPB equations
  A_corr:   -0.198326043009322     
 End minimization
 Ecorr=   1682.91725989934     
 A_corr= -0.198326043009322     
 Ecorr_band=  -1683.11558594235     
 End Solvation calculations
RMM:  16    -0.133711030839E+03    0.12241E-02   -0.16828E-03 13222   0.128E-01    0.212E-01
 Begin Solvation calculations
  rms_SCF =   0.419451199536356      tol =   4.194511995363560E-002
 Begin minimization
 Creating dielectric and ionic cavities
  area:      141.683115511665     
  volume:    653.226456827304     
  Acav:     7.438363564362428E-002
  Solving linear dielectric/ionic screening model
        iter                  A_solv                     rms
   LPB:       -0.323065547624261E+00   0.192411912581351E+01
   LPB:    0  -0.322865073248329E+00   0.200949170424019E+01   0.376628E-02   0.000000E+00   0.282660E+02   0.106458E+00
   LPB:    1  -0.288695391463715E+00   0.497683592968478E+00   0.146685E-01   0.000000E+00   0.690789E+02   0.250656E-17
   LPB:    2  -0.284521103297548E+00   0.207228174698264E+00   0.138886E-01   0.129023E+00   0.184075E+03   0.439652E-15
   LPB:    3  -0.283667726297567E+00   0.129734756076235E+00   0.185676E-01   0.152919E+00   0.106853E+03  -0.369470E-15
   LPB:    4  -0.283309015816221E+00   0.108330162704690E+00   0.207249E-01   0.376589E+00   0.169317E+03  -0.398141E-15
   LPB:    5  -0.283055538104260E+00   0.526623781419662E-01   0.262881E-01   0.557094E+00   0.985548E+02  -0.226151E-15
   LPB:    6  -0.282850417790883E+00   0.192887890702247E-01   0.360572E-01   0.589978E+00   0.180304E+03  -0.325660E-15
  Finished solving LPB equations
  A_corr:   -0.208466782147259     
 End minimization
 Ecorr=   1672.65842377566     
 A_corr= -0.208466782147259     
 Ecorr_band=  -1672.86689055780     
 End Solvation calculations
RMM:  17    -0.133710630381E+03    0.40046E-03   -0.30791E-03 12454   0.118E-01    0.115E-01
 Begin Solvation calculations
  rms_SCF =   0.190975072941550      tol =   1.909750729415498E-002
 Begin minimization
 Creating dielectric and ionic cavities
  area:      142.113629369367     
  volume:    652.493358369142     
  Acav:     7.460965541891788E-002
  Solving linear dielectric/ionic screening model
        iter                  A_solv                     rms
   LPB:       -0.294716338419875E+00   0.778224060569700E+00
   LPB:    0  -0.294700433867103E+00   0.802486001729431E+00   0.106018E-02   0.000000E+00   0.283004E+02   0.300035E-01
   LPB:    1  -0.288330521406828E+00   0.188048819927526E+00   0.146790E-01   0.000000E+00   0.814093E+02  -0.291813E-17
   LPB:    2  -0.287594492472339E+00   0.788583771024826E-01   0.152917E-01   0.110918E+00   0.143048E+03  -0.720492E-15
   LPB:    3  -0.287428443610654E+00   0.470394657546882E-01   0.213602E-01   0.161507E+00   0.881565E+02  -0.993004E-15
   LPB:    4  -0.287292444098119E+00   0.857116114494493E-01   0.355526E-01   0.492079E+00   0.197964E+03  -0.106503E-14
   LPB:    5  -0.287151418265178E+00   0.802733563155729E-01   0.270453E-01   0.136314E+01   0.622035E+02  -0.106715E-14
   LPB:    6  -0.286996667521704E+00   0.204179167693123E-01   0.296879E-01   0.999646E+00   0.109808E+03  -0.106541E-14
   LPB:    7  -0.286903120118760E+00   0.110194765537860E-01   0.327767E-01   0.547537E+00   0.255585E+03  -0.832347E-15
  Finished solving LPB equations
  A_corr:   -0.212293464699842     
 End minimization
 Ecorr=   1667.83897641344     
 A_corr= -0.212293464699842     
 Ecorr_band=  -1668.05126987814     
 End Solvation calculations
RMM:  18    -0.133711195436E+03   -0.56505E-03   -0.88532E-04 12938   0.744E-02    0.119E-01
 Begin Solvation calculations
  rms_SCF =   0.190975072941550      tol =   1.909750729415498E-002
 Begin minimization
 Creating dielectric and ionic cavities
  area:      142.233316040358     
  volume:    652.329158161481     
  Acav:     7.467249092118791E-002
  Solving linear dielectric/ionic screening model
        iter                  A_solv                     rms
   LPB:       -0.289866155015508E+00   0.479357395056195E+00
   LPB:    0  -0.289850397759267E+00   0.457890723874402E+00  -0.105512E-02   0.000000E+00   0.283081E+02  -0.298683E-01
   LPB:    1  -0.288502987544992E+00   0.989542250848659E-01   0.138088E-01   0.000000E+00   0.629988E+02   0.653445E-18
   LPB:    2  -0.288339975094904E+00   0.440416038558539E-01   0.135157E-01   0.123606E+00   0.218643E+03  -0.773223E-15
   LPB:    3  -0.288304502464799E+00   0.221266441526140E-01   0.173230E-01   0.169780E+00   0.118108E+03  -0.102605E-14
   LPB:    4  -0.288289902640815E+00   0.226514010068983E-01   0.240361E-01   0.296629E+00   0.120670E+03  -0.107562E-14
   LPB:    5  -0.288269012112933E+00   0.220036938423557E-01   0.420905E-01   0.817113E+00   0.136370E+03  -0.105794E-14
   LPB:    6  -0.288229559581616E+00   0.107762785181030E-01   0.530510E-01   0.149836E+01   0.825451E+02  -0.108947E-14
  Finished solving LPB equations
  A_corr:   -0.213557068660428     
 End minimization
 Ecorr=   1666.35153746100     
 A_corr= -0.213557068660428     
 Ecorr_band=  -1666.56509452966     
 End Solvation calculations
RMM:  19    -0.133711382273E+03   -0.18684E-03   -0.27874E-04 14053   0.392E-02    0.108E-01
 Begin Solvation calculations
  rms_SCF =   0.190975072941550      tol =   1.909750729415498E-002
 Begin minimization
 Creating dielectric and ionic cavities
  area:      142.367421904076     
  volume:    652.191858524485     
  Acav:     7.474289649963980E-002
  Solving linear dielectric/ionic screening model
        iter                  A_solv                     rms
   LPB:       -0.293243355475363E+00   0.750834739939306E+00
   LPB:    0  -0.293182999396402E+00   0.714638678330972E+00  -0.206477E-02   0.000000E+00   0.283145E+02  -0.584629E-01
   LPB:    1  -0.290489600491748E+00   0.152005234093294E+00   0.131865E-01   0.000000E+00   0.580960E+02  -0.462694E-17
   LPB:    2  -0.290152182541722E+00   0.595557168678906E-01   0.129042E-01   0.128016E+00   0.218438E+03   0.999547E-15
   LPB:    3  -0.290090568402975E+00   0.209843409793571E-01   0.164623E-01   0.143138E+00   0.121670E+03   0.123349E-14
   LPB:    4  -0.290069548876602E+00   0.257052068164123E-01   0.247028E-01   0.227346E+00   0.129687E+03   0.119840E-14
   LPB:    5  -0.290053832408219E+00   0.157379645736365E-01   0.286707E-01   0.644227E+00   0.732954E+02   0.109126E-14
  Finished solving LPB equations
  A_corr:   -0.215310935908580     
 End minimization
 Ecorr=   1665.52790101802     
 A_corr= -0.215310935908580     
 Ecorr_band=  -1665.74321195393     
 End Solvation calculations
RMM:  20    -0.133711600696E+03   -0.21842E-03   -0.18001E-04 12302   0.298E-02    0.813E-02
 Begin Solvation calculations
  rms_SCF =   0.190975072941550      tol =   1.909750729415498E-002
 Begin minimization
 Creating dielectric and ionic cavities
  area:      142.742348497135     
  volume:    651.965725524140     
  Acav:     7.493973296099600E-002
  Solving linear dielectric/ionic screening model
        iter                  A_solv                     rms
   LPB:       -0.323539902561286E+00   0.219296326688040E+01
   LPB:    0  -0.322900332430559E+00   0.206628116980482E+01  -0.672006E-02   0.000000E+00   0.283251E+02  -0.190347E+00
   LPB:    1  -0.299485712178450E+00   0.424216011847314E+00   0.133245E-01   0.000000E+00   0.587727E+02   0.932616E-17
   LPB:    2  -0.296748993348176E+00   0.181292877801261E+00   0.129824E-01   0.119960E+00   0.214310E+03  -0.110711E-14
   LPB:    3  -0.296211214839580E+00   0.685531169129349E-01   0.167614E-01   0.152202E+00   0.109205E+03  -0.142100E-14
   LPB:    4  -0.296035697269053E+00   0.702481911680657E-01   0.221206E-01   0.247304E+00   0.142882E+03  -0.152940E-14
   LPB:    5  -0.295943445478545E+00   0.319366173521701E-01   0.242302E-01   0.479837E+00   0.762305E+02  -0.149882E-14
   LPB:    6  -0.295884178994883E+00   0.123307536836279E-01   0.313549E-01   0.496462E+00   0.185515E+03  -0.133745E-14
  Finished solving LPB equations
  A_corr:   -0.220944446033887     
 End minimization
 Ecorr=   1662.97352997690     
 A_corr= -0.220944446033887     
 Ecorr_band=  -1663.19447442293     
 End Solvation calculations
RMM:  21    -0.133712984668E+03   -0.13840E-02   -0.88014E-04 12346   0.504E-02    0.433E-02
 Begin Solvation calculations
  rms_SCF =   8.053234007236010E-002 tol =   8.053234007236010E-003
 Begin minimization
 Creating dielectric and ionic cavities
  area:      142.824773270943     
  volume:    651.974895386714     
  Acav:     7.498300596724497E-002
  Solving linear dielectric/ionic screening model
        iter                  A_solv                     rms
   LPB:       -0.298334505032366E+00   0.428673417344686E+00
   LPB:    0  -0.298322404348326E+00   0.413565673796184E+00  -0.924352E-03   0.000000E+00   0.283247E+02  -0.261820E-01
   LPB:    1  -0.297328937171332E+00   0.769203756312242E-01   0.134979E-01   0.000000E+00   0.610883E+02   0.840787E-18
   LPB:    2  -0.297223392565612E+00   0.432934873019203E-01   0.136008E-01   0.105435E+00   0.217432E+03   0.219796E-15
   LPB:    3  -0.297195219316833E+00   0.173892144266027E-01   0.180116E-01   0.201563E+00   0.852820E+02   0.172079E-15
   LPB:    4  -0.297167166759241E+00   0.354050265280444E-01   0.429489E-01   0.417578E+00   0.941666E+02   0.206925E-15
   LPB:    5  -0.297131592720365E+00   0.273101994311197E-01   0.336192E-01   0.162004E+01   0.479822E+02   0.255196E-15
   LPB:    6  -0.297106671051830E+00   0.847681648461997E-02   0.268498E-01   0.877183E+00   0.105082E+03   0.330781E-15
   LPB:    7  -0.297094890284518E+00   0.359230499636864E-02   0.311027E-01   0.408074E+00   0.430712E+03   0.316390E-15
  Finished solving LPB equations
  A_corr:   -0.222111884317273     
 End minimization
 Ecorr=   1662.14981222676     
 A_corr= -0.222111884317273     
 Ecorr_band=  -1662.37192411108     
 End Solvation calculations
RMM:  22    -0.133713277238E+03   -0.29257E-03   -0.99892E-05 10441   0.259E-02    0.602E-02
 Begin Solvation calculations
  rms_SCF =   8.053234007236010E-002 tol =   8.053234007236010E-003
 Begin minimization
 Creating dielectric and ionic cavities
  area:      142.879547007115     
  volume:    652.023754538158     
  Acav:     7.501176217873536E-002
  Solving linear dielectric/ionic screening model
        iter                  A_solv                     rms
   LPB:       -0.300142910996339E+00   0.611550063278094E+00
   LPB:    0  -0.300101364010374E+00   0.586338672123590E+00  -0.171285E-02   0.000000E+00   0.283224E+02  -0.485121E-01
   LPB:    1  -0.298698939627810E+00   0.110458523149118E+00   0.121172E-01   0.000000E+00   0.538224E+02  -0.149751E-17
   LPB:    2  -0.298526527197259E+00   0.365435386597548E-01   0.125655E-01   0.118553E+00   0.210188E+03   0.288788E-15
   LPB:    3  -0.298495482975185E+00   0.116441153486738E-01   0.175755E-01   0.128731E+00   0.128318E+03   0.325751E-15
   LPB:    4  -0.298488178068276E+00   0.125569793051069E-01   0.229038E-01   0.180566E+00   0.126303E+03   0.344267E-15
   LPB:    5  -0.298483781739758E+00   0.945917712816060E-02   0.281355E-01   0.489923E+00   0.969383E+02   0.333740E-15
   LPB:    6  -0.298478165252701E+00   0.566585087639880E-02   0.431020E-01   0.833933E+00   0.938377E+02   0.346413E-15
  Finished solving LPB equations
  A_corr:   -0.223466403073965     
 End minimization
 Ecorr=   1661.46551353821     
 A_corr= -0.223466403073965     
 Ecorr_band=  -1661.68897994129     
 End Solvation calculations
RMM:  23    -0.133713388819E+03   -0.11158E-03   -0.63015E-05  8740   0.203E-02    0.427E-02
 Begin Solvation calculations
  rms_SCF =   8.053234007236010E-002 tol =   8.053234007236010E-003
 Begin minimization
 Creating dielectric and ionic cavities
  area:      142.920951510441     
  volume:    652.166628066167     
  Acav:     7.503349954298173E-002
  Solving linear dielectric/ionic screening model
        iter                  A_solv                     rms
   LPB:       -0.304035370841744E+00   0.969498526739821E+00
   LPB:    0  -0.303915139968854E+00   0.931750288075610E+00  -0.291413E-02   0.000000E+00   0.283157E+02  -0.825157E-01
   LPB:    1  -0.300766798335470E+00   0.161640070790787E+00   0.114419E-01   0.000000E+00   0.541355E+02  -0.190719E-18
   LPB:    2  -0.300387590648698E+00   0.502133639187836E-01   0.125451E-01   0.109855E+00   0.196233E+03  -0.493064E-15
   LPB:    3  -0.300325306454061E+00   0.134720510390986E-01   0.179517E-01   0.114781E+00   0.118141E+03  -0.607974E-15
   LPB:    4  -0.300310433122967E+00   0.162614810001674E-01   0.255530E-01   0.167763E+00   0.116691E+03  -0.615287E-15
   LPB:    5  -0.300302348486290E+00   0.132021712272950E-01   0.271888E-01   0.510863E+00   0.932170E+02  -0.610027E-15
   LPB:    6  -0.300295503474706E+00   0.674182457754021E-02   0.317001E-01   0.726177E+00   0.824494E+02  -0.544407E-15
  Finished solving LPB equations
  A_corr:   -0.225262003931725     
 End minimization
 Ecorr=   1660.69213033581     
 A_corr= -0.225262003931725     
 Ecorr_band=  -1660.91739233975     
 End Solvation calculations
RMM:  24    -0.133713561478E+03   -0.17266E-03   -0.11000E-04 11533   0.240E-02    0.190E-02
 Begin Solvation calculations
  rms_SCF =   3.531430366472309E-002 tol =   3.531430366472309E-003
 Begin minimization
 Creating dielectric and ionic cavities
  area:      142.939884512621     
  volume:    652.246796556802     
  Acav:     7.504343936912598E-002
  Solving linear dielectric/ionic screening model
        iter                  A_solv                     rms
   LPB:       -0.302462291330518E+00   0.553321389246651E+00
   LPB:    0  -0.302414942029091E+00   0.529432349240049E+00  -0.182889E-02   0.000000E+00   0.283120E+02  -0.517794E-01
   LPB:    1  -0.301419810472605E+00   0.889623165554520E-01   0.112415E-01   0.000000E+00   0.549319E+02   0.182793E-17
   LPB:    2  -0.301304309822900E+00   0.280356823874516E-01   0.125150E-01   0.104255E+00   0.192616E+03   0.941907E-17
   LPB:    3  -0.301285168395931E+00   0.728352796375018E-02   0.182880E-01   0.113410E+00   0.109958E+03   0.494566E-16
   LPB:    4  -0.301279190825855E+00   0.108946905069382E-01   0.307888E-01   0.185492E+00   0.978868E+02   0.320033E-17
   LPB:    5  -0.301273871834853E+00   0.120043716918649E-01   0.348806E-01   0.785441E+00   0.760808E+02  -0.255082E-16
   LPB:    6  -0.301268081491969E+00   0.715983868574115E-02   0.338465E-01   0.112188E+01   0.596965E+02  -0.716963E-16
   LPB:    7  -0.301262822231420E+00   0.288065017925335E-02   0.351633E-01   0.874267E+00   0.121064E+03  -0.133966E-15
  Finished solving LPB equations
  A_corr:   -0.226219382862294     
 End minimization
 Ecorr=   1660.22615061533     
 A_corr= -0.226219382862294     
 Ecorr_band=  -1660.45236999819     
 End Solvation calculations
RMM:  25    -0.133713609065E+03   -0.47587E-04   -0.36455E-05  7761   0.138E-02    0.167E-02
 Begin Solvation calculations
  rms_SCF =   3.278669998827619E-002 tol =   3.278669998827618E-003
 Begin minimization
 Creating dielectric and ionic cavities
  area:      142.946117534636     
  volume:    652.263155885557     
  Acav:     7.504671170568372E-002
  Solving linear dielectric/ionic screening model
        iter                  A_solv                     rms
   LPB:       -0.301780997898750E+00   0.229956392268596E+00
   LPB:    0  -0.301773626004406E+00   0.220646817332606E+00  -0.721648E-03   0.000000E+00   0.283112E+02  -0.204307E-01
   LPB:    1  -0.301618016704383E+00   0.312411180904328E-01   0.103436E-01   0.000000E+00   0.581547E+02  -0.870703E-18
   LPB:    2  -0.301601788000598E+00   0.829953921182886E-02   0.126989E-01   0.849482E-01   0.195153E+03   0.317473E-16
   LPB:    3  -0.301599028987204E+00   0.259805538734045E-02   0.204615E-01   0.105511E+00   0.135429E+03   0.164247E-16
   LPB:    4  -0.301598003542170E+00   0.478538824918865E-02   0.352067E-01   0.216008E+00   0.147810E+03   0.143553E-16
   LPB:    5  -0.301596135519997E+00   0.821041077800312E-02   0.541474E-01   0.118445E+01   0.153272E+03   0.234490E-17
   LPB:    6  -0.301592807590263E+00   0.595329644964908E-02   0.420161E-01   0.229591E+01   0.855272E+02  -0.218300E-16
   LPB:    7  -0.301589733269598E+00   0.202412928111531E-02   0.323843E-01   0.119855E+01   0.150929E+03  -0.102039E-15
  Finished solving LPB equations
  A_corr:   -0.226543021563914     
 End minimization
 Ecorr=   1659.97305778708     
 A_corr= -0.226543021563914     
 Ecorr_band=  -1660.19960080865     
 End Solvation calculations
RMM:  26    -0.133713614570E+03   -0.55051E-05   -0.15403E-05  7400   0.150E-02
 Begin Solvation calculations
  rms_SCF =   3.278669998827619E-002 tol =   3.278669998827618E-003
 Begin minimization
 Creating dielectric and ionic cavities
  area:      142.944163980595     
  volume:    652.260686232424     
  Acav:     7.504568608981220E-002
  Solving linear dielectric/ionic screening model
        iter                  A_solv                     rms
   LPB:       -0.302157472323686E+00   0.267792432677462E+00
   LPB:    0  -0.302148311258753E+00   0.258183259544510E+00  -0.804467E-03   0.000000E+00   0.283113E+02  -0.227755E-01
   LPB:    1  -0.301952886052777E+00   0.289015727426187E-01   0.935326E-02   0.000000E+00   0.652439E+02   0.545871E-18
   LPB:    2  -0.301938050202569E+00   0.756225033044583E-02   0.128744E-01   0.551527E-01   0.166203E+03  -0.240948E-16
   LPB:    3  -0.301935774964439E+00   0.170180824969273E-02   0.226411E-01   0.872056E-01   0.919996E+02   0.211125E-17
   LPB:    4  -0.301934919523712E+00   0.232406857193003E-02   0.361978E-01   0.235168E+00   0.159021E+03   0.410181E-16
  Finished solving LPB equations
  A_corr:   -0.226889233433900     
 End minimization
 Ecorr=   1659.74995997918     
 A_corr= -0.226889233433900     
 Ecorr_band=  -1659.97684921262     
 End Solvation calculations
   1 F= -.13371361E+03 E0= -.13371434E+03  d E =-.133714E+03
quench:  g(F)=  0.000E+00 g(S)=  0.000E+00 dE (1.order)= 0.000E+00
 bond charge predicted
       N       E                     dE             d eps       ncg     rms          rms(c)
 Begin Solvation calculations
  rms_SCF =   3.278669998827619E-002 tol =   3.278669998827618E-003
 Begin minimization
 Creating dielectric and ionic cavities
  area:      142.906157496079     
  volume:    652.167960059393     
  Acav:     7.502573268544148E-002
  Solving linear dielectric/ionic screening model
        iter                  A_solv                     rms
   LPB:       -0.313681150860157E+00   0.115118383164997E-01
   LPB:    0  -0.313681149926656E+00   0.116682742920021E-01  -0.812006E-05   0.000000E+00   0.283157E+02  -0.229925E-03
   LPB:    1  -0.303851672941844E+00   0.481225566339966E-02   0.157560E-01   0.000000E+00   0.494298E+06  -0.123075E-19
   LPB:    2  -0.302819100060837E+00   0.491732969537654E-02   0.270142E-01   0.612697E-01   0.102960E+06  -0.871673E-17
   LPB:    3  -0.302490219786832E+00   0.897030590905920E-02   0.323400E-01   0.266053E+00   0.238225E+05  -0.300849E-16
   LPB:    4  -0.302355362066554E+00   0.179714347735594E-01   0.344409E-01   0.385038E+00   0.267638E+04  -0.702266E-16
   LPB:    5  -0.302295325005754E+00   0.326871494037110E-01   0.322464E-01   0.475485E+00   0.381375E+03  -0.150044E-15
   LPB:    6  -0.302266583500096E+00   0.267163210027966E-01   0.232158E-01   0.664947E+00   0.143751E+03  -0.230524E-15
   LPB:    7  -0.302244923842005E+00   0.178352951735640E-01   0.272030E-01   0.643145E+00   0.323061E+03  -0.257020E-15
   LPB:    8  -0.302232510759004E+00   0.248764878647853E-01   0.271380E-01   0.574471E+00   0.203623E+03  -0.324159E-15
   LPB:    9  -0.302223872707159E+00   0.105992102489798E-01   0.209644E-01   0.900804E+00   0.171028E+03  -0.362271E-15
   LPB:   10  -0.302216167130532E+00   0.244330157140453E-02   0.350084E-01   0.534195E+00   0.973693E+03  -0.422179E-15
  Finished solving LPB equations
  A_corr:   -0.227190434445091     
 End minimization
 Ecorr=   1659.75342902527     
 A_corr= -0.227190434445091     
 Ecorr_band=  -1659.98061945971     
 End Solvation calculations
DAV:   1    -0.133722302832E+03   -0.86938E-02   -0.74180E-01 12880   0.139E+00    0.222E-01
 Begin Solvation calculations
  rms_SCF =   3.278669998827619E-002 tol =   3.278669998827618E-003
 Begin minimization
 Creating dielectric and ionic cavities
  area:      142.956115570751     
  volume:    652.406644139584     
  Acav:     7.505196067464409E-002
  Solving linear dielectric/ionic screening model
        iter                  A_solv                     rms
   LPB:       -0.302262490412300E+00   0.645002214649649E+00
   LPB:    0  -0.301830544626320E+00   0.489737667750350E+00   0.552462E-02   0.000000E+00   0.283045E+02   0.156371E+00
   LPB:    1  -0.300671808026277E+00   0.125141921028526E+00   0.109976E-01   0.000000E+00   0.745543E+02  -0.697600E-17
   LPB:    2  -0.300489129166557E+00   0.227470707450607E-01   0.140461E-01   0.123437E+00   0.187560E+03  -0.758583E-15
   LPB:    3  -0.300441585505876E+00   0.192989450890111E-01   0.235586E-01   0.155171E+00   0.377455E+03  -0.770864E-15
   LPB:    4  -0.300426318274464E+00   0.175315188662788E-01   0.226888E-01   0.333430E+00   0.117411E+03  -0.777466E-15
   LPB:    5  -0.300417581928957E+00   0.839898564887953E-02   0.247206E-01   0.525197E+00   0.230339E+03  -0.800007E-15
   LPB:    6  -0.300412318614513E+00   0.347598253152975E-02   0.331145E-01   0.449750E+00   0.214002E+03  -0.750714E-15
   LPB:    7  -0.300409044434492E+00   0.230116720771841E-02   0.351620E-01   0.585852E+00   0.822084E+03  -0.775957E-15
  Finished solving LPB equations
  A_corr:   -0.225357083759848     
 End minimization
 Ecorr=   1659.61638276855     
 A_corr= -0.225357083759848     
 Ecorr_band=  -1659.84173985231     
 End Solvation calculations
RMM:   2    -0.133724478275E+03   -0.21754E-02   -0.28636E-02 18334   0.342E-01    0.210E-01
 Begin Solvation calculations
  rms_SCF =   3.278669998827619E-002 tol =   3.278669998827618E-003
 Begin minimization
 Creating dielectric and ionic cavities
  area:      142.982572589798     
  volume:    652.365960555465     
  Acav:     7.506585060964414E-002
  Solving linear dielectric/ionic screening model
        iter                  A_solv                     rms
   LPB:       -0.299862988466580E+00   0.178886323701773E+00
   LPB:    0  -0.299859429133406E+00   0.173503346895910E+00   0.501484E-03   0.000000E+00   0.283064E+02   0.141952E-01
   LPB:    1  -0.299758877787716E+00   0.350172422168422E-01   0.103775E-01   0.000000E+00   0.612198E+02   0.108736E-17
   LPB:    2  -0.299733483353827E+00   0.522648103272894E-02   0.173474E-01   0.151081E+00   0.119679E+03  -0.148877E-15
   LPB:    3  -0.299729401213106E+00   0.400975288194761E-02   0.264251E-01   0.105528E+00   0.167358E+03  -0.152955E-15
   LPB:    4  -0.299727381054773E+00   0.482838045098873E-02   0.330631E-01   0.395522E+00   0.287756E+03  -0.135409E-15
   LPB:    5  -0.299725477476620E+00   0.559124286461200E-02   0.396000E-01   0.786745E+00   0.942618E+02  -0.156634E-15
   LPB:    6  -0.299723866818541E+00   0.503392113956620E-02   0.316772E-01   0.105775E+01   0.241119E+03  -0.209852E-15
   LPB:    7  -0.299722507555068E+00   0.279277897495058E-02   0.298905E-01   0.894361E+00   0.170689E+03  -0.296443E-15
  Finished solving LPB equations
  A_corr:   -0.224656656945424     
 End minimization
 Ecorr=   1660.00531916764     
 A_corr= -0.224656656945424     
 Ecorr_band=  -1660.22997582459     
 End Solvation calculations
RMM:   3    -0.133723836304E+03    0.64197E-03   -0.23670E-03 14884   0.110E-01    0.113E-01
 Begin Solvation calculations
  rms_SCF =   3.278669998827619E-002 tol =   3.278669998827618E-003
 Begin minimization
 Creating dielectric and ionic cavities
  area:      142.946913940686     
  volume:    652.379556345034     
  Acav:     7.504712981886037E-002
  Solving linear dielectric/ionic screening model
        iter                  A_solv                     rms
   LPB:       -0.299594274187730E+00   0.547992337230118E+00
   LPB:    0  -0.299490319041228E+00   0.507056182540676E+00   0.271020E-02   0.000000E+00   0.283057E+02   0.767141E-01
   LPB:    1  -0.298650013770684E+00   0.692991607424167E-01   0.955069E-02   0.000000E+00   0.705006E+02  -0.457084E-17
   LPB:    2  -0.298555310607604E+00   0.114120742178922E-01   0.142950E-01   0.752969E-01   0.206123E+03   0.156977E-15
   LPB:    3  -0.298537620531197E+00   0.788516212170338E-02   0.247481E-01   0.107897E+00   0.395906E+03   0.279215E-15
   LPB:    4  -0.298532605281649E+00   0.759173243673356E-02   0.253655E-01   0.276605E+00   0.150063E+03   0.296341E-15
   LPB:    5  -0.298530177288841E+00   0.640125929822644E-02   0.248129E-01   0.494903E+00   0.264125E+03   0.272711E-15
   LPB:    6  -0.298528574768049E+00   0.325008158458507E-02   0.289910E-01   0.564900E+00   0.100558E+03   0.284459E-15
  Finished solving LPB equations
  A_corr:   -0.223481444949189     
 End minimization
 Ecorr=   1660.20611147581     
 A_corr= -0.223481444949189     
 Ecorr_band=  -1660.42959292076     
 End Solvation calculations
RMM:   4    -0.133723839006E+03   -0.27024E-05   -0.59792E-04 12930   0.937E-02    0.105E-01
 Begin Solvation calculations
  rms_SCF =   3.278669998827619E-002 tol =   3.278669998827618E-003
 Begin minimization
 Creating dielectric and ionic cavities
  area:      142.950056200036     
  volume:    652.362888942094     
  Acav:     7.504877950501909E-002
  Solving linear dielectric/ionic screening model
        iter                  A_solv                     rms
   LPB:       -0.297374051700045E+00   0.327839221836521E+00
   LPB:    0  -0.297259999289708E+00   0.237543612991506E+00   0.283873E-02   0.000000E+00   0.283065E+02   0.803545E-01
   LPB:    1  -0.296868822593461E+00   0.950066074878576E-01   0.139440E-01   0.000000E+00   0.632716E+02   0.594799E-17
   LPB:    2  -0.296779360786881E+00   0.190362271431759E-01   0.132296E-01   0.241048E+00   0.144236E+03  -0.261148E-15
   LPB:    3  -0.296760286612630E+00   0.111136430480727E-01   0.252686E-01   0.111628E+00   0.167331E+03  -0.293010E-15
   LPB:    4  -0.296753191577412E+00   0.101924328510388E-01   0.271546E-01   0.346135E+00   0.124943E+03  -0.297563E-15
   LPB:    5  -0.296749259084617E+00   0.813400497396919E-02   0.253005E-01   0.594877E+00   0.220732E+03  -0.290738E-15
   LPB:    6  -0.296746342967757E+00   0.394146585024128E-02   0.302514E-01   0.620185E+00   0.882619E+02  -0.335747E-15
   LPB:    7  -0.296744224489680E+00   0.249162457200938E-02   0.368092E-01   0.597046E+00   0.403810E+03  -0.376518E-15
  Finished solving LPB equations
  A_corr:   -0.221695444984661     
 End minimization
 Ecorr=   1660.75840111679     
 A_corr= -0.221695444984661     
 Ecorr_band=  -1660.98009656177     
 End Solvation calculations
RMM:   5    -0.133723526420E+03    0.31259E-03   -0.40384E-04 12554   0.760E-02    0.434E-02
 Begin Solvation calculations
  rms_SCF =   3.141212830591902E-002 tol =   3.141212830591902E-003
 Begin minimization
 Creating dielectric and ionic cavities
  area:      142.931046962047     
  volume:    652.305220027366     
  Acav:     7.503879965507489E-002
  Solving linear dielectric/ionic screening model
        iter                  A_solv                     rms
   LPB:       -0.295942058048048E+00   0.233209529361248E+00
   LPB:    0  -0.295902434521292E+00   0.186862782376268E+00   0.167312E-02   0.000000E+00   0.283092E+02   0.473648E-01
   LPB:    1  -0.295709528945811E+00   0.668628076015167E-01   0.109081E-01   0.000000E+00   0.846566E+02  -0.255833E-17
   LPB:    2  -0.295674227619987E+00   0.959028159624043E-02   0.145280E-01   0.137400E+00   0.873734E+02   0.148584E-15
   LPB:    3  -0.295666853928240E+00   0.592639721930557E-02   0.229700E-01   0.132111E+00   0.170494E+03   0.270176E-15
   LPB:    4  -0.295664197259810E+00   0.543873160075910E-02   0.298416E-01   0.277327E+00   0.109373E+03   0.292739E-15
   LPB:    5  -0.295662357372247E+00   0.688579629349983E-02   0.305696E-01   0.676061E+00   0.237082E+03   0.290818E-15
   LPB:    6  -0.295660481099926E+00   0.405232161699956E-02   0.335992E-01   0.927825E+00   0.565193E+02   0.270153E-15
   LPB:    7  -0.295658897229512E+00   0.201041262313231E-02   0.347546E-01   0.816096E+00   0.201969E+03   0.228285E-15
  Finished solving LPB equations
  A_corr:   -0.220620097574437     
 End minimization
 Ecorr=   1661.36871238374     
 A_corr= -0.220620097574437     
 Ecorr_band=  -1661.58933248132     
 End Solvation calculations
RMM:   6    -0.133723523892E+03    0.25284E-05   -0.23255E-04 12203   0.671E-02    0.427E-02
 Begin Solvation calculations
  rms_SCF =   3.141212830591902E-002 tol =   3.141212830591902E-003
 Begin minimization
 Creating dielectric and ionic cavities
  area:      142.917996912438     
  volume:    652.271979331920     
  Acav:     7.503194837903020E-002
  Solving linear dielectric/ionic screening model
        iter                  A_solv                     rms
   LPB:       -0.295131325237470E+00   0.836644462794181E-01
   LPB:    0  -0.295121925981476E+00   0.463520834693240E-01   0.814865E-03   0.000000E+00   0.283108E+02   0.230695E-01
   LPB:    1  -0.295086003343025E+00   0.162667437902491E-01   0.182724E-01   0.000000E+00   0.679596E+02  -0.613142E-18
   LPB:    2  -0.295082684042471E+00   0.886125570935361E-02   0.165074E-01   0.102281E+00   0.836827E+02   0.296887E-16
   LPB:    3  -0.295081662961149E+00   0.363479192241391E-02   0.174047E-01   0.291761E+00   0.154817E+03   0.503472E-16
   LPB:    4  -0.295081041965246E+00   0.387759596055489E-02   0.281174E-01   0.376460E+00   0.898827E+02   0.531923E-16
   LPB:    5  -0.295080391084002E+00   0.474458340242448E-02   0.329673E-01   0.893932E+00   0.172692E+03   0.511255E-16
   LPB:    6  -0.295079440668851E+00   0.275985356102954E-02   0.381984E-01   0.126023E+01   0.488474E+02   0.554522E-16
  Finished solving LPB equations
  A_corr:   -0.220047492289821     
 End minimization
 Ecorr=   1661.70925356044     
 A_corr= -0.220047492289821     
 Ecorr_band=  -1661.92930105273     
 End Solvation calculations
RMM:   7    -0.133723500828E+03    0.23064E-04   -0.66314E-05 10473   0.388E-02    0.150E-02
 Begin Solvation calculations
  rms_SCF =   2.628678483370616E-002 tol =   2.628678483370616E-003
 Begin minimization
 Creating dielectric and ionic cavities
  area:      142.875358109816     
  volume:    652.189914715033     
  Acav:     7.500956300765337E-002
  Solving linear dielectric/ionic screening model
        iter                  A_solv                     rms
   LPB:       -0.293948488192699E+00   0.207991657486382E+00
   LPB:    0  -0.293890416160178E+00   0.116109081275372E+00   0.202532E-02   0.000000E+00   0.283146E+02   0.573461E-01
   LPB:    1  -0.293677325191329E+00   0.808675634612594E-01   0.159093E-01   0.000000E+00   0.853306E+02   0.152047E-17
   LPB:    2  -0.293648556743207E+00   0.143646010657841E-01   0.122046E-01   0.175986E+00   0.560644E+02  -0.245154E-15
   LPB:    3  -0.293640871015530E+00   0.704499943564395E-02   0.200765E-01   0.162408E+00   0.299981E+03  -0.260649E-15
   LPB:    4  -0.293637831188128E+00   0.533957235846821E-02   0.282668E-01   0.280914E+00   0.824595E+02  -0.262738E-15
   LPB:    5  -0.293636125436088E+00   0.607036937567381E-02   0.290395E-01   0.546205E+00   0.224047E+03  -0.288698E-15
   LPB:    6  -0.293634820746769E+00   0.324322273562097E-02   0.283788E-01   0.782684E+00   0.634478E+02  -0.320481E-15
   LPB:    7  -0.293633693107046E+00   0.161158496177341E-02   0.358675E-01   0.683842E+00   0.196830E+03  -0.350676E-15
  Finished solving LPB equations
  A_corr:   -0.218624130099393     
 End minimization
 Ecorr=   1662.45833277529     
 A_corr= -0.218624130099393     
 Ecorr_band=  -1662.67695690539     
 End Solvation calculations
RMM:   8    -0.133723541361E+03   -0.40533E-04   -0.36665E-05  8056   0.184E-02    0.138E-02
 Begin Solvation calculations
  rms_SCF =   1.915978701456337E-002 tol =   1.915978701456337E-003
 Begin minimization
 Creating dielectric and ionic cavities
  area:      142.857474252977     
  volume:    652.163368975936     
  Acav:     7.500017398281317E-002
  Solving linear dielectric/ionic screening model
        iter                  A_solv                     rms
   LPB:       -0.293229468261975E+00   0.891816176129807E-01
   LPB:    0  -0.293224788945716E+00   0.725871411430051E-01   0.574899E-03   0.000000E+00   0.283159E+02   0.162788E-01
   LPB:    1  -0.293196578413745E+00   0.267690698137690E-01   0.103495E-01   0.000000E+00   0.882495E+02   0.132237E-17
   LPB:    2  -0.293191386613754E+00   0.332095888420961E-02   0.153066E-01   0.124437E+00   0.607343E+02   0.326598E-16
   LPB:    3  -0.293190428118383E+00   0.258733959962263E-02   0.236790E-01   0.119340E+00   0.170405E+03   0.456310E-16
   LPB:    4  -0.293189906729894E+00   0.316393204035537E-02   0.377709E-01   0.341018E+00   0.633279E+02   0.472576E-16
   LPB:    5  -0.293189188307030E+00   0.452485962334450E-02   0.422714E-01   0.123120E+01   0.140975E+03   0.286321E-16
   LPB:    6  -0.293188187654899E+00   0.254844303796058E-02   0.368063E-01   0.159966E+01   0.358941E+02   0.786738E-17
   LPB:    7  -0.293187517630139E+00   0.967025683251500E-03   0.307814E-01   0.800648E+00   0.132605E+03  -0.379236E-16
  Finished solving LPB equations
  A_corr:   -0.218187343647326     
 End minimization
 Ecorr=   1662.91798462101     
 A_corr= -0.218187343647326     
 Ecorr_band=  -1663.13617196466     
 End Solvation calculations
RMM:   9    -0.133723546625E+03   -0.52640E-05   -0.17239E-05  7030   0.203E-02
 Begin Solvation calculations
  rms_SCF =   1.915978701456337E-002 tol =   1.915978701456337E-003
 Begin minimization
 Creating dielectric and ionic cavities
  area:      142.838373450226     
  volume:    652.149134280010     
  Acav:     7.499014606136867E-002
  Solving linear dielectric/ionic screening model
        iter                  A_solv                     rms
   LPB:       -0.292806457523094E+00   0.972645955169669E-01
   LPB:    0  -0.292800574315281E+00   0.789423848887084E-01   0.644617E-03   0.000000E+00   0.283165E+02   0.182533E-01
   LPB:    1  -0.292772853122610E+00   0.226460159864611E-01   0.973928E-02   0.000000E+00   0.834016E+02  -0.130493E-17
   LPB:    2  -0.292768758860674E+00   0.311585566736462E-02   0.153467E-01   0.937295E-01   0.608391E+02   0.849690E-16
   LPB:    3  -0.292768208585720E+00   0.195656477684745E-02   0.203956E-01   0.101131E+00   0.197224E+03  -0.356323E-17
   LPB:    4  -0.292768059430238E+00   0.159884182390745E-02   0.251809E-01   0.219545E+00   0.762292E+02  -0.191195E-16
  Finished solving LPB equations
  A_corr:   -0.217777913368869     
 End minimization
 Ecorr=   1663.09451963666     
 A_corr= -0.217777913368869     
 Ecorr_band=  -1663.31229755002     
 End Solvation calculations
   2 F= -.13372355E+03 E0= -.13372434E+03  d E =-.993205E-02
quench:  g(F)=  0.000E+00 g(S)=  0.000E+00 dE (1.order)= 0.000E+00
 bond charge predicted
       N       E                     dE             d eps       ncg     rms          rms(c)
 Begin Solvation calculations
  rms_SCF =   1.915978701456337E-002 tol =   1.915978701456337E-003
 Begin minimization
 Creating dielectric and ionic cavities
  area:      142.879622791710     
  volume:    652.147758435667     
  Acav:     7.501180196564773E-002
  Solving linear dielectric/ionic screening model
        iter                  A_solv                     rms
   LPB:       -0.306189260893834E+00   0.105803112663357E-01
   LPB:    0  -0.306189260878144E+00   0.105819217929915E-01   0.105269E-05   0.000000E+00   0.283166E+02   0.298085E-04
   LPB:    1  -0.294903893042360E+00   0.407417387404555E-02   0.157658E-01   0.000000E+00   0.810521E+06   0.368066E-21
   LPB:    2  -0.293703845159013E+00   0.194297525443709E-02   0.268977E-01   0.623280E-01   0.171186E+06  -0.226855E-18
   LPB:    3  -0.293328596381614E+00   0.237068283484002E-02   0.322725E-01   0.260617E+00   0.141746E+06  -0.154315E-16
   LPB:    4  -0.293176357146607E+00   0.630435628665020E-02   0.347454E-01   0.376828E+00   0.398058E+05  -0.203538E-16
   LPB:    5  -0.293105608724684E+00   0.169248098934636E-01   0.361052E-01   0.447216E+00   0.311310E+04  -0.270535E-16
   LPB:    6  -0.293073137471381E+00   0.373102183698257E-01   0.310444E-01   0.533787E+00   0.319820E+03  -0.458711E-16
   LPB:    7  -0.293056141191295E+00   0.215728284711408E-01   0.187556E-01   0.866379E+00   0.146454E+03  -0.921587E-16
   LPB:    8  -0.293040134365635E+00   0.925276016228365E-02   0.304256E-01   0.580554E+00   0.584418E+03  -0.129314E-15
   LPB:    9  -0.293030157794615E+00   0.142762487857881E-01   0.339095E-01   0.559234E+00   0.342902E+03  -0.176652E-15
   LPB:   10  -0.293024173927313E+00   0.106600627422028E-01   0.251810E-01   0.807698E+00   0.137239E+03  -0.146415E-15
   LPB:   11  -0.293018968618347E+00   0.361943217688594E-02   0.314885E-01   0.695643E+00   0.437231E+03  -0.288070E-15
   LPB:   12  -0.293015274834260E+00   0.138508322383179E-02   0.389355E-01   0.573893E+00   0.164124E+04  -0.416246E-15
  Finished solving LPB equations
  A_corr:   -0.218003472868612     
 End minimization
 Ecorr=   1663.13678562254     
 A_corr= -0.218003472868612     
 Ecorr_band=  -1663.35478909541     
 End Solvation calculations
DAV:   1    -0.133727486221E+03   -0.39449E-02   -0.11043E+00 12630   0.209E+00    0.240E-01
 Begin Solvation calculations
  rms_SCF =   1.915978701456337E-002 tol =   1.915978701456337E-003
 Begin minimization
 Creating dielectric and ionic cavities
  area:      142.867754742416     
  volume:    652.357572455688     
  Acav:     7.500557123976816E-002
  Solving linear dielectric/ionic screening model
        iter                  A_solv                     rms
   LPB:       -0.292765720597013E+00   0.708398807341000E+00
   LPB:    0  -0.292336619096577E+00   0.557956621320633E+00   0.550617E-02   0.000000E+00   0.283068E+02   0.155862E+00
   LPB:    1  -0.291094971233539E+00   0.115043179497441E+00   0.102997E-01   0.000000E+00   0.696102E+02   0.534289E-18
   LPB:    2  -0.290920547584712E+00   0.204175697822508E-01   0.141810E-01   0.102029E+00   0.154364E+03  -0.306749E-15
   LPB:    3  -0.290882186880690E+00   0.192716477552429E-01   0.235559E-01   0.132400E+00   0.351966E+03  -0.285715E-15
   LPB:    4  -0.290870144790329E+00   0.151237579634972E-01   0.218023E-01   0.339166E+00   0.919289E+02  -0.283193E-15
   LPB:    5  -0.290863228275986E+00   0.663010500190404E-02   0.253116E-01   0.494731E+00   0.276193E+03  -0.262809E-15
   LPB:    6  -0.290859309615740E+00   0.251605588157291E-02   0.330223E-01   0.434273E+00   0.215327E+03  -0.262387E-15
   LPB:    7  -0.290856957840352E+00   0.179997303750234E-02   0.346983E-01   0.571159E+00   0.462842E+03  -0.187808E-15
  Finished solving LPB equations
  A_corr:   -0.215851386600584     
 End minimization
 Ecorr=   1663.40559278273     
 A_corr= -0.215851386600584     
 Ecorr_band=  -1663.62144416933     
 End Solvation calculations
RMM:   2    -0.133731260821E+03   -0.37746E-02   -0.45536E-02 15498   0.530E-01    0.183E-01
 Begin Solvation calculations
  rms_SCF =   1.915978701456337E-002 tol =   1.915978701456337E-003
 Begin minimization
 Creating dielectric and ionic cavities
  area:      142.868722235028     
  volume:    652.290199996145     
  Acav:     7.500607917338953E-002
  Solving linear dielectric/ionic screening model
        iter                  A_solv                     rms
   LPB:       -0.290696787210749E+00   0.458013719804804E+00
   LPB:    0  -0.290696516420648E+00   0.457622510556282E+00   0.138313E-03   0.000000E+00   0.283099E+02   0.391562E-02
   LPB:    1  -0.290179836070832E+00   0.545635685237753E-01   0.917631E-02   0.000000E+00   0.584682E+02   0.290701E-18
   LPB:    2  -0.290110099593015E+00   0.120870396185962E-01   0.169534E-01   0.730548E-01   0.103399E+03   0.399455E-16
   LPB:    3  -0.290100755097774E+00   0.572050081425467E-02   0.217965E-01   0.104224E+00   0.126512E+03   0.613644E-16
   LPB:    4  -0.290097679737591E+00   0.496223859306742E-02   0.283497E-01   0.253034E+00   0.258059E+03   0.609638E-16
   LPB:    5  -0.290096128471667E+00   0.477781131138111E-02   0.284268E-01   0.503050E+00   0.120685E+03   0.722572E-16
   LPB:    6  -0.290094981236160E+00   0.395804903822637E-02   0.290614E-01   0.723400E+00   0.214966E+03   0.985306E-16
   LPB:    7  -0.290093997440580E+00   0.214783025455417E-02   0.339099E-01   0.734922E+00   0.108996E+03   0.101362E-15
   LPB:    8  -0.290093120909469E+00   0.131250386003815E-02   0.392826E-01   0.769111E+00   0.338061E+03   0.119161E-15
  Finished solving LPB equations
  A_corr:   -0.215087041736079     
 End minimization
 Ecorr=   1663.94480139159     
 A_corr= -0.215087041736079     
 Ecorr_band=  -1664.15988843332     
 End Solvation calculations
RMM:   3    -0.133730313667E+03    0.94715E-03   -0.35654E-03 16060   0.151E-01    0.104E-01
 Begin Solvation calculations
  rms_SCF =   1.915978701456337E-002 tol =   1.915978701456337E-003
 Begin minimization
 Creating dielectric and ionic cavities
  area:      142.839729256613     
  volume:    652.293530831453     
  Acav:     7.499085785972159E-002
  Solving linear dielectric/ionic screening model
        iter                  A_solv                     rms
   LPB:       -0.290112562737098E+00   0.374557759456384E+00
   LPB:    0  -0.290094788852486E+00   0.363530584705403E+00   0.112057E-02   0.000000E+00   0.283098E+02   0.317230E-01
   LPB:    1  -0.289751566705438E+00   0.304184806465613E-01   0.880102E-02   0.000000E+00   0.665126E+02  -0.214194E-18
   LPB:    2  -0.289727950074478E+00   0.486628294986267E-02   0.144820E-01   0.418165E-01   0.159994E+03  -0.591779E-17
   LPB:    3  -0.289724505334566E+00   0.465646038486766E-02   0.251827E-01   0.838810E-01   0.389127E+03   0.128698E-16
   LPB:    4  -0.289723345405244E+00   0.393201040642502E-02   0.259068E-01   0.327314E+00   0.111211E+03   0.409836E-17
   LPB:    5  -0.289722668221312E+00   0.296898945284502E-02   0.259556E-01   0.582717E+00   0.315293E+03   0.139407E-16
   LPB:    6  -0.289722181793747E+00   0.168695277409774E-02   0.313678E-01   0.594373E+00   0.111050E+03  -0.433246E-17
  Finished solving LPB equations
  A_corr:   -0.214731323934025     
 End minimization
 Ecorr=   1664.08810012550     
 A_corr= -0.214731323934025     
 Ecorr_band=  -1664.30283144943     
 End Solvation calculations
RMM:   4    -0.133730204700E+03    0.10897E-03   -0.55344E-04 13467   0.853E-02    0.861E-02
 Begin Solvation calculations
  rms_SCF =   1.915978701456337E-002 tol =   1.915978701456337E-003
 Begin minimization
 Creating dielectric and ionic cavities
  area:      142.827574678213     
  volume:    652.289651648521     
  Acav:     7.498447670606198E-002
  Solving linear dielectric/ionic screening model
        iter                  A_solv                     rms
   LPB:       -0.288905610658642E+00   0.199221303530825E+00
   LPB:    0  -0.288867082475788E+00   0.144744351621487E+00   0.164981E-02   0.000000E+00   0.283099E+02   0.467061E-01
   LPB:    1  -0.288747621643128E+00   0.508082715129001E-01   0.139712E-01   0.000000E+00   0.502100E+02  -0.196936E-17
   LPB:    2  -0.288721289722166E+00   0.957327418722401E-02   0.130783E-01   0.235473E+00   0.143936E+03  -0.236238E-15
   LPB:    3  -0.288716080606742E+00   0.757656218509964E-02   0.244163E-01   0.105963E+00   0.208801E+03  -0.268416E-15
   LPB:    4  -0.288714304567306E+00   0.564754175206849E-02   0.236328E-01   0.352252E+00   0.752891E+02  -0.273903E-15
   LPB:    5  -0.288713232604419E+00   0.298489180416458E-02   0.257327E-01   0.554315E+00   0.233689E+03  -0.273215E-15
   LPB:    6  -0.288712450899720E+00   0.122616453380997E-02   0.337945E-01   0.555268E+00   0.123954E+03  -0.277609E-15
  Finished solving LPB equations
  A_corr:   -0.213727974193658     
 End minimization
 Ecorr=   1664.45681777698     
 A_corr= -0.213727974193658     
 Ecorr_band=  -1664.67054575117     
 End Solvation calculations
RMM:   5    -0.133730067207E+03    0.13749E-03   -0.18752E-04 13641   0.390E-02    0.531E-02
 Begin Solvation calculations
  rms_SCF =   1.915978701456337E-002 tol =   1.915978701456337E-003
 Begin minimization
 Creating dielectric and ionic cavities
  area:      142.788204851447     
  volume:    652.226877201152     
  Acav:     7.496380754700967E-002
  Solving linear dielectric/ionic screening model
        iter                  A_solv                     rms
   LPB:       -0.287234600835131E+00   0.318709929610575E+00
   LPB:    0  -0.287098520937312E+00   0.173205517790735E+00   0.310042E-02   0.000000E+00   0.283129E+02   0.877817E-01
   LPB:    1  -0.286624443494304E+00   0.936530653702032E-01   0.170406E-01   0.000000E+00   0.719034E+02   0.320667E-17
   LPB:    2  -0.286572234843141E+00   0.278037299446822E-01   0.132711E-01   0.141408E+00   0.671606E+02  -0.480403E-15
   LPB:    3  -0.286555032826196E+00   0.129102284288116E-01   0.189757E-01   0.230433E+00   0.285222E+03  -0.528903E-15
   LPB:    4  -0.286547965317292E+00   0.108148005037779E-01   0.251134E-01   0.310441E+00   0.769215E+02  -0.523053E-15
   LPB:    5  -0.286544167706882E+00   0.811216766215253E-02   0.242857E-01   0.555646E+00   0.244639E+03  -0.507752E-15
   LPB:    6  -0.286541351686442E+00   0.288403770815513E-02   0.304086E-01   0.592217E+00   0.881659E+02  -0.456759E-15
   LPB:    7  -0.286539421195187E+00   0.149159899015208E-02   0.362043E-01   0.575795E+00   0.189991E+03  -0.420252E-15
  Finished solving LPB equations
  A_corr:   -0.211575613648178     
 End minimization
 Ecorr=   1665.55865938246     
 A_corr= -0.211575613648178     
 Ecorr_band=  -1665.77023499611     
 End Solvation calculations
RMM:   6    -0.133730089217E+03   -0.22010E-04   -0.20019E-04 12484   0.462E-02    0.313E-02
 Begin Solvation calculations
  rms_SCF =   1.915978701456337E-002 tol =   1.915978701456337E-003
 Begin minimization
 Creating dielectric and ionic cavities
  area:      142.766387418363     
  volume:    652.217749983153     
  Acav:     7.495235339464081E-002
  Solving linear dielectric/ionic screening model
        iter                  A_solv                     rms
   LPB:       -0.286080271782774E+00   0.149863582142823E+00
   LPB:    0  -0.286064027286028E+00   0.118747166556525E+00   0.107121E-02   0.000000E+00   0.283133E+02   0.303294E-01
   LPB:    1  -0.286007495425136E+00   0.287413448652629E-01   0.981663E-02   0.000000E+00   0.742445E+02   0.168157E-18
   LPB:    2  -0.285999491091059E+00   0.463305936646765E-02   0.150586E-01   0.923018E-01   0.747786E+02   0.303930E-16
   LPB:    3  -0.285997944517761E+00   0.425076047682260E-02   0.235335E-01   0.123635E+00   0.190136E+03   0.750923E-17
   LPB:    4  -0.285997209493282E+00   0.438436365219599E-02   0.291744E-01   0.383368E+00   0.532070E+02  -0.135947E-16
   LPB:    5  -0.285996156490940E+00   0.387910186486024E-02   0.406228E-01   0.102887E+01   0.135675E+03  -0.187590E-16
   LPB:    6  -0.285994828716210E+00   0.157246211044534E-02   0.414881E-01   0.123464E+01   0.460517E+02   0.436492E-16
  Finished solving LPB equations
  A_corr:   -0.211042475321569     
 End minimization
 Ecorr=   1665.97687267332     
 A_corr= -0.211042475321569     
 Ecorr_band=  -1666.18791514864     
 End Solvation calculations
RMM:   7    -0.133730070840E+03    0.18376E-04   -0.55817E-05 10570   0.345E-02    0.117E-02
 Begin Solvation calculations
  rms_SCF =   1.373154569247424E-002 tol =   1.373154569247424E-003
 Begin minimization
 Creating dielectric and ionic cavities
  area:      142.742017984273     
  volume:    652.196322093815     
  Acav:     7.493955944174349E-002
  Solving linear dielectric/ionic screening model
        iter                  A_solv                     rms
   LPB:       -0.285476394552739E+00   0.132541866714205E+00
   LPB:    0  -0.285463250108957E+00   0.101291532445797E+00   0.963569E-03   0.000000E+00   0.283143E+02   0.272828E-01
   LPB:    1  -0.285412326020038E+00   0.341553151675369E-01   0.103156E-01   0.000000E+00   0.792520E+02   0.108808E-18
   LPB:    2  -0.285404128455062E+00   0.467111168254608E-02   0.146193E-01   0.113588E+00   0.610149E+02  -0.199233E-15
   LPB:    3  -0.285402988411762E+00   0.304327205666965E-02   0.196847E-01   0.103284E+00   0.190845E+03  -0.334876E-15
   LPB:    4  -0.285402576564549E+00   0.278814415499345E-02   0.294857E-01   0.241175E+00   0.562107E+02  -0.356202E-15
   LPB:    5  -0.285402185367055E+00   0.250919490315482E-02   0.324550E-01   0.862959E+00   0.157587E+03  -0.312660E-15
   LPB:    6  -0.285401708092018E+00   0.134454339301136E-02   0.397841E-01   0.995277E+00   0.458685E+02  -0.255191E-15
  Finished solving LPB equations
  A_corr:   -0.210462148650274     
 End minimization
 Ecorr=   1666.35708598511     
 A_corr= -0.210462148650274     
 Ecorr_band=  -1666.56754813376     
 End Solvation calculations
RMM:   8    -0.133730089196E+03   -0.18355E-04   -0.15462E-05  7231   0.163E-02    0.143E-02
 Begin Solvation calculations
  rms_SCF =   1.373154569247424E-002 tol =   1.373154569247424E-003
 Begin minimization
 Creating dielectric and ionic cavities
  area:      142.730124395728     
  volume:    652.183520119031     
  Acav:     7.493331530775725E-002
  Solving linear dielectric/ionic screening model
        iter                  A_solv                     rms
   LPB:       -0.285069893556152E+00   0.554814635462584E-01
   LPB:    0  -0.285066225652717E+00   0.317885406616766E-01   0.508998E-03   0.000000E+00   0.283149E+02   0.144122E-01
   LPB:    1  -0.285053632238320E+00   0.162219487934602E-01   0.159171E-01   0.000000E+00   0.638366E+02   0.544935E-18
   LPB:    2  -0.285052181220649E+00   0.399003189790768E-02   0.126675E-01   0.144778E+00   0.636086E+02  -0.140599E-15
   LPB:    3  -0.285051829648926E+00   0.220892596433635E-02   0.180267E-01   0.170261E+00   0.301313E+03  -0.158341E-15
   LPB:    4  -0.285051600864404E+00   0.212790879122970E-02   0.334944E-01   0.350233E+00   0.505975E+02  -0.163622E-15
   LPB:    5  -0.285051309432161E+00   0.249559211121551E-02   0.396924E-01   0.107492E+01   0.107558E+03  -0.162806E-15
   LPB:    6  -0.285050907027976E+00   0.153763222786081E-02   0.371339E-01   0.147592E+01   0.372345E+02  -0.133222E-15
   LPB:    7  -0.285050567676184E+00   0.648718464580324E-03   0.366814E-01   0.853714E+00   0.101104E+03  -0.103318E-15
  Finished solving LPB equations
  A_corr:   -0.210117252368427     
 End minimization
 Ecorr=   1666.67256763059     
 A_corr= -0.210117252368427     
 Ecorr_band=  -1666.88268488296     
 End Solvation calculations
RMM:   9    -0.133730099756E+03   -0.10561E-04   -0.87486E-06  6882   0.136E-02    0.132E-02
 Begin Solvation calculations
  rms_SCF =   1.373154569247424E-002 tol =   1.373154569247424E-003
 Begin minimization
 Creating dielectric and ionic cavities
  area:      142.722415584588     
  volume:    652.177402524705     
  Acav:     7.492926818190868E-002
  Solving linear dielectric/ionic screening model
        iter                  A_solv                     rms
   LPB:       -0.284819407418592E+00   0.427109398526863E-01
   LPB:    0  -0.284817423691329E+00   0.266532351102280E-01   0.374323E-03   0.000000E+00   0.283152E+02   0.105990E-01
   LPB:    1  -0.284810751932007E+00   0.559213797232936E-02   0.168666E-01   0.000000E+00   0.468480E+02   0.139791E-18
   LPB:    2  -0.284810121626513E+00   0.258282456601333E-02   0.149416E-01   0.106645E+00   0.199270E+03  -0.714466E-16
   LPB:    3  -0.284809983226666E+00   0.127193697792480E-02   0.182760E-01   0.179515E+00   0.112467E+03  -0.853023E-16
   LPB:    4  -0.284809930618695E+00   0.148923237297615E-02   0.238804E-01   0.290908E+00   0.150224E+03  -0.101236E-15
   LPB:    5  -0.284809875058582E+00   0.138438625911846E-02   0.309269E-01   0.815488E+00   0.121718E+03  -0.108200E-15
   LPB:    6  -0.284809748121297E+00   0.878169360548913E-03   0.511967E-01   0.138013E+01   0.955998E+02  -0.120456E-15
  Finished solving LPB equations
  A_corr:   -0.209880479939389     
 End minimization
 Ecorr=   1666.79507935469     
 A_corr= -0.209880479939389     
 Ecorr_band=  -1667.00495983463     
 End Solvation calculations
RMM:  10    -0.133730104849E+03   -0.50928E-05   -0.41572E-06  6816   0.722E-03
 Begin Solvation calculations
  rms_SCF =   1.373154569247424E-002 tol =   1.373154569247424E-003
 Begin minimization
 Creating dielectric and ionic cavities
  area:      142.678349964014     
  volume:    652.142482751934     
  Acav:     7.490613373110713E-002
  Solving linear dielectric/ionic screening model
        iter                  A_solv                     rms
   LPB:       -0.283799208605212E+00   0.214770096738579E+00
   LPB:    0  -0.283747251447341E+00   0.126908925735629E+00   0.191565E-02   0.000000E+00   0.283168E+02   0.542451E-01
   LPB:    1  -0.283573057306542E+00   0.456125670033352E-01   0.163199E-01   0.000000E+00   0.534895E+02  -0.409598E-18
   LPB:    2  -0.283555010542424E+00   0.156586245713079E-01   0.139220E-01   0.121446E+00   0.809459E+02  -0.144562E-15
   LPB:    3  -0.283550795626100E+00   0.899174394408931E-02   0.173766E-01   0.187122E+00   0.218937E+03  -0.137422E-15
   LPB:    4  -0.283549102717158E+00   0.535210329216071E-02   0.214766E-01   0.324971E+00   0.669386E+02  -0.131123E-15
   LPB:    5  -0.283548214145829E+00   0.340055635669477E-02   0.235313E-01   0.479047E+00   0.246566E+03  -0.105125E-15
   LPB:    6  -0.283547602648538E+00   0.114907013189788E-02   0.291464E-01   0.555601E+00   0.988583E+02  -0.845196E-16
  Finished solving LPB equations
  A_corr:   -0.208641468917431     
 End minimization
 Ecorr=   1667.46188496060     
 A_corr= -0.208641468917431     
 Ecorr_band=  -1667.67052642952     
 End Solvation calculations
   3 F= -.13373010E+03 E0= -.13373090E+03  d E =-.655822E-02
quench:  g(F)=  0.000E+00 g(S)=  0.000E+00 dE (1.order)= 0.000E+00
 bond charge predicted
       N       E                     dE             d eps       ncg     rms          rms(c)
 Begin Solvation calculations
  rms_SCF =   1.373154569247424E-002 tol =   1.373154569247424E-003
 Begin minimization
 Creating dielectric and ionic cavities
  area:      142.773296477842     
  volume:    652.192529630943     
  Acav:     7.495598065086682E-002
  Solving linear dielectric/ionic screening model
        iter                  A_solv                     rms
   LPB:       -0.297729383381351E+00   0.113105413179265E-01
   LPB:    0  -0.297729382862182E+00   0.113446394795172E-01   0.605571E-05   0.000000E+00   0.283145E+02   0.171464E-03
   LPB:    1  -0.285726512457677E+00   0.451161841279334E-02   0.154882E-01   0.000000E+00   0.762121E+06   0.519715E-21
   LPB:    2  -0.284591148724331E+00   0.211949380904626E-02   0.264436E-01   0.554027E-01   0.133412E+06  -0.279184E-17
   LPB:    3  -0.284243514023392E+00   0.340731754001817E-02   0.321936E-01   0.251501E+00   0.108375E+06   0.199865E-17
   LPB:    4  -0.284100043563912E+00   0.920855092867680E-02   0.349701E-01   0.379937E+00   0.195710E+05  -0.174617E-17
   LPB:    5  -0.284032918769586E+00   0.250046423080763E-01   0.357299E-01   0.457917E+00   0.159160E+04  -0.343699E-17
   LPB:    6  -0.284004456204083E+00   0.417008139319466E-01   0.259128E-01   0.584665E+00   0.199832E+03  -0.354216E-17
   LPB:    7  -0.283984804224117E+00   0.144385435784619E-01   0.195612E-01   0.914644E+00   0.190892E+03  -0.272043E-16
   LPB:    8  -0.283968360559623E+00   0.474260911202583E-02   0.354103E-01   0.462230E+00   0.129022E+04  -0.394220E-16
   LPB:    9  -0.283958079175499E+00   0.844662012447596E-02   0.384271E-01   0.576161E+00   0.113293E+04  -0.494172E-16
   LPB:   10  -0.283952285752093E+00   0.120742205641027E-01   0.312602E-01   0.692676E+00   0.174694E+03  -0.440495E-16
   LPB:   11  -0.283948164977540E+00   0.670399462427194E-02   0.259721E-01   0.856106E+00   0.193104E+03  -0.567335E-16
   LPB:   12  -0.283944839169402E+00   0.244837654587723E-02   0.339668E-01   0.617122E+00   0.475662E+03  -0.117185E-15
   LPB:   13  -0.283942536148264E+00   0.179089859311345E-02   0.384198E-01   0.612209E+00   0.202576E+04  -0.965612E-16
   LPB:   14  -0.283940945745492E+00   0.173896590358310E-02   0.375320E-01   0.706907E+00   0.160971E+04  -0.668569E-16
   LPB:   15  -0.283939828532665E+00   0.127991565308829E-02   0.363010E-01   0.726293E+00   0.126738E+04  -0.459373E-16
  Finished solving LPB equations
  A_corr:   -0.208983847881798     
 End minimization
 Ecorr=   1667.54244194727     
 A_corr= -0.208983847881798     
 Ecorr_band=  -1667.75142579515     
 End Solvation calculations
DAV:   1    -0.133730150283E+03   -0.50526E-04   -0.13566E+00 12615   0.240E+00    0.209E-01
 Begin Solvation calculations
  rms_SCF =   1.373154569247424E-002 tol =   1.373154569247424E-003
 Begin minimization
 Creating dielectric and ionic cavities
  area:      142.691816426483     
  volume:    652.182528331275     
  Acav:     7.491320362390363E-002
  Solving linear dielectric/ionic screening model
        iter                  A_solv                     rms
   LPB:       -0.283298931060459E+00   0.923197828128400E-01
   LPB:    0  -0.283296347504997E+00   0.819616067188972E-01   0.427185E-03   0.000000E+00   0.283150E+02   0.120957E-01
   LPB:    1  -0.283259170136157E+00   0.263810836146021E-01   0.142603E-01   0.000000E+00   0.488027E+02   0.426448E-18
   LPB:    2  -0.283251142203765E+00   0.609231576328216E-02   0.137715E-01   0.223599E+00   0.201581E+03   0.431713E-16
   LPB:    3  -0.283248761503872E+00   0.323459124588131E-02   0.223862E-01   0.182433E+00   0.410917E+03   0.518831E-16
   LPB:    4  -0.283247613028777E+00   0.402674138931918E-02   0.298012E-01   0.362379E+00   0.240572E+03   0.538323E-16
   LPB:    5  -0.283246986777982E+00   0.382993670407945E-02   0.273679E-01   0.593771E+00   0.151571E+03   0.708379E-16
   LPB:    6  -0.283246457662384E+00   0.166627884488494E-02   0.302760E-01   0.763738E+00   0.190829E+03   0.631610E-16
   LPB:    7  -0.283245990766759E+00   0.893917685114414E-03   0.387185E-01   0.690001E+00   0.887922E+03   0.321512E-16
  Finished solving LPB equations
  A_corr:   -0.208332787142855     
 End minimization
 Ecorr=   1667.79993344043     
 A_corr= -0.208332787142855     
 Ecorr_band=  -1668.00826622757     
 End Solvation calculations
RMM:   2    -0.133735031030E+03   -0.48807E-02   -0.51310E-02 13916   0.636E-01    0.129E-01
 Begin Solvation calculations
  rms_SCF =   1.280037363261453E-002 tol =   1.280037363261453E-003
 Begin minimization
 Creating dielectric and ionic cavities
  area:      142.666464499980     
  volume:    652.175054588049     
  Acav:     7.489989386248939E-002
  Solving linear dielectric/ionic screening model
        iter                  A_solv                     rms
   LPB:       -0.283132938322889E+00   0.393116553129197E-01
   LPB:    0  -0.283132920667460E+00   0.388790981930466E-01   0.353137E-04   0.000000E+00   0.283153E+02   0.999919E-03
   LPB:    1  -0.283123966717931E+00   0.895976385379068E-02   0.132015E-01   0.000000E+00   0.650386E+02  -0.978861E-20
   LPB:    2  -0.283122943145188E+00   0.341143952761148E-02   0.130347E-01   0.115778E+00   0.269231E+03   0.921429E-17
   LPB:    3  -0.283122468987029E+00   0.162429055702351E-02   0.244286E-01   0.247175E+00   0.243356E+03   0.126126E-16
   LPB:    4  -0.283122170620761E+00   0.212213463226576E-02   0.360023E-01   0.426968E+00   0.369705E+03   0.134258E-16
   LPB:    5  -0.283121889473064E+00   0.292978058760578E-02   0.364008E-01   0.931974E+00   0.122286E+03   0.122076E-16
   LPB:    6  -0.283121592007335E+00   0.172189495882836E-02   0.333715E-01   0.115409E+01   0.173105E+03   0.408523E-17
   LPB:    7  -0.283121286720135E+00   0.101233751915610E-02   0.368253E-01   0.930038E+00   0.432589E+03   0.405929E-16
  Finished solving LPB equations
  A_corr:   -0.208221392857645     
 End minimization
 Ecorr=   1667.87951722294     
 A_corr= -0.208221392857645     
 Ecorr_band=  -1668.08773861580     
 End Solvation calculations
RMM:   3    -0.133734408832E+03    0.62220E-03   -0.37923E-03 13646   0.205E-01    0.114E-01
 Begin Solvation calculations
  rms_SCF =   1.280037363261453E-002 tol =   1.280037363261453E-003
 Begin minimization
 Creating dielectric and ionic cavities
  area:      142.646444894462     
  volume:    652.161231308754     
  Acav:     7.488938356959260E-002
  Solving linear dielectric/ionic screening model
        iter                  A_solv                     rms
   LPB:       -0.283118714727174E+00   0.251087279422571E-01
   LPB:    0  -0.283118473858626E+00   0.244484447215605E-01  -0.130434E-03   0.000000E+00   0.283160E+02  -0.369335E-02
   LPB:    1  -0.283113157039761E+00   0.961313732150047E-02   0.106493E-01   0.000000E+00   0.156076E+03   0.370613E-18
   LPB:    2  -0.283112015161864E+00   0.339094801204427E-02   0.164927E-01   0.138675E+00   0.180902E+03   0.164712E-17
   LPB:    3  -0.283111595945206E+00   0.144669420052985E-02   0.259496E-01   0.233335E+00   0.150265E+03   0.181381E-17
   LPB:    4  -0.283111423249061E+00   0.156603759606113E-02   0.341923E-01   0.312641E+00   0.212840E+03   0.427739E-17
   LPB:    5  -0.283111292001797E+00   0.179997295400860E-02   0.342158E-01   0.759467E+00   0.138801E+03   0.179884E-17
   LPB:    6  -0.283111156421954E+00   0.119704329902891E-02   0.335228E-01   0.105437E+01   0.214263E+03   0.243952E-17
  Finished solving LPB equations
  A_corr:   -0.208221772852362     
 End minimization
 Ecorr=   1667.92156294063     
 A_corr= -0.208221772852362     
[...]
 Begin Solvation calculations
  rms_SCF =   7.361552550385322E-004 tol =   7.361552550385322E-005
 Begin minimization
 Creating dielectric and ionic cavities
  area:      142.443929282696     
  volume:    652.000642280266     
  Acav:     7.478306287341532E-002
  Solving linear dielectric/ionic screening model
        iter                  A_solv                     rms
   LPB:       -0.282003364206681E+00   0.359056868085887E-01
   LPB:    0  -0.282003331810456E+00   0.357571623543344E-01   0.478287E-04   0.000000E+00   0.283235E+02   0.135468E-02
   LPB:    1  -0.282000210109894E+00   0.354267942248402E-02   0.896130E-02   0.000000E+00   0.607939E+02  -0.368488E-19
   LPB:    2  -0.281999904830575E+00   0.877291317825625E-03   0.157815E-01   0.555303E-01   0.129397E+03  -0.373606E-17
   LPB:    3  -0.281999862958982E+00   0.461656446046091E-03   0.223136E-01   0.970061E-01   0.116098E+03  -0.321529E-17
   LPB:    4  -0.281999851343569E+00   0.369353288703809E-03   0.251844E-01   0.245785E+00   0.185954E+03   0.825469E-18
   LPB:    5  -0.281999846236631E+00   0.231624430346878E-03   0.230627E-01   0.480116E+00   0.164030E+03   0.298187E-17
   LPB:    6  -0.281999843343818E+00   0.133704944674801E-03   0.276029E-01   0.473277E+00   0.225003E+03   0.215454E-17
   LPB:    7  -0.281999841567908E+00   0.672871172453451E-04   0.321234E-01   0.527514E+00   0.243223E+03   0.190829E-17
  Finished solving LPB equations
  A_corr:   -0.207216778694492     
 End minimization
 Ecorr=   1666.57670770782     
 A_corr= -0.207216778694492     
 Ecorr_band=  -1666.78392448652     
 End Solvation calculations
RMM:   3    -0.133746650515E+03    0.26863E-05   -0.12043E-05  6937   0.127E-02
 Begin Solvation calculations
  rms_SCF =   7.361552550385322E-004 tol =   7.361552550385322E-005
 Begin minimization
 Creating dielectric and ionic cavities
  area:      142.444777085935     
  volume:    651.999103635203     
  Acav:     7.478350797011589E-002
  Solving linear dielectric/ionic screening model
        iter                  A_solv                     rms
   LPB:       -0.282018945455447E+00   0.308232468028861E-01
   LPB:    0  -0.282018874594765E+00   0.303050666454938E-01  -0.707365E-04   0.000000E+00   0.283236E+02  -0.200351E-02
   LPB:    1  -0.282016469493008E+00   0.264370621612021E-02   0.893427E-02   0.000000E+00   0.653504E+02   0.103632E-18
   LPB:    2  -0.282016265149970E+00   0.592624185104515E-03   0.150000E-01   0.506052E-01   0.186409E+03   0.695034E-17
   LPB:    3  -0.282016233931961E+00   0.404973588201499E-03   0.240271E-01   0.953747E-01   0.226947E+03   0.772283E-18
   LPB:    4  -0.282016224890967E+00   0.307138178836929E-03   0.248946E-01   0.279516E+00   0.169014E+03   0.542060E-18
   LPB:    5  -0.282016220911940E+00   0.220195598233359E-03   0.231801E-01   0.472662E+00   0.289655E+03  -0.187305E-17
   LPB:    6  -0.282016218673344E+00   0.119283887154750E-03   0.276798E-01   0.471141E+00   0.146024E+03  -0.348241E-17
   LPB:    7  -0.282016217195676E+00   0.640468719389383E-04   0.328883E-01   0.555550E+00   0.544941E+03  -0.292258E-17
  Finished solving LPB equations
  A_corr:   -0.207232709225560     
 End minimization
 Ecorr=   1666.57568768323     
 A_corr= -0.207232709225560     
 Ecorr_band=  -1666.78292039245     
 End Solvation calculations
 116 F= -.13374665E+03 E0= -.13374763E+03  d E =-.204755E-04
quench:  g(F)=  0.000E+00 g(S)=  0.000E+00 dE (1.order)= 0.000E+00
 bond charge predicted
       N       E                     dE             d eps       ncg     rms          rms(c)
 Begin Solvation calculations
  rms_SCF =   7.361552550385322E-004 tol =   7.361552550385322E-005
 Begin minimization
 Creating dielectric and ionic cavities
  area:      142.445134556832     
  volume:    651.998493292402     
  Acav:     7.478369564233681E-002
  Solving linear dielectric/ionic screening model
        iter                  A_solv                     rms
   LPB:       -0.282064045757408E+00   0.644129849163074E-03
   LPB:    0  -0.282064045757336E+00   0.644449048784351E-03  -0.713720E-07   0.000000E+00   0.283236E+02  -0.202151E-05
   LPB:    1  -0.282017390047258E+00   0.193850394713054E-03   0.155796E-01   0.000000E+00   0.919048E+06   0.172844E-21
   LPB:    2  -0.282012923393539E+00   0.105677244944349E-03   0.266777E-01   0.559095E-01   0.300736E+06   0.130301E-18
   LPB:    3  -0.282011494946202E+00   0.129847914922969E-03   0.326814E-01   0.261053E+00   0.178351E+06   0.410983E-18
   LPB:    4  -0.282010878545828E+00   0.231218693729276E-03   0.356463E-01   0.395626E+00   0.401437E+05   0.402616E-18
   LPB:    5  -0.282010575259129E+00   0.555225895216621E-03   0.372009E-01   0.471467E+00   0.950703E+04   0.685228E-18
   LPB:    6  -0.282010418103321E+00   0.127400213553231E-02   0.364377E-01   0.529029E+00   0.812178E+03   0.178342E-17
   LPB:    7  -0.282010343119961E+00   0.177201859911511E-02   0.266265E-01   0.652937E+00   0.180335E+03   0.571314E-17
   LPB:    8  -0.282010290992873E+00   0.965033382458427E-03   0.222815E-01   0.830745E+00   0.198589E+03   0.561913E-17
   LPB:    9  -0.282010254001783E+00   0.108136713302573E-02   0.288021E-01   0.548978E+00   0.258208E+03   0.133020E-16
   LPB:   10  -0.282010231270335E+00   0.674255696226665E-03   0.222859E-01   0.794187E+00   0.154932E+03   0.187830E-16
   LPB:   11  -0.282010211451030E+00   0.191600859286561E-03   0.312771E-01   0.621250E+00   0.404780E+03   0.238226E-16
   LPB:   12  -0.282010197577214E+00   0.624326225197828E-04   0.397283E-01   0.551104E+00   0.499284E+04   0.265148E-16
  Finished solving LPB equations
  A_corr:   -0.207226501934877     
 End minimization
 Ecorr=   1666.57009523586     
 A_corr= -0.207226501934877     
 Ecorr_band=  -1666.77732173780     
 End Solvation calculations
DAV:   1    -0.133746655733E+03   -0.25318E-05   -0.31898E-03 15230   0.116E-01    0.201E-02
 Begin Solvation calculations
  rms_SCF =   7.361552550385322E-004 tol =   7.361552550385322E-005
 Begin minimization
 Creating dielectric and ionic cavities
  area:      142.445706998067     
  volume:    651.999937087500     
  Acav:     7.478399617398539E-002
  Solving linear dielectric/ionic screening model
        iter                  A_solv                     rms
   LPB:       -0.282050375553236E+00   0.460944744617724E-01
   LPB:    0  -0.282050357831844E+00   0.460016836979140E-01  -0.353745E-04   0.000000E+00   0.283235E+02  -0.100193E-02
   LPB:    1  -0.282044240237392E+00   0.547860615678338E-02   0.948836E-02   0.000000E+00   0.641421E+02  -0.315527E-19
   LPB:    2  -0.282043277895233E+00   0.118137949915762E-02   0.167016E-01   0.893681E-01   0.212885E+03   0.372998E-17
   LPB:    3  -0.282043091904735E+00   0.591451437818367E-03   0.247952E-01   0.130182E+00   0.282070E+03   0.473959E-17
   LPB:    4  -0.282043026450479E+00   0.325093236060791E-03   0.297920E-01   0.292898E+00   0.500749E+03  -0.198553E-17
   LPB:    5  -0.282042997659161E+00   0.268361022875753E-03   0.308129E-01   0.425295E+00   0.719981E+03  -0.742023E-17
   LPB:    6  -0.282042982160301E+00   0.368013928130498E-03   0.317704E-01   0.522093E+00   0.478586E+03  -0.881483E-17
   LPB:    7  -0.282042973481410E+00   0.436949769574742E-03   0.289497E-01   0.614532E+00   0.152335E+03  -0.103962E-16
   LPB:    8  -0.282042967644620E+00   0.247697582086094E-03   0.266412E-01   0.730802E+00   0.167525E+03  -0.973994E-17
   LPB:    9  -0.282042962974917E+00   0.913619071416286E-04   0.340995E-01   0.625058E+00   0.401447E+03  -0.729410E-17
   LPB:   10  -0.282042959540907E+00   0.443150748156692E-04   0.397827E-01   0.630327E+00   0.995207E+03  -0.421280E-17
  Finished solving LPB equations
  A_corr:   -0.207258963366921     
 End minimization
 Ecorr=   1666.55722244573     
 A_corr= -0.207258963366921     
 Ecorr_band=  -1666.76448140910     
 End Solvation calculations
RMM:   2    -0.133746676079E+03   -0.20346E-04   -0.21622E-04 10615   0.297E-02    0.175E-02
 Begin Solvation calculations
  rms_SCF =   7.361552550385322E-004 tol =   7.361552550385322E-005
 Begin minimization
 Creating dielectric and ionic cavities
  area:      142.446761768720     
  volume:    651.999244642926     
  Acav:     7.478454992857822E-002
  Solving linear dielectric/ionic screening model
        iter                  A_solv                     rms
   LPB:       -0.282022609906787E+00   0.568571172805319E-01
   LPB:    0  -0.282022609314139E+00   0.568562442179938E-01  -0.646903E-05   0.000000E+00   0.283236E+02  -0.183226E-03
   LPB:    1  -0.282014887070790E+00   0.530987347647998E-02   0.877487E-02   0.000000E+00   0.620463E+02   0.425923E-20
   LPB:    2  -0.282014255421576E+00   0.111944893760479E-02   0.157941E-01   0.454443E-01   0.119418E+03  -0.885035E-18
   LPB:    3  -0.282014172697222E+00   0.434764537226008E-03   0.222174E-01   0.931019E-01   0.140522E+03  -0.163548E-17
   LPB:    4  -0.282014150442493E+00   0.289230785143564E-03   0.277153E-01   0.215656E+00   0.256147E+03  -0.263132E-17
   LPB:    5  -0.282014141351850E+00   0.322366896212732E-03   0.266957E-01   0.424083E+00   0.272375E+03  -0.465320E-17
   LPB:    6  -0.282014136584725E+00   0.275079189972162E-03   0.261270E-01   0.535812E+00   0.131046E+03  -0.640562E-17
   LPB:    7  -0.282014133702562E+00   0.142832316086076E-03   0.266796E-01   0.592070E+00   0.184964E+03  -0.775674E-17
   LPB:    8  -0.282014131736425E+00   0.510988142338286E-04   0.337420E-01   0.539391E+00   0.294167E+03  -0.868885E-17
  Finished solving LPB equations
  A_corr:   -0.207229581807847     
 End minimization
 Ecorr=   1666.56135447455     
 A_corr= -0.207229581807847     
 Ecorr_band=  -1666.76858405636     
 End Solvation calculations
RMM:   3    -0.133746672516E+03    0.35631E-05   -0.16706E-05  7045   0.173E-02
 Begin Solvation calculations
  rms_SCF =   7.361552550385322E-004 tol =   7.361552550385322E-005
 Begin minimization
 Creating dielectric and ionic cavities
  area:      142.445511592968     
  volume:    652.000576839483     
  Acav:     7.478389358630839E-002
  Solving linear dielectric/ionic screening model
        iter                  A_solv                     rms
   LPB:       -0.282035214497084E+00   0.301705074578367E-01
   LPB:    0  -0.282035214483061E+00   0.301710634576533E-01   0.995102E-06   0.000000E+00   0.283235E+02   0.281848E-04
   LPB:    1  -0.282033016909216E+00   0.300317941924091E-02   0.888647E-02   0.000000E+00   0.611225E+02  -0.197160E-20
   LPB:    2  -0.282032801669128E+00   0.687265984492511E-03   0.163343E-01   0.532855E-01   0.117259E+03  -0.107965E-18
   LPB:    3  -0.282032770188262E+00   0.283250608315341E-03   0.224263E-01   0.106528E+00   0.132706E+03   0.185982E-17
   LPB:    4  -0.282032760766295E+00   0.220502361555341E-03   0.288434E-01   0.232705E+00   0.293189E+03   0.164534E-17
   LPB:    5  -0.282032756957335E+00   0.212849329687850E-03   0.253483E-01   0.460005E+00   0.232319E+03  -0.182184E-17
   LPB:    6  -0.282032754935446E+00   0.170135980437283E-03   0.259754E-01   0.518009E+00   0.178240E+03  -0.298302E-17
   LPB:    7  -0.282032753573911E+00   0.930461316256171E-04   0.294227E-01   0.594498E+00   0.187348E+03  -0.489194E-17
   LPB:    8  -0.282032752437967E+00   0.437889569802160E-04   0.378807E-01   0.648027E+00   0.530357E+03  -0.715120E-17
  Finished solving LPB equations
  A_corr:   -0.207248858851659     
 End minimization
 Ecorr=   1666.54959850422     
 A_corr= -0.207248858851659     
 Ecorr_band=  -1666.75684736307     
 End Solvation calculations
 117 F= -.13374667E+03 E0= -.13374766E+03  d E =-.220010E-04
quench:  g(F)=  0.000E+00 g(S)=  0.000E+00 dE (1.order)= 0.000E+00
 bond charge predicted
       N       E                     dE             d eps       ncg     rms          rms(c)
 Begin Solvation calculations
  rms_SCF =   7.361552550385322E-004 tol =   7.361552550385322E-005
 Begin minimization
 Creating dielectric and ionic cavities
  area:      142.450056455538     
  volume:    651.999751669383     
  Acav:     7.478627963915754E-002
  Solving linear dielectric/ionic screening model
        iter                  A_solv                     rms
   LPB:       -0.282077196262495E+00   0.742046477617418E-03
   LPB:    0  -0.282077196262493E+00   0.742057088728245E-03  -0.131290E-07   0.000000E+00   0.283235E+02  -0.371859E-06
   LPB:    1  -0.282028229331755E+00   0.278062492395339E-03   0.154619E-01   0.000000E+00   0.743867E+06   0.190972E-23
   LPB:    2  -0.282023276763720E+00   0.155851643147731E-03   0.272963E-01   0.572912E-01   0.144724E+06   0.127273E-18
   LPB:    3  -0.282021629561309E+00   0.235682842322343E-03   0.331226E-01   0.274092E+00   0.925005E+05  -0.733245E-18
   LPB:    4  -0.282020911710466E+00   0.588681990706650E-03   0.356927E-01   0.404420E+00   0.193440E+05  -0.496080E-18
   LPB:    5  -0.282020560569925E+00   0.156370551611055E-02   0.365304E-01   0.477937E+00   0.174458E+04   0.153491E-17
   LPB:    6  -0.282020400960994E+00   0.283946610625338E-02   0.281510E-01   0.589845E+00   0.222012E+03   0.395881E-17
   LPB:    7  -0.282020302984446E+00   0.132880512657699E-02   0.193742E-01   0.891937E+00   0.168397E+03   0.132387E-16
   LPB:    8  -0.282020222795655E+00   0.974381983254678E-03   0.310516E-01   0.510660E+00   0.501034E+03   0.195698E-16
   LPB:    9  -0.282020178317340E+00   0.112121328238478E-02   0.276542E-01   0.622813E+00   0.177438E+03   0.248415E-16
   LPB:   10  -0.282020146052276E+00   0.469218085959186E-03   0.254814E-01   0.787269E+00   0.192807E+03   0.319552E-16
   LPB:   11  -0.282020121328393E+00   0.141257132620735E-03   0.361516E-01   0.540106E+00   0.110086E+04   0.346751E-16
   LPB:   12  -0.282020105334190E+00   0.819844802894570E-04   0.397668E-01   0.588102E+00   0.416276E+04   0.369628E-16
   LPB:   13  -0.282020094961436E+00   0.982005317573836E-04   0.398330E-01   0.647454E+00   0.395663E+04   0.389590E-16
   LPB:   14  -0.282020088423861E+00   0.107086293549488E-03   0.370506E-01   0.677595E+00   0.219643E+04   0.404895E-16
   LPB:   15  -0.282020084016320E+00   0.870108577500948E-04   0.358976E-01   0.695840E+00   0.155666E+04   0.414063E-16
   LPB:   16  -0.282020080831905E+00   0.509390745121217E-04   0.367306E-01   0.706107E+00   0.237586E+04   0.420268E-16
  Finished solving LPB equations
  A_corr:   -0.207233801192748     
 End minimization
 Ecorr=   1666.54833952859     
 A_corr= -0.207233801192748     
 Ecorr_band=  -1666.75557332978     
 End Solvation calculations
DAV:   1    -0.133746676203E+03   -0.12464E-06   -0.35961E-03 15350   0.132E-01    0.160E-02
 Begin Solvation calculations
  rms_SCF =   7.361552550385322E-004 tol =   7.361552550385322E-005
 Begin minimization
 Creating dielectric and ionic cavities
  area:      142.449793963072     
  volume:    651.996862607144     
  Acav:     7.478614183061284E-002
  Solving linear dielectric/ionic screening model
        iter                  A_solv                     rms
   LPB:       -0.282056684407317E+00   0.309146884453903E-01
   LPB:    0  -0.282056494259279E+00   0.294955477568262E-01  -0.115874E-03   0.000000E+00   0.283237E+02  -0.328198E-02
   LPB:    1  -0.282053932756343E+00   0.314801428016167E-02   0.931261E-02   0.000000E+00   0.670313E+02   0.175435E-18
   LPB:    2  -0.282053634258851E+00   0.792719599273067E-03   0.153943E-01   0.704950E-01   0.236633E+03  -0.310879E-18
   LPB:    3  -0.282053571574202E+00   0.677588309533915E-03   0.254616E-01   0.126968E+00   0.311804E+03   0.216502E-17
   LPB:    4  -0.282053551675133E+00   0.534211001754919E-03   0.242307E-01   0.333573E+00   0.147382E+03   0.501335E-17
   LPB:    5  -0.282053541388494E+00   0.307201310249562E-03   0.239582E-01   0.522820E+00   0.270656E+03   0.113209E-16
   LPB:    6  -0.282053535130581E+00   0.160653028050215E-03   0.301347E-01   0.483665E+00   0.227392E+03   0.148959E-16
   LPB:    7  -0.282053531307583E+00   0.857813377986136E-04   0.332644E-01   0.553429E+00   0.600459E+03   0.192909E-16
   LPB:    8  -0.282053528786509E+00   0.457919672136317E-04   0.358697E-01   0.611552E+00   0.639545E+03   0.212568E-16
  Finished solving LPB equations
  A_corr:   -0.207267386955896     
 End minimization
 Ecorr=   1666.54694721710     
 A_corr= -0.207267386955896     
 Ecorr_band=  -1666.75421460406     
 End Solvation calculations
RMM:   2    -0.133746694749E+03   -0.18546E-04   -0.18339E-04 10103   0.257E-02    0.130E-02
 Begin Solvation calculations
  rms_SCF =   7.361552550385322E-004 tol =   7.361552550385322E-005
 Begin minimization
 Creating dielectric and ionic cavities
  area:      142.448665843888     
  volume:    652.000988287074     
  Acav:     7.478554956804119E-002
  Solving linear dielectric/ionic screening model
        iter                  A_solv                     rms
   LPB:       -0.282076419526984E+00   0.345053453571782E-01
   LPB:    0  -0.282076390823319E+00   0.343679032912595E-01   0.450205E-04   0.000000E+00   0.283235E+02   0.127514E-02
   LPB:    1  -0.282073515267502E+00   0.339510843368829E-02   0.894827E-02   0.000000E+00   0.607965E+02  -0.408287E-19
   LPB:    2  -0.282073237652441E+00   0.839521411621801E-03   0.157741E-01   0.547665E-01   0.128034E+03   0.400330E-17
   LPB:    3  -0.282073199651036E+00   0.434568796332760E-03   0.222704E-01   0.969561E-01   0.115346E+03   0.574030E-17
   LPB:    4  -0.282073189154499E+00   0.349554720951565E-03   0.252748E-01   0.243381E+00   0.187218E+03   0.169438E-17
   LPB:    5  -0.282073184551453E+00   0.220557542274951E-03   0.230304E-01   0.481267E+00   0.164481E+03   0.433590E-17
   LPB:    6  -0.282073181972507E+00   0.126851830492152E-03   0.274230E-01   0.470525E+00   0.221048E+03   0.533428E-17
   LPB:    7  -0.282073180405883E+00   0.634010348879794E-04   0.318953E-01   0.522290E+00   0.245024E+03   0.627404E-17
  Finished solving LPB equations
  A_corr:   -0.207287630837841     
 End minimization
 Ecorr=   1666.52751282396     
 A_corr= -0.207287630837841     
 Ecorr_band=  -1666.73480045480     
 End Solvation calculations
RMM:   3    -0.133746692232E+03    0.25174E-05   -0.10144E-05  6863   0.122E-02
 Begin Solvation calculations
  rms_SCF =   7.361552550385322E-004 tol =   7.361552550385322E-005
 Begin minimization
 Creating dielectric and ionic cavities
  area:      142.449473760878     
  volume:    651.999605910136     
  Acav:     7.478597372446072E-002
  Solving linear dielectric/ionic screening model
        iter                  A_solv                     rms
   LPB:       -0.282090383441466E+00   0.285516620006851E-01
   LPB:    0  -0.282090324174456E+00   0.280852793611436E-01  -0.646916E-04   0.000000E+00   0.283235E+02  -0.183229E-02
   LPB:    1  -0.282088271444202E+00   0.243468754877843E-02   0.891562E-02   0.000000E+00   0.652235E+02  -0.161567E-18
   LPB:    2  -0.282088100120064E+00   0.542853351828834E-03   0.149929E-01   0.496310E-01   0.182303E+03   0.272532E-17
   LPB:    3  -0.282088074143911E+00   0.368050632865258E-03   0.240035E-01   0.947037E-01   0.222645E+03   0.766742E-18
   LPB:    4  -0.282088066648846E+00   0.278329399391747E-03   0.248831E-01   0.278337E+00   0.169251E+03   0.711440E-18
   LPB:    5  -0.282088063370980E+00   0.199893080951242E-03   0.231249E-01   0.470587E+00   0.291456E+03  -0.377629E-18
   LPB:    6  -0.282088061536456E+00   0.108473993581965E-03   0.276398E-01   0.468251E+00   0.144024E+03  -0.211127E-18
   LPB:    7  -0.282088060314337E+00   0.587066265800125E-04   0.330176E-01   0.557672E+00   0.545038E+03  -0.718012E-18
  Finished solving LPB equations
  A_corr:   -0.207302086589876     
 End minimization
 Ecorr=   1666.52659180291     
 A_corr= -0.207302086589876     
 Ecorr_band=  -1666.73389388950     
 End Solvation calculations
 118 F= -.13374669E+03 E0= -.13374767E+03  d E =-.197162E-04
quench:  g(F)=  0.000E+00 g(S)=  0.000E+00 dE (1.order)= 0.000E+00
 reached required accuracy - stopping structural energy minimisation
