 vasp.5.4.4.18Apr17-6-g9f103f2a35 (build Feb 06 2024 13:54:16) complex          
  
 POSCAR found type information on POSCAR  Cu Pd Cu N  O 
 03/POSCAR found :  5 types and      40 ions
 scaLAPACK will be used

 ----------------------------------------------------------------------------- 
|                                                                             |
|  ADVICE TO THIS USER RUNNING 'VASP/VAMP'   (HEAR YOUR MASTER'S VOICE ...):  |
|                                                                             |
|      You enforced a specific xc-type in the INCAR file,                     |
|      a different type was found on the POTCAR file                          |
|          I HOPE YOU KNOW, WHAT YOU ARE  DOING                               |
|                                                                             |
 ----------------------------------------------------------------------------- 

 LDA part: xc-table for Pade appr. of Perdew
 POSCAR found type information on POSCAR  Cu Pd Cu N  O 
 00/POSCAR found :  5 types and      40 ions
 POSCAR found type information on POSCAR  Cu Pd Cu N  O 
 06/POSCAR found :  5 types and      40 ions
 Jacobian:    20.5888137679208     
 POSCAR, INCAR and KPOINTS ok, starting setup
 FFT: planning ...
 WAVECAR not read
 entering main loop
       N       E                     dE             d eps       ncg     rms          rms(c)
DAV:   1     0.349387809860E+04    0.34939E+04   -0.12909E+05  1008   0.131E+03
DAV:   2     0.359213780235E+03   -0.31347E+04   -0.30137E+04  1008   0.369E+02
DAV:   3    -0.911432502559E+02   -0.45036E+03   -0.40905E+03  1296   0.177E+02
DAV:   4    -0.159848879295E+03   -0.68706E+02   -0.64489E+02  1584   0.652E+01
DAV:   5    -0.162757990813E+03   -0.29091E+01   -0.28352E+01  1485   0.167E+01    0.434E+01
RMM:   6    -0.165807203527E+03   -0.30492E+01   -0.35614E+02  1018   0.878E+01    0.445E+01
RMM:   7    -0.166535208827E+03   -0.72801E+00   -0.11257E+02  1039   0.407E+01    0.342E+01
RMM:   8    -0.145389920265E+03    0.21145E+02   -0.14320E+01  1021   0.151E+01    0.245E+01
RMM:   9    -0.140488351161E+03    0.49016E+01   -0.49717E+00  1026   0.963E+00    0.156E+01
RMM:  10    -0.136685582054E+03    0.38028E+01   -0.11876E+01  1024   0.113E+01    0.100E+01
RMM:  11    -0.135322755949E+03    0.13628E+01   -0.36041E+00  1028   0.735E+00    0.512E+00
RMM:  12    -0.135007294679E+03    0.31546E+00   -0.62113E-01  1016   0.292E+00    0.394E+00
RMM:  13    -0.134916567521E+03    0.90727E-01   -0.45996E-01  1022   0.249E+00    0.286E+00
RMM:  14    -0.134894333164E+03    0.22234E-01   -0.45362E-01  1030   0.212E+00    0.264E+00
RMM:  15    -0.134833336573E+03    0.60997E-01   -0.15844E-01  1027   0.133E+00    0.214E+00
RMM:  16    -0.134771879248E+03    0.61457E-01   -0.15448E-01  1024   0.132E+00    0.126E+00
RMM:  17    -0.134755716661E+03    0.16163E-01   -0.23638E-02  1033   0.429E-01    0.905E-01
RMM:  18    -0.134743338785E+03    0.12378E-01   -0.11021E-02  1030   0.312E-01    0.597E-01
RMM:  19    -0.134738424974E+03    0.49138E-02   -0.69963E-03  1028   0.246E-01    0.384E-01
RMM:  20    -0.134736258438E+03    0.21665E-02   -0.46631E-03  1053   0.161E-01    0.207E-01
RMM:  21    -0.134735996795E+03    0.26164E-03   -0.12647E-03  1033   0.101E-01    0.145E-01
RMM:  22    -0.134736109861E+03   -0.11307E-03   -0.89501E-04  1024   0.799E-02    0.898E-02
RMM:  23    -0.134736294378E+03   -0.18452E-03   -0.43889E-04  1094   0.439E-02    0.568E-02
RMM:  24    -0.134736765395E+03   -0.47102E-03   -0.19646E-04  1010   0.305E-02    0.460E-02
RMM:  25    -0.134737316068E+03   -0.55067E-03   -0.17759E-04  1013   0.313E-02    0.343E-02
RMM:  26    -0.134737526832E+03   -0.21076E-03   -0.48904E-05   691   0.171E-02    0.268E-02
RMM:  27    -0.134737783882E+03   -0.25705E-03   -0.38406E-05   648   0.187E-02    0.303E-02
RMM:  28    -0.134737981450E+03   -0.19757E-03   -0.32820E-05   638   0.185E-02    0.266E-02
RMM:  29    -0.134737974022E+03    0.74278E-05   -0.11977E-05   594   0.125E-02
   1 F= -.13473797E+03 E0= -.13473392E+03  d E =-.134738E+03
quench:  g(F)=  0.000E+00 g(S)=  0.000E+00 dE (1.order)= 0.000E+00
 bond charge predicted
       N       E                     dE             d eps       ncg     rms          rms(c)
DAV:   1    -0.134738120942E+03   -0.13949E-03   -0.13426E-02  1062   0.209E-01    0.300E-02
RMM:   2    -0.134738256915E+03   -0.13597E-03   -0.55432E-04  1140   0.540E-02    0.280E-02
RMM:   3    -0.134738248707E+03    0.82077E-05   -0.44327E-05   688   0.235E-02
   2 F= -.13473825E+03 E0= -.13473421E+03  d E =-.274685E-03
quench:  g(F)=  0.000E+00 g(S)=  0.000E+00 dE (1.order)= 0.000E+00
 bond charge predicted
       N       E                     dE             d eps       ncg     rms          rms(c)
DAV:   1    -0.134738350794E+03   -0.93880E-04   -0.47549E-02  1071   0.398E-01    0.566E-02
RMM:   2    -0.134738512525E+03   -0.16173E-03   -0.18438E-03  1368   0.836E-02    0.307E-02
RMM:   3    -0.134738498787E+03    0.13737E-04   -0.10715E-04   915   0.326E-02    0.295E-02
RMM:   4    -0.134738498002E+03    0.78510E-06   -0.34310E-05   649   0.257E-02
   3 F= -.13473850E+03 E0= -.13473446E+03  d E =-.249295E-03
quench:  g(F)=  0.000E+00 g(S)=  0.000E+00 dE (1.order)= 0.000E+00
 bond charge predicted
       N       E                     dE             d eps       ncg     rms          rms(c)
DAV:   1    -0.134738539784E+03   -0.40997E-04   -0.10621E-01  1044   0.575E-01    0.819E-02
RMM:   2    -0.134738908455E+03   -0.36867E-03   -0.38535E-03  1414   0.121E-01    0.555E-02
RMM:   3    -0.134738918675E+03   -0.10220E-04   -0.34080E-04  1079   0.484E-02    0.704E-02
RMM:   4    -0.134738819903E+03    0.98772E-04   -0.78861E-05   935   0.352E-02    0.230E-02
RMM:   5    -0.134738836271E+03   -0.16368E-04   -0.26056E-05   607   0.193E-02    0.175E-02
RMM:   6    -0.134738840238E+03   -0.39663E-05   -0.21962E-05   594   0.210E-02
   4 F= -.13473884E+03 E0= -.13473482E+03  d E =-.342236E-03
quench:  g(F)=  0.000E+00 g(S)=  0.000E+00 dE (1.order)= 0.000E+00
 bond charge predicted
       N       E                     dE             d eps       ncg     rms          rms(c)
DAV:   1    -0.134738701738E+03    0.13453E-03   -0.19303E-01  1026   0.757E-01    0.104E-01
RMM:   2    -0.134739242389E+03   -0.54065E-03   -0.64415E-03  1386   0.157E-01    0.468E-02
RMM:   3    -0.134739202931E+03    0.39457E-04   -0.44843E-04  1070   0.387E-02    0.350E-02
RMM:   4    -0.134739227585E+03   -0.24654E-04   -0.82656E-05   785   0.274E-02    0.365E-02
RMM:   5    -0.134739221449E+03    0.61366E-05   -0.33723E-05   616   0.240E-02
   5 F= -.13473922E+03 E0= -.13473519E+03  d E =-.381211E-03
quench:  g(F)=  0.000E+00 g(S)=  0.000E+00 dE (1.order)= 0.000E+00
 bond charge predicted
       N       E                     dE             d eps       ncg     rms          rms(c)
DAV:   1    -0.134738844358E+03    0.38323E-03   -0.29123E-01  1008   0.924E-01    0.135E-01
RMM:   2    -0.134739691014E+03   -0.84666E-03   -0.10244E-02  1446   0.191E-01    0.653E-02
RMM:   3    -0.134739618819E+03    0.72195E-04   -0.72740E-04  1109   0.577E-02    0.577E-02
RMM:   4    -0.134739623546E+03   -0.47268E-05   -0.18573E-04   997   0.483E-02    0.453E-02
RMM:   5    -0.134739642338E+03   -0.18793E-04   -0.78694E-05   912   0.322E-02    0.351E-02
RMM:   6    -0.134739627624E+03    0.14714E-04   -0.42481E-05   721   0.278E-02    0.178E-02
RMM:   7    -0.134739624015E+03    0.36091E-05   -0.11406E-05   553   0.141E-02
   6 F= -.13473962E+03 E0= -.13473562E+03  d E =-.402566E-03
quench:  g(F)=  0.000E+00 g(S)=  0.000E+00 dE (1.order)= 0.000E+00
 bond charge predicted
       N       E                     dE             d eps       ncg     rms          rms(c)
DAV:   1    -0.134739052039E+03    0.57558E-03   -0.17968E-01  1008   0.652E-01    0.131E-01
RMM:   2    -0.134739777894E+03   -0.72585E-03   -0.87452E-03  1439   0.146E-01    0.993E-02
RMM:   3    -0.134739598976E+03    0.17892E-03   -0.50313E-04  1081   0.503E-02    0.618E-02
RMM:   4    -0.134739628884E+03   -0.29909E-04   -0.26601E-04  1009   0.589E-02    0.619E-02
RMM:   5    -0.134739588312E+03    0.40572E-04   -0.13792E-04   952   0.491E-02    0.247E-02
RMM:   6    -0.134739597748E+03   -0.94362E-05   -0.36420E-05   655   0.216E-02
   7 F= -.13473960E+03 E0= -.13473553E+03  d E =0.262667E-04
quench:  g(F)=  0.000E+00 g(S)=  0.000E+00 dE (1.order)= 0.000E+00
 bond charge predicted
       N       E                     dE             d eps       ncg     rms          rms(c)
DAV:   1    -0.134740101891E+03   -0.51358E-03   -0.95881E-02  1062   0.487E-01    0.111E-01
RMM:   2    -0.134740408919E+03   -0.30703E-03   -0.47262E-03  1372   0.109E-01    0.731E-02
RMM:   3    -0.134740322160E+03    0.86759E-04   -0.34053E-04  1046   0.380E-02    0.449E-02
RMM:   4    -0.134740349416E+03   -0.27256E-04   -0.13662E-04   949   0.428E-02    0.492E-02
RMM:   5    -0.134740306167E+03    0.43250E-04   -0.64399E-05   840   0.346E-02    0.215E-02
RMM:   6    -0.134740301142E+03    0.50244E-05   -0.22779E-05   597   0.202E-02
   8 F= -.13474030E+03 E0= -.13473630E+03  d E =-.703394E-03
quench:  g(F)=  0.000E+00 g(S)=  0.000E+00 dE (1.order)= 0.000E+00
 bond charge predicted
       N       E                     dE             d eps       ncg     rms          rms(c)
DAV:   1    -0.134740392944E+03   -0.86778E-04   -0.16993E-02  1071   0.239E-01    0.360E-02
RMM:   2    -0.134740461208E+03   -0.68264E-04   -0.82102E-04  1283   0.516E-02    0.240E-02
RMM:   3    -0.134740445519E+03    0.15690E-04   -0.31565E-05   619   0.124E-02    0.144E-02
RMM:   4    -0.134740448923E+03   -0.34044E-05   -0.11122E-05   557   0.139E-02
   9 F= -.13474045E+03 E0= -.13473644E+03  d E =-.147781E-03
quench:  g(F)=  0.000E+00 g(S)=  0.000E+00 dE (1.order)= 0.000E+00
 bond charge predicted
       N       E                     dE             d eps       ncg     rms          rms(c)
DAV:   1    -0.134740413847E+03    0.31672E-04   -0.43088E-02  1008   0.361E-01    0.523E-02
RMM:   2    -0.134740545616E+03   -0.13177E-03   -0.15302E-03  1355   0.772E-02    0.265E-02
RMM:   3    -0.134740553047E+03   -0.74313E-05   -0.10225E-04   842   0.270E-02    0.377E-02
RMM:   4    -0.134740525255E+03    0.27792E-04   -0.28062E-05   596   0.229E-02    0.143E-02
RMM:   5    -0.134740530110E+03   -0.48557E-05   -0.11643E-05   557   0.136E-02
  10 F= -.13474053E+03 E0= -.13473653E+03  d E =-.811870E-04
quench:  g(F)=  0.000E+00 g(S)=  0.000E+00 dE (1.order)= 0.000E+00
 bond charge predicted
       N       E                     dE             d eps       ncg     rms          rms(c)
DAV:   1    -0.134740221812E+03    0.30344E-03   -0.93890E-02  1008   0.530E-01    0.746E-02
RMM:   2    -0.134740520003E+03   -0.29819E-03   -0.34753E-03  1411   0.112E-01    0.401E-02
RMM:   3    -0.134740474682E+03    0.45321E-04   -0.14928E-04   925   0.307E-02    0.311E-02
RMM:   4    -0.134740481827E+03   -0.71449E-05   -0.53856E-05   790   0.303E-02
  11 F= -.13474048E+03 E0= -.13473648E+03  d E =0.482836E-04
quench:  g(F)=  0.000E+00 g(S)=  0.000E+00 dE (1.order)= 0.000E+00
 bond charge predicted
       N       E                     dE             d eps       ncg     rms          rms(c)
DAV:   1    -0.134739991139E+03    0.48354E-03   -0.13428E-01  1008   0.626E-01    0.102E-01
RMM:   2    -0.134740458101E+03   -0.46696E-03   -0.53522E-03  1352   0.137E-01    0.675E-02
RMM:   3    -0.134740483450E+03   -0.25349E-04   -0.48351E-04  1083   0.541E-02    0.844E-02
RMM:   4    -0.134740346304E+03    0.13715E-03   -0.12813E-04  1005   0.415E-02    0.362E-02
RMM:   5    -0.134740355833E+03   -0.95289E-05   -0.69865E-05   839   0.330E-02
  12 F= -.13474036E+03 E0= -.13473635E+03  d E =0.125994E-03
quench:  g(F)=  0.000E+00 g(S)=  0.000E+00 dE (1.order)= 0.000E+00
 bond charge predicted
       N       E                     dE             d eps       ncg     rms          rms(c)
DAV:   1    -0.134740371146E+03   -0.24842E-04   -0.61091E-02  1017   0.419E-01    0.802E-02
RMM:   2    -0.134740606737E+03   -0.23559E-03   -0.30372E-03  1339   0.905E-02    0.600E-02
RMM:   3    -0.134740558613E+03    0.48125E-04   -0.18646E-04   971   0.359E-02    0.448E-02
RMM:   4    -0.134740557496E+03    0.11167E-05   -0.68935E-05   901   0.296E-02
  13 F= -.13474056E+03 E0= -.13473657E+03  d E =-.201663E-03
quench:  g(F)=  0.000E+00 g(S)=  0.000E+00 dE (1.order)= 0.000E+00
 bond charge predicted
       N       E                     dE             d eps       ncg     rms          rms(c)
DAV:   1    -0.134740549234E+03    0.93784E-05   -0.20272E-02  1296   0.333E-01    0.429E-02
RMM:   2    -0.134740645555E+03   -0.96320E-04   -0.96872E-04  1115   0.688E-02    0.408E-02
RMM:   3    -0.134740623496E+03    0.22059E-04   -0.12213E-04   914   0.352E-02    0.316E-02
RMM:   4    -0.134740614302E+03    0.91939E-05   -0.25022E-05   599   0.202E-02
  14 F= -.13474061E+03 E0= -.13473664E+03  d E =-.568061E-04
quench:  g(F)=  0.000E+00 g(S)=  0.000E+00 dE (1.order)= 0.000E+00
 bond charge predicted
       N       E                     dE             d eps       ncg     rms          rms(c)
DAV:   1    -0.134740360264E+03    0.26323E-03   -0.40561E-02  1008   0.372E-01    0.516E-02
RMM:   2    -0.134740497375E+03   -0.13711E-03   -0.15362E-03  1407   0.779E-02    0.292E-02
RMM:   3    -0.134740500933E+03   -0.35580E-05   -0.10315E-04   879   0.277E-02    0.391E-02
RMM:   4    -0.134740474780E+03    0.26153E-04   -0.27058E-05   585   0.229E-02    0.155E-02
RMM:   5    -0.134740480636E+03   -0.58563E-05   -0.13456E-05   557   0.155E-02
  15 F= -.13474048E+03 E0= -.13473650E+03  d E =0.133666E-03
quench:  g(F)=  0.000E+00 g(S)=  0.000E+00 dE (1.order)= 0.000E+00
 bond charge predicted
       N       E                     dE             d eps       ncg     rms          rms(c)
DAV:   1    -0.134739995393E+03    0.47939E-03   -0.92755E-02  1008   0.533E-01    0.762E-02
RMM:   2    -0.134740269759E+03   -0.27437E-03   -0.32558E-03  1416   0.113E-01    0.349E-02
RMM:   3    -0.134740252586E+03    0.17172E-04   -0.18679E-04   850   0.258E-02    0.308E-02
RMM:   4    -0.134740253490E+03   -0.90402E-06   -0.44792E-05   656   0.224E-02
  16 F= -.13474025E+03 E0= -.13473627E+03  d E =0.227146E-03
quench:  g(F)=  0.000E+00 g(S)=  0.000E+00 dE (1.order)= 0.000E+00
 bond charge predicted
       N       E                     dE             d eps       ncg     rms          rms(c)
DAV:   1    -0.134739435798E+03    0.81679E-03   -0.13732E-01  1008   0.657E-01    0.955E-02
RMM:   2    -0.134739923698E+03   -0.48790E-03   -0.57614E-03  1440   0.141E-01    0.590E-02
RMM:   3    -0.134739838405E+03    0.85293E-04   -0.25096E-04  1039   0.336E-02    0.402E-02
RMM:   4    -0.134739866585E+03   -0.28180E-04   -0.88131E-05   931   0.358E-02    0.406E-02
RMM:   5    -0.134739858242E+03    0.83426E-05   -0.40970E-05   713   0.286E-02
  17 F= -.13473986E+03 E0= -.13473589E+03  d E =0.395248E-03
quench:  g(F)=  0.000E+00 g(S)=  0.000E+00 dE (1.order)= 0.000E+00
 bond charge predicted
       N       E                     dE             d eps       ncg     rms          rms(c)
DAV:   1    -0.134739706253E+03    0.16033E-03   -0.77076E-02  1008   0.455E-01    0.914E-02
RMM:   2    -0.134740012014E+03   -0.30576E-03   -0.37089E-03  1341   0.101E-01    0.630E-02
RMM:   3    -0.134739997419E+03    0.14595E-04   -0.29852E-04  1103   0.384E-02    0.678E-02
RMM:   4    -0.134739925270E+03    0.72148E-04   -0.10852E-04   963   0.339E-02    0.347E-02
RMM:   5    -0.134739911341E+03    0.13929E-04   -0.42877E-05   693   0.268E-02    0.221E-02
RMM:   6    -0.134739905375E+03    0.59664E-05   -0.24706E-05   603   0.215E-02
  18 F= -.13473991E+03 E0= -.13473594E+03  d E =-.471323E-04
quench:  g(F)=  0.000E+00 g(S)=  0.000E+00 dE (1.order)= 0.000E+00
 bond charge predicted
       N       E                     dE             d eps       ncg     rms          rms(c)
DAV:   1    -0.134739907578E+03    0.37628E-05   -0.29094E-02  1044   0.273E-01    0.538E-02
RMM:   2    -0.134740019929E+03   -0.11235E-03   -0.14212E-03  1359   0.630E-02    0.421E-02
RMM:   3    -0.134739995107E+03    0.24822E-04   -0.75673E-05   740   0.249E-02    0.298E-02
RMM:   4    -0.134740000960E+03   -0.58528E-05   -0.43916E-05   719   0.275E-02
  19 F= -.13474000E+03 E0= -.13473604E+03  d E =-.955850E-04
quench:  g(F)=  0.000E+00 g(S)=  0.000E+00 dE (1.order)= 0.000E+00
 bond charge predicted
       N       E                     dE             d eps       ncg     rms          rms(c)
DAV:   1    -0.134739740756E+03    0.25435E-03   -0.32553E-02  1152   0.358E-01    0.488E-02
RMM:   2    -0.134739868663E+03   -0.12791E-03   -0.12762E-03  1216   0.756E-02    0.410E-02
RMM:   3    -0.134739849330E+03    0.19332E-04   -0.13758E-04   998   0.326E-02    0.375E-02
RMM:   4    -0.134739828197E+03    0.21134E-04   -0.27397E-05   602   0.229E-02    0.184E-02
RMM:   5    -0.134739828770E+03   -0.57289E-06   -0.15914E-05   565   0.184E-02
  20 F= -.13473983E+03 E0= -.13473586E+03  d E =0.172190E-03
quench:  g(F)=  0.000E+00 g(S)=  0.000E+00 dE (1.order)= 0.000E+00
 bond charge predicted
       N       E                     dE             d eps       ncg     rms          rms(c)
DAV:   1    -0.134739227981E+03    0.60022E-03   -0.71885E-02  1008   0.476E-01    0.669E-02
RMM:   2    -0.134739464557E+03   -0.23658E-03   -0.28013E-03  1403   0.101E-01    0.386E-02
RMM:   3    -0.134739428429E+03    0.36127E-04   -0.13464E-04   934   0.346E-02    0.327E-02
RMM:   4    -0.134739427972E+03    0.45763E-06   -0.47210E-05   716   0.295E-02
  21 F= -.13473943E+03 E0= -.13473548E+03  d E =0.400798E-03
quench:  g(F)=  0.000E+00 g(S)=  0.000E+00 dE (1.order)= 0.000E+00
 bond charge predicted
       N       E                     dE             d eps       ncg     rms          rms(c)
DAV:   1    -0.134738725159E+03    0.70327E-03   -0.10554E-01  1008   0.554E-01    0.903E-02
RMM:   2    -0.134739100446E+03   -0.37529E-03   -0.42620E-03  1394   0.122E-01    0.608E-02
RMM:   3    -0.134739119902E+03   -0.19457E-04   -0.36851E-04  1092   0.451E-02    0.747E-02
RMM:   4    -0.134739006967E+03    0.11293E-03   -0.98403E-05   969   0.359E-02    0.312E-02
RMM:   5    -0.134739013867E+03   -0.68999E-05   -0.52105E-05   749   0.288E-02
  22 F= -.13473901E+03 E0= -.13473505E+03  d E =0.414105E-03
quench:  g(F)=  0.000E+00 g(S)=  0.000E+00 dE (1.order)= 0.000E+00
 bond charge predicted
       N       E                     dE             d eps       ncg     rms          rms(c)
DAV:   1    -0.134738802479E+03    0.20449E-03   -0.61141E-02  1008   0.416E-01    0.777E-02
RMM:   2    -0.134739019057E+03   -0.21658E-03   -0.29022E-03  1387   0.899E-02    0.570E-02
RMM:   3    -0.134738973320E+03    0.45738E-04   -0.15740E-04   894   0.318E-02    0.375E-02
RMM:   4    -0.134738993240E+03   -0.19921E-04   -0.72100E-05   910   0.316E-02    0.396E-02
RMM:   5    -0.134738975017E+03    0.18224E-04   -0.33344E-05   639   0.231E-02    0.211E-02
RMM:   6    -0.134738969695E+03    0.53212E-05   -0.28028E-05   627   0.242E-02
  23 F= -.13473897E+03 E0= -.13473501E+03  d E =0.441718E-04
quench:  g(F)=  0.000E+00 g(S)=  0.000E+00 dE (1.order)= 0.000E+00
 bond charge predicted
       N       E                     dE             d eps       ncg     rms          rms(c)
DAV:   1    -0.134738891514E+03    0.83503E-04   -0.23665E-02  1008   0.251E-01    0.465E-02
RMM:   2    -0.134738971150E+03   -0.79636E-04   -0.10092E-03  1322   0.565E-02    0.292E-02
RMM:   3    -0.134738962173E+03    0.89775E-05   -0.70037E-05   692   0.212E-02
  24 F= -.13473896E+03 E0= -.13473503E+03  d E =0.752296E-05
quench:  g(F)=  0.000E+00 g(S)=  0.000E+00 dE (1.order)= 0.000E+00
 bond charge predicted
       N       E                     dE             d eps       ncg     rms          rms(c)
DAV:   1    -0.134738510407E+03    0.46074E-03   -0.39589E-02  1161   0.420E-01    0.520E-02
RMM:   2    -0.134738707279E+03   -0.19687E-03   -0.16478E-03  1300   0.844E-02    0.499E-02
RMM:   3    -0.134738649851E+03    0.57428E-04   -0.14513E-04  1040   0.360E-02    0.403E-02
RMM:   4    -0.134738625819E+03    0.24031E-04   -0.20894E-05   592   0.191E-02    0.150E-02
RMM:   5    -0.134738631903E+03   -0.60834E-05   -0.13538E-05   557   0.160E-02
  25 F= -.13473863E+03 E0= -.13473470E+03  d E =0.330270E-03
quench:  g(F)=  0.000E+00 g(S)=  0.000E+00 dE (1.order)= 0.000E+00
 bond charge predicted
       N       E                     dE             d eps       ncg     rms          rms(c)
DAV:   1    -0.134737912383E+03    0.71344E-03   -0.90911E-02  1008   0.533E-01    0.776E-02
RMM:   2    -0.134738181667E+03   -0.26928E-03   -0.32818E-03  1422   0.114E-01    0.348E-02
RMM:   3    -0.134738171014E+03    0.10653E-04   -0.23208E-04   849   0.267E-02    0.305E-02
RMM:   4    -0.134738170306E+03    0.70746E-06   -0.47002E-05   669   0.234E-02
  26 F= -.13473817E+03 E0= -.13473424E+03  d E =0.461596E-03
quench:  g(F)=  0.000E+00 g(S)=  0.000E+00 dE (1.order)= 0.000E+00
 bond charge predicted
       N       E                     dE             d eps       ncg     rms          rms(c)
DAV:   1    -0.134737165889E+03    0.10051E-02   -0.12609E-01  1008   0.632E-01    0.956E-02
RMM:   2    -0.134737632836E+03   -0.46695E-03   -0.56695E-03  1427   0.139E-01    0.652E-02
RMM:   3    -0.134737539869E+03    0.92966E-04   -0.27948E-04  1054   0.460E-02    0.453E-02
RMM:   4    -0.134737549637E+03   -0.97677E-05   -0.10266E-04   913   0.397E-02    0.350E-02
RMM:   5    -0.134737554441E+03   -0.48038E-05   -0.42285E-05   689   0.278E-02
  27 F= -.13473755E+03 E0= -.13473362E+03  d E =0.615865E-03
quench:  g(F)=  0.000E+00 g(S)=  0.000E+00 dE (1.order)= 0.000E+00
 bond charge predicted
       N       E                     dE             d eps       ncg     rms          rms(c)
DAV:   1    -0.134737440985E+03    0.10865E-03   -0.63549E-02  1161   0.443E-01    0.848E-02
RMM:   2    -0.134737782215E+03   -0.34123E-03   -0.31109E-03  1292   0.972E-02    0.769E-02
RMM:   3    -0.134737685671E+03    0.96544E-04   -0.29904E-04  1054   0.471E-02    0.680E-02
RMM:   4    -0.134737606326E+03    0.79345E-04   -0.95365E-05   891   0.332E-02    0.267E-02
RMM:   5    -0.134737603432E+03    0.28940E-05   -0.33223E-05   641   0.220E-02
  28 F= -.13473760E+03 E0= -.13473371E+03  d E =-.489912E-04
quench:  g(F)=  0.000E+00 g(S)=  0.000E+00 dE (1.order)= 0.000E+00
 bond charge predicted
       N       E                     dE             d eps       ncg     rms          rms(c)
DAV:   1    -0.134737492264E+03    0.11406E-03   -0.21484E-02  1053   0.270E-01    0.440E-02
RMM:   2    -0.134737578183E+03   -0.85919E-04   -0.10614E-03  1311   0.609E-02    0.336E-02
RMM:   3    -0.134737556443E+03    0.21740E-04   -0.57604E-05   714   0.228E-02    0.224E-02
RMM:   4    -0.134737557863E+03   -0.14206E-05   -0.26822E-05   588   0.238E-02
  29 F= -.13473756E+03 E0= -.13473365E+03  d E =0.455687E-04
quench:  g(F)=  0.000E+00 g(S)=  0.000E+00 dE (1.order)= 0.000E+00
 bond charge predicted
       N       E                     dE             d eps       ncg     rms          rms(c)
DAV:   1    -0.134737065343E+03    0.49110E-03   -0.46284E-02  1008   0.399E-01    0.567E-02
RMM:   2    -0.134737245698E+03   -0.18035E-03   -0.18062E-03  1394   0.870E-02    0.402E-02
RMM:   3    -0.134737239472E+03    0.62264E-05   -0.18480E-04  1051   0.323E-02    0.472E-02
RMM:   4    -0.134737194139E+03    0.45333E-04   -0.35661E-05   642   0.246E-02    0.168E-02
RMM:   5    -0.134737198194E+03   -0.40553E-05   -0.17804E-05   570   0.181E-02
  30 F= -.13473720E+03 E0= -.13473328E+03  d E =0.359669E-03
quench:  g(F)=  0.000E+00 g(S)=  0.000E+00 dE (1.order)= 0.000E+00
 bond charge predicted
       N       E                     dE             d eps       ncg     rms          rms(c)
DAV:   1    -0.134736223715E+03    0.97042E-03   -0.10387E-01  1008   0.584E-01    0.807E-02
RMM:   2    -0.134736559500E+03   -0.33578E-03   -0.39670E-03  1421   0.124E-01    0.417E-02
RMM:   3    -0.134736522394E+03    0.37106E-04   -0.21349E-04  1009   0.421E-02    0.376E-02
RMM:   4    -0.134736523672E+03   -0.12784E-05   -0.68276E-05   807   0.335E-02
  31 F= -.13473652E+03 E0= -.13473263E+03  d E =0.674522E-03
quench:  g(F)=  0.000E+00 g(S)=  0.000E+00 dE (1.order)= 0.000E+00
 bond charge predicted
       N       E                     dE             d eps       ncg     rms          rms(c)
DAV:   1    -0.134735450727E+03    0.10717E-02   -0.14456E-01  1008   0.670E-01    0.107E-01
RMM:   2    -0.134736010495E+03   -0.55977E-03   -0.60607E-03  1380   0.150E-01    0.779E-02
RMM:   3    -0.134735996674E+03    0.13821E-04   -0.53678E-04  1084   0.571E-02    0.888E-02
RMM:   4    -0.134735850591E+03    0.14608E-03   -0.14183E-04  1011   0.447E-02    0.381E-02
RMM:   5    -0.134735858353E+03   -0.77619E-05   -0.80995E-05   867   0.357E-02
  32 F= -.13473586E+03 E0= -.13473195E+03  d E =0.665320E-03
quench:  g(F)=  0.000E+00 g(S)=  0.000E+00 dE (1.order)= 0.000E+00
 bond charge predicted
       N       E                     dE             d eps       ncg     rms          rms(c)
DAV:   1    -0.134735737382E+03    0.11321E-03   -0.64531E-02  1008   0.433E-01    0.830E-02
RMM:   2    -0.134735965295E+03   -0.22791E-03   -0.30556E-03  1355   0.945E-02    0.606E-02
RMM:   3    -0.134735930257E+03    0.35038E-04   -0.19105E-04   969   0.372E-02    0.439E-02
RMM:   4    -0.134735938648E+03   -0.83919E-05   -0.78407E-05   936   0.312E-02
  33 F= -.13473594E+03 E0= -.13473206E+03  d E =-.802958E-04
quench:  g(F)=  0.000E+00 g(S)=  0.000E+00 dE (1.order)= 0.000E+00
 bond charge predicted
       N       E                     dE             d eps       ncg     rms          rms(c)
DAV:   1    -0.134735787539E+03    0.14272E-03   -0.21476E-02  1296   0.359E-01    0.445E-02
RMM:   2    -0.134735894781E+03   -0.10724E-03   -0.10428E-03  1122   0.739E-02    0.432E-02
RMM:   3    -0.134735869174E+03    0.25607E-04   -0.13108E-04   960   0.371E-02    0.329E-02
RMM:   4    -0.134735857675E+03    0.11499E-04   -0.26571E-05   603   0.203E-02    0.182E-02
RMM:   5    -0.134735856168E+03    0.15068E-05   -0.11216E-05   549   0.152E-02
  34 F= -.13473586E+03 E0= -.13473196E+03  d E =0.824802E-04
quench:  g(F)=  0.000E+00 g(S)=  0.000E+00 dE (1.order)= 0.000E+00
 bond charge predicted
       N       E                     dE             d eps       ncg     rms          rms(c)
DAV:   1    -0.134735319336E+03    0.53834E-03   -0.49323E-02  1008   0.408E-01    0.560E-02
RMM:   2    -0.134735485423E+03   -0.16609E-03   -0.19279E-03  1421   0.883E-02    0.282E-02
RMM:   3    -0.134735472686E+03    0.12737E-04   -0.92878E-05   860   0.297E-02    0.323E-02
RMM:   4    -0.134735462156E+03    0.10531E-04   -0.30203E-05   621   0.247E-02    0.168E-02
RMM:   5    -0.134735465013E+03   -0.28573E-05   -0.10253E-05   550   0.137E-02
  35 F= -.13473547E+03 E0= -.13473159E+03  d E =0.391155E-03
quench:  g(F)=  0.000E+00 g(S)=  0.000E+00 dE (1.order)= 0.000E+00
 bond charge predicted
       N       E                     dE             d eps       ncg     rms          rms(c)
DAV:   1    -0.134734534481E+03    0.92767E-03   -0.11204E-01  1008   0.603E-01    0.863E-02
RMM:   2    -0.134734889268E+03   -0.35479E-03   -0.42000E-03  1418   0.133E-01    0.368E-02
RMM:   3    -0.134734853076E+03    0.36192E-04   -0.25883E-04   941   0.342E-02    0.269E-02
RMM:   4    -0.134734861370E+03   -0.82948E-05   -0.62317E-05   822   0.314E-02
  36 F= -.13473486E+03 E0= -.13473099E+03  d E =0.603643E-03
quench:  g(F)=  0.000E+00 g(S)=  0.000E+00 dE (1.order)= 0.000E+00
 bond charge predicted
       N       E                     dE             d eps       ncg     rms          rms(c)
DAV:   1    -0.134733723291E+03    0.11298E-02   -0.16163E-01  1008   0.712E-01    0.107E-01
RMM:   2    -0.134734306833E+03   -0.58354E-03   -0.68545E-03  1425   0.156E-01    0.691E-02
RMM:   3    -0.134734238369E+03    0.68463E-04   -0.36506E-04  1069   0.534E-02    0.643E-02
RMM:   4    -0.134734204970E+03    0.33399E-04   -0.11035E-04   992   0.397E-02    0.391E-02
RMM:   5    -0.134734208868E+03   -0.38975E-05   -0.45803E-05   758   0.274E-02
  37 F= -.13473421E+03 E0= -.13473034E+03  d E =0.652503E-03
quench:  g(F)=  0.000E+00 g(S)=  0.000E+00 dE (1.order)= 0.000E+00
 bond charge predicted
       N       E                     dE             d eps       ncg     rms          rms(c)
DAV:   1    -0.134734042805E+03    0.16217E-03   -0.83039E-02  1098   0.485E-01    0.949E-02
RMM:   2    -0.134734348344E+03   -0.30554E-03   -0.39338E-03  1356   0.106E-01    0.598E-02
RMM:   3    -0.134734294736E+03    0.53608E-04   -0.27069E-04  1032   0.361E-02    0.475E-02
RMM:   4    -0.134734311240E+03   -0.16505E-04   -0.11276E-04   986   0.392E-02    0.482E-02
RMM:   5    -0.134734260626E+03    0.50615E-04   -0.38038E-05   669   0.257E-02    0.153E-02
RMM:   6    -0.134734259425E+03    0.12007E-05   -0.18991E-05   567   0.196E-02
  38 F= -.13473426E+03 E0= -.13473040E+03  d E =-.505571E-04
quench:  g(F)=  0.000E+00 g(S)=  0.000E+00 dE (1.order)= 0.000E+00
 bond charge predicted
       N       E                     dE             d eps       ncg     rms          rms(c)
DAV:   1    -0.134734183834E+03    0.76792E-04   -0.31256E-02  1053   0.300E-01    0.542E-02
RMM:   2    -0.134734303473E+03   -0.11964E-03   -0.15137E-03  1384   0.680E-02    0.394E-02
RMM:   3    -0.134734277485E+03    0.25989E-04   -0.70888E-05   714   0.234E-02    0.259E-02
RMM:   4    -0.134734286485E+03   -0.90003E-05   -0.46617E-05   753   0.291E-02
  39 F= -.13473429E+03 E0= -.13473043E+03  d E =-.270603E-04
quench:  g(F)=  0.000E+00 g(S)=  0.000E+00 dE (1.order)= 0.000E+00
 bond charge predicted
       N       E                     dE             d eps       ncg     rms          rms(c)
DAV:   1    -0.134733856294E+03    0.42119E-03   -0.45018E-02  1089   0.412E-01    0.577E-02
RMM:   2    -0.134734050217E+03   -0.19392E-03   -0.18763E-03  1290   0.889E-02    0.454E-02
RMM:   3    -0.134734026268E+03    0.23949E-04   -0.18270E-04  1061   0.357E-02    0.469E-02
RMM:   4    -0.134733984235E+03    0.42033E-04   -0.33815E-05   642   0.250E-02    0.175E-02
RMM:   5    -0.134733987321E+03   -0.30861E-05   -0.18493E-05   571   0.193E-02
  40 F= -.13473399E+03 E0= -.13473012E+03  d E =0.299164E-03
quench:  g(F)=  0.000E+00 g(S)=  0.000E+00 dE (1.order)= 0.000E+00
 bond charge predicted
       N       E                     dE             d eps       ncg     rms          rms(c)
DAV:   1    -0.134733179339E+03    0.80490E-03   -0.97610E-02  1008   0.563E-01    0.798E-02
RMM:   2    -0.134733506318E+03   -0.32698E-03   -0.38519E-03  1434   0.119E-01    0.434E-02
RMM:   3    -0.134733460978E+03    0.45340E-04   -0.18194E-04  1011   0.411E-02    0.376E-02
RMM:   4    -0.134733458058E+03    0.29197E-05   -0.62236E-05   810   0.330E-02
  41 F= -.13473346E+03 E0= -.13472961E+03  d E =0.529263E-03
quench:  g(F)=  0.000E+00 g(S)=  0.000E+00 dE (1.order)= 0.000E+00
 bond charge predicted
       N       E                     dE             d eps       ncg     rms          rms(c)
DAV:   1    -0.134732665428E+03    0.79555E-03   -0.12768E-01  1008   0.605E-01    0.103E-01
RMM:   2    -0.134733112512E+03   -0.44708E-03   -0.52730E-03  1409   0.135E-01    0.655E-02
RMM:   3    -0.134733140642E+03   -0.28130E-04   -0.43178E-04  1103   0.474E-02    0.803E-02
RMM:   4    -0.134733011572E+03    0.12907E-03   -0.12081E-04   997   0.384E-02    0.362E-02
RMM:   5    -0.134733011416E+03    0.15611E-06   -0.59312E-05   787   0.297E-02
  42 F= -.13473301E+03 E0= -.13472915E+03  d E =0.446642E-03
quench:  g(F)=  0.000E+00 g(S)=  0.000E+00 dE (1.order)= 0.000E+00
 bond charge predicted
       N       E                     dE             d eps       ncg     rms          rms(c)
DAV:   1    -0.134732897112E+03    0.11446E-03   -0.62640E-02  1008   0.429E-01    0.805E-02
RMM:   2    -0.134733117071E+03   -0.21996E-03   -0.29464E-03  1370   0.928E-02    0.562E-02
RMM:   3    -0.134733077568E+03    0.39503E-04   -0.16460E-04   891   0.326E-02    0.372E-02
RMM:   4    -0.134733103114E+03   -0.25546E-04   -0.75414E-05   940   0.324E-02    0.429E-02
RMM:   5    -0.134733071057E+03    0.32058E-04   -0.31410E-05   634   0.227E-02    0.168E-02
RMM:   6    -0.134733069940E+03    0.11165E-05   -0.25238E-05   611   0.227E-02
  43 F= -.13473307E+03 E0= -.13472921E+03  d E =-.585236E-04
quench:  g(F)=  0.000E+00 g(S)=  0.000E+00 dE (1.order)= 0.000E+00
 bond charge predicted
       N       E                     dE             d eps       ncg     rms          rms(c)
DAV:   1    -0.134732895662E+03    0.17539E-03   -0.28149E-02  1008   0.284E-01    0.490E-02
RMM:   2    -0.134732990764E+03   -0.95102E-04   -0.11838E-03  1348   0.638E-02    0.295E-02
RMM:   3    -0.134732980581E+03    0.10183E-04   -0.77398E-05   709   0.228E-02    0.267E-02
RMM:   4    -0.134732978234E+03    0.23473E-05   -0.30020E-05   625   0.248E-02
  44 F= -.13473298E+03 E0= -.13472913E+03  d E =0.917061E-04
quench:  g(F)=  0.000E+00 g(S)=  0.000E+00 dE (1.order)= 0.000E+00
 bond charge predicted
       N       E                     dE             d eps       ncg     rms          rms(c)
DAV:   1    -0.134732343567E+03    0.63701E-03   -0.57017E-02  1008   0.453E-01    0.620E-02
RMM:   2    -0.134732551467E+03   -0.20790E-03   -0.23647E-03  1406   0.982E-02    0.293E-02
RMM:   3    -0.134732545911E+03    0.55566E-05   -0.10065E-04   851   0.228E-02    0.367E-02
RMM:   4    -0.134732518503E+03    0.27408E-04   -0.30992E-05   618   0.239E-02    0.180E-02
RMM:   5    -0.134732521704E+03   -0.32017E-05   -0.13085E-05   557   0.165E-02
  45 F= -.13473252E+03 E0= -.13472868E+03  d E =0.456530E-03
quench:  g(F)=  0.000E+00 g(S)=  0.000E+00 dE (1.order)= 0.000E+00
 bond charge predicted
       N       E                     dE             d eps       ncg     rms          rms(c)
DAV:   1    -0.134731716236E+03    0.80227E-03   -0.11476E-01  1008   0.594E-01    0.910E-02
RMM:   2    -0.134732078751E+03   -0.36252E-03   -0.44087E-03  1433   0.129E-01    0.438E-02
RMM:   3    -0.134732039015E+03    0.39736E-04   -0.24930E-04  1003   0.330E-02    0.364E-02
RMM:   4    -0.134732041640E+03   -0.26247E-05   -0.57809E-05   784   0.271E-02
  46 F= -.13473204E+03 E0= -.13472820E+03  d E =0.480065E-03
quench:  g(F)=  0.000E+00 g(S)=  0.000E+00 dE (1.order)= 0.000E+00
 bond charge predicted
       N       E                     dE             d eps       ncg     rms          rms(c)
DAV:   1    -0.134731176561E+03    0.86245E-03   -0.12960E-01  1008   0.654E-01    0.104E-01
RMM:   2    -0.134731724014E+03   -0.54745E-03   -0.59364E-03  1366   0.144E-01    0.809E-02
RMM:   3    -0.134731665681E+03    0.58333E-04   -0.43224E-04  1045   0.637E-02    0.820E-02
RMM:   4    -0.134731559594E+03    0.10609E-03   -0.12518E-04  1001   0.425E-02    0.349E-02
RMM:   5    -0.134731575648E+03   -0.16055E-04   -0.44489E-05   675   0.239E-02    0.258E-02
RMM:   6    -0.134731574893E+03    0.75536E-06   -0.40057E-05   730   0.285E-02
  47 F= -.13473157E+03 E0= -.13472772E+03  d E =0.466747E-03
quench:  g(F)=  0.000E+00 g(S)=  0.000E+00 dE (1.order)= 0.000E+00
 bond charge predicted
       N       E                     dE             d eps       ncg     rms          rms(c)
DAV:   1    -0.134731605049E+03   -0.29401E-04   -0.50448E-02  1008   0.344E-01    0.757E-02
RMM:   2    -0.134731778654E+03   -0.17360E-03   -0.23320E-03  1429   0.806E-02    0.486E-02
RMM:   3    -0.134731736530E+03    0.42124E-04   -0.16489E-04   839   0.249E-02    0.301E-02
RMM:   4    -0.134731741198E+03   -0.46679E-05   -0.59285E-05   845   0.319E-02
  48 F= -.13473174E+03 E0= -.13472791E+03  d E =-.166305E-03
quench:  g(F)=  0.000E+00 g(S)=  0.000E+00 dE (1.order)= 0.000E+00
 bond charge predicted
       N       E                     dE             d eps       ncg     rms          rms(c)
DAV:   1    -0.134731361887E+03    0.37464E-03   -0.37896E-02  1125   0.407E-01    0.523E-02
RMM:   2    -0.134731541963E+03   -0.18008E-03   -0.16803E-03  1280   0.846E-02    0.457E-02
RMM:   3    -0.134731506285E+03    0.35678E-04   -0.13482E-04  1025   0.359E-02    0.412E-02
RMM:   4    -0.134731477694E+03    0.28591E-04   -0.25893E-05   598   0.217E-02    0.154E-02
RMM:   5    -0.134731482898E+03   -0.52044E-05   -0.13588E-05   549   0.169E-02
  49 F= -.13473148E+03 E0= -.13472766E+03  d E =0.258299E-03
quench:  g(F)=  0.000E+00 g(S)=  0.000E+00 dE (1.order)= 0.000E+00
 bond charge predicted
       N       E                     dE             d eps       ncg     rms          rms(c)
DAV:   1    -0.134730820255E+03    0.65744E-03   -0.85376E-02  1008   0.518E-01    0.790E-02
RMM:   2    -0.134731088110E+03   -0.26786E-03   -0.33130E-03  1420   0.114E-01    0.357E-02
RMM:   3    -0.134731057593E+03    0.30517E-04   -0.17331E-04   850   0.282E-02    0.270E-02
RMM:   4    -0.134731066258E+03   -0.86650E-05   -0.45964E-05   751   0.280E-02
  50 F= -.13473107E+03 E0= -.13472724E+03  d E =0.416640E-03
quench:  g(F)=  0.000E+00 g(S)=  0.000E+00 dE (1.order)= 0.000E+00
 bond charge predicted
       N       E                     dE             d eps       ncg     rms          rms(c)
DAV:   1    -0.134730136211E+03    0.92138E-03   -0.13410E-01  1008   0.663E-01    0.101E-01
RMM:   2    -0.134730668619E+03   -0.53241E-03   -0.58514E-03  1382   0.148E-01    0.750E-02
RMM:   3    -0.134730621630E+03    0.46989E-04   -0.41882E-04  1055   0.645E-02    0.766E-02
RMM:   4    -0.134730536021E+03    0.85608E-04   -0.11291E-04   992   0.423E-02    0.331E-02
RMM:   5    -0.134730552653E+03   -0.16632E-04   -0.50156E-05   748   0.288E-02    0.280E-02
RMM:   6    -0.134730552265E+03    0.38862E-06   -0.37985E-05   669   0.278E-02
  51 F= -.13473055E+03 E0= -.13472673E+03  d E =0.513993E-03
quench:  g(F)=  0.000E+00 g(S)=  0.000E+00 dE (1.order)= 0.000E+00
 bond charge predicted
       N       E                     dE             d eps       ncg     rms          rms(c)
DAV:   1    -0.134730274796E+03    0.27786E-03   -0.93357E-02  1008   0.477E-01    0.986E-02
RMM:   2    -0.134730573516E+03   -0.29872E-03   -0.40599E-03  1453   0.107E-01    0.612E-02
RMM:   3    -0.134730508962E+03    0.64554E-04   -0.29698E-04   994   0.290E-02    0.366E-02
RMM:   4    -0.134730506658E+03    0.23038E-05   -0.56139E-05   745   0.264E-02
  52 F= -.13473051E+03 E0= -.13472671E+03  d E =0.456066E-04
quench:  g(F)=  0.000E+00 g(S)=  0.000E+00 dE (1.order)= 0.000E+00
 bond charge predicted
       N       E                     dE             d eps       ncg     rms          rms(c)
DAV:   1    -0.134730443115E+03    0.65846E-04   -0.37924E-02  1260   0.410E-01    0.606E-02
RMM:   2    -0.134730659712E+03   -0.21660E-03   -0.18855E-03  1236   0.858E-02    0.637E-02
RMM:   3    -0.134730583691E+03    0.76021E-04   -0.16973E-04  1034   0.388E-02    0.456E-02
RMM:   4    -0.134730550052E+03    0.33639E-04   -0.36090E-05   629   0.207E-02    0.199E-02
RMM:   5    -0.134730557676E+03   -0.76241E-05   -0.25649E-05   606   0.216E-02
  53 F= -.13473056E+03 E0= -.13472677E+03  d E =-.510180E-04
quench:  g(F)=  0.000E+00 g(S)=  0.000E+00 dE (1.order)= 0.000E+00
 bond charge predicted
       N       E                     dE             d eps       ncg     rms          rms(c)
DAV:   1    -0.134730145763E+03    0.40429E-03   -0.55511E-02  1008   0.423E-01    0.644E-02
RMM:   2    -0.134730321533E+03   -0.17577E-03   -0.21981E-03  1395   0.934E-02    0.277E-02
RMM:   3    -0.134730302779E+03    0.18754E-04   -0.11546E-04   782   0.253E-02    0.230E-02
RMM:   4    -0.134730305383E+03   -0.26035E-05   -0.35213E-05   664   0.264E-02
  54 F= -.13473031E+03 E0= -.13472651E+03  d E =0.252293E-03
quench:  g(F)=  0.000E+00 g(S)=  0.000E+00 dE (1.order)= 0.000E+00
 bond charge predicted
       N       E                     dE             d eps       ncg     rms          rms(c)
DAV:   1    -0.134729463586E+03    0.83919E-03   -0.12113E-01  1008   0.624E-01    0.923E-02
RMM:   2    -0.134729871168E+03   -0.40758E-03   -0.47659E-03  1401   0.136E-01    0.560E-02
RMM:   3    -0.134729875201E+03   -0.40330E-05   -0.34851E-04  1056   0.575E-02    0.664E-02
RMM:   4    -0.134729810927E+03    0.64274E-04   -0.92735E-05   960   0.385E-02    0.275E-02
RMM:   5    -0.134729820149E+03   -0.92214E-05   -0.37015E-05   653   0.249E-02
  55 F= -.13472982E+03 E0= -.13472604E+03  d E =0.485234E-03
quench:  g(F)=  0.000E+00 g(S)=  0.000E+00 dE (1.order)= 0.000E+00
 bond charge predicted
       N       E                     dE             d eps       ncg     rms          rms(c)
DAV:   1    -0.134729021711E+03    0.78922E-03   -0.16778E-01  1008   0.695E-01    0.118E-01
RMM:   2    -0.134729568161E+03   -0.54645E-03   -0.70483E-03  1400   0.156E-01    0.662E-02
RMM:   3    -0.134729480417E+03    0.87743E-04   -0.45907E-04  1094   0.466E-02    0.475E-02
RMM:   4    -0.134729483255E+03   -0.28377E-05   -0.12872E-04   959   0.444E-02    0.412E-02
RMM:   5    -0.134729474066E+03    0.91894E-05   -0.69915E-05   843   0.353E-02
  56 F= -.13472947E+03 E0= -.13472572E+03  d E =0.346083E-03
quench:  g(F)=  0.000E+00 g(S)=  0.000E+00 dE (1.order)= 0.000E+00
 bond charge predicted
       N       E                     dE             d eps       ncg     rms          rms(c)
DAV:   1    -0.134729398586E+03    0.84669E-04   -0.85856E-02  1008   0.476E-01    0.954E-02
RMM:   2    -0.134729724054E+03   -0.32547E-03   -0.41079E-03  1399   0.108E-01    0.745E-02
RMM:   3    -0.134729695907E+03    0.28147E-04   -0.28785E-04  1058   0.476E-02    0.645E-02
RMM:   4    -0.134729648329E+03    0.47578E-04   -0.10356E-04   961   0.350E-02    0.389E-02
RMM:   5    -0.134729638206E+03    0.10124E-04   -0.41312E-05   664   0.233E-02    0.214E-02
RMM:   6    -0.134729634555E+03    0.36505E-05   -0.35331E-05   686   0.274E-02
  57 F= -.13472963E+03 E0= -.13472584E+03  d E =-.160490E-03
quench:  g(F)=  0.000E+00 g(S)=  0.000E+00 dE (1.order)= 0.000E+00
 bond charge predicted
       N       E                     dE             d eps       ncg     rms          rms(c)
DAV:   1    -0.134729613945E+03    0.24261E-04   -0.31578E-02  1044   0.294E-01    0.544E-02
RMM:   2    -0.134729721587E+03   -0.10764E-03   -0.13624E-03  1372   0.665E-02    0.338E-02
RMM:   3    -0.134729713749E+03    0.78377E-05   -0.95396E-05   766   0.253E-02
  58 F= -.13472971E+03 E0= -.13472594E+03  d E =-.791940E-04
quench:  g(F)=  0.000E+00 g(S)=  0.000E+00 dE (1.order)= 0.000E+00
 bond charge predicted
       N       E                     dE             d eps       ncg     rms          rms(c)
DAV:   1    -0.134729286164E+03    0.43542E-03   -0.64420E-02  1152   0.532E-01    0.689E-02
RMM:   2    -0.134729562488E+03   -0.27632E-03   -0.26494E-03  1379   0.103E-01    0.527E-02
RMM:   3    -0.134729539350E+03    0.23138E-04   -0.21989E-04  1052   0.435E-02    0.584E-02
RMM:   4    -0.134729476430E+03    0.62919E-04   -0.40477E-05   698   0.276E-02    0.182E-02
RMM:   5    -0.134729487593E+03   -0.11163E-04   -0.20849E-05   584   0.191E-02    0.170E-02
RMM:   6    -0.134729488766E+03   -0.11731E-05   -0.16392E-05   566   0.186E-02
  59 F= -.13472949E+03 E0= -.13472572E+03  d E =0.224983E-03
quench:  g(F)=  0.000E+00 g(S)=  0.000E+00 dE (1.order)= 0.000E+00
 bond charge predicted
       N       E                     dE             d eps       ncg     rms          rms(c)
DAV:   1    -0.134728970553E+03    0.51704E-03   -0.14524E-01  1008   0.662E-01    0.101E-01
RMM:   2    -0.134729387358E+03   -0.41681E-03   -0.52426E-03  1443   0.137E-01    0.462E-02
RMM:   3    -0.134729373276E+03    0.14082E-04   -0.31369E-04  1053   0.448E-02    0.479E-02
RMM:   4    -0.134729356518E+03    0.16758E-04   -0.81779E-05   887   0.349E-02    0.318E-02
RMM:   5    -0.134729364207E+03   -0.76891E-05   -0.35298E-05   656   0.220E-02
  60 F= -.13472936E+03 E0= -.13472563E+03  d E =0.124559E-03
quench:  g(F)=  0.000E+00 g(S)=  0.000E+00 dE (1.order)= 0.000E+00
 bond charge predicted
       N       E                     dE             d eps       ncg     rms          rms(c)
DAV:   1    -0.134728552021E+03    0.80450E-03   -0.21434E-01  1008   0.804E-01    0.126E-01
RMM:   2    -0.134729233824E+03   -0.68180E-03   -0.89001E-03  1467   0.171E-01    0.724E-02
RMM:   3    -0.134729130014E+03    0.10381E-03   -0.39372E-04  1118   0.416E-02    0.464E-02
RMM:   4    -0.134729187010E+03   -0.56996E-04   -0.12818E-04   990   0.423E-02    0.475E-02
RMM:   5    -0.134729173227E+03    0.13782E-04   -0.62158E-05   851   0.334E-02    0.271E-02
RMM:   6    -0.134729171753E+03    0.14748E-05   -0.29145E-05   638   0.223E-02
  61 F= -.13472917E+03 E0= -.13472540E+03  d E =0.192454E-03
quench:  g(F)=  0.000E+00 g(S)=  0.000E+00 dE (1.order)= 0.000E+00
 bond charge predicted
       N       E                     dE             d eps       ncg     rms          rms(c)
DAV:   1    -0.134729219170E+03   -0.45943E-04   -0.10525E-01  1008   0.503E-01    0.110E-01
RMM:   2    -0.134729574094E+03   -0.35492E-03   -0.48390E-03  1436   0.115E-01    0.704E-02
RMM:   3    -0.134729485305E+03    0.88789E-04   -0.33188E-04  1085   0.305E-02    0.419E-02
RMM:   4    -0.134729516870E+03   -0.31566E-04   -0.85580E-05   932   0.314E-02    0.479E-02
RMM:   5    -0.134729466232E+03    0.50639E-04   -0.45699E-05   759   0.289E-02    0.190E-02
RMM:   6    -0.134729459923E+03    0.63083E-05   -0.12725E-05   555   0.152E-02
  62 F= -.13472946E+03 E0= -.13472574E+03  d E =-.288171E-03
quench:  g(F)=  0.000E+00 g(S)=  0.000E+00 dE (1.order)= 0.000E+00
 bond charge predicted
       N       E                     dE             d eps       ncg     rms          rms(c)
DAV:   1    -0.134729522102E+03   -0.55870E-04   -0.40404E-02  1044   0.332E-01    0.604E-02
RMM:   2    -0.134729665186E+03   -0.14308E-03   -0.18270E-03  1417   0.735E-02    0.413E-02
RMM:   3    -0.134729638642E+03    0.26544E-04   -0.98547E-05   776   0.262E-02    0.276E-02
RMM:   4    -0.134729646724E+03   -0.80820E-05   -0.55570E-05   797   0.316E-02
  63 F= -.13472965E+03 E0= -.13472593E+03  d E =-.186801E-03
quench:  g(F)=  0.000E+00 g(S)=  0.000E+00 dE (1.order)= 0.000E+00
 bond charge predicted
       N       E                     dE             d eps       ncg     rms          rms(c)
DAV:   1    -0.134729493327E+03    0.14531E-03   -0.60963E-02  1008   0.441E-01    0.681E-02
RMM:   2    -0.134729685421E+03   -0.19209E-03   -0.24119E-03  1375   0.964E-02    0.303E-02
RMM:   3    -0.134729667590E+03    0.17831E-04   -0.13797E-04   838   0.285E-02    0.288E-02
RMM:   4    -0.134729666375E+03    0.12143E-05   -0.35808E-05   652   0.258E-02
  64 F= -.13472967E+03 E0= -.13472594E+03  d E =-.196513E-04
quench:  g(F)=  0.000E+00 g(S)=  0.000E+00 dE (1.order)= 0.000E+00
 bond charge predicted
       N       E                     dE             d eps       ncg     rms          rms(c)
DAV:   1    -0.134729211079E+03    0.45651E-03   -0.12779E-01  1008   0.643E-01    0.963E-02
RMM:   2    -0.134729615229E+03   -0.40415E-03   -0.49227E-03  1428   0.136E-01    0.562E-02
RMM:   3    -0.134729600972E+03    0.14257E-04   -0.34072E-04  1048   0.556E-02    0.604E-02
RMM:   4    -0.134729566391E+03    0.34581E-04   -0.88137E-05   957   0.365E-02    0.310E-02
RMM:   5    -0.134729579331E+03   -0.12940E-04   -0.43428E-05   704   0.266E-02    0.258E-02
RMM:   6    -0.134729578728E+03    0.60291E-06   -0.25107E-05   599   0.230E-02
  65 F= -.13472958E+03 E0= -.13472585E+03  d E =0.876475E-04
quench:  g(F)=  0.000E+00 g(S)=  0.000E+00 dE (1.order)= 0.000E+00
 bond charge predicted
       N       E                     dE             d eps       ncg     rms          rms(c)
DAV:   1    -0.134729167224E+03    0.41211E-03   -0.16459E-01  1008   0.662E-01    0.119E-01
RMM:   2    -0.134729681138E+03   -0.51391E-03   -0.67181E-03  1449   0.143E-01    0.709E-02
RMM:   3    -0.134729544501E+03    0.13664E-03   -0.41841E-04  1132   0.431E-02    0.546E-02
RMM:   4    -0.134729573584E+03   -0.29083E-04   -0.13570E-04  1013   0.425E-02    0.586E-02
RMM:   5    -0.134729506191E+03    0.67393E-04   -0.52262E-05   754   0.270E-02    0.224E-02
RMM:   6    -0.134729504406E+03    0.17847E-05   -0.25284E-05   622   0.191E-02
  66 F= -.13472950E+03 E0= -.13472579E+03  d E =0.743214E-04
quench:  g(F)=  0.000E+00 g(S)=  0.000E+00 dE (1.order)= 0.000E+00
 bond charge predicted
       N       E                     dE             d eps       ncg     rms          rms(c)
DAV:   1    -0.134729610783E+03   -0.10459E-03   -0.80431E-02  1026   0.449E-01    0.912E-02
RMM:   2    -0.134729896126E+03   -0.28534E-03   -0.37187E-03  1427   0.102E-01    0.647E-02
RMM:   3    -0.134729902271E+03   -0.61450E-05   -0.21512E-04   955   0.391E-02    0.419E-02
RMM:   4    -0.134729918449E+03   -0.16178E-04   -0.13036E-04   959   0.443E-02    0.403E-02
RMM:   5    -0.134729904076E+03    0.14373E-04   -0.56121E-05   774   0.322E-02    0.173E-02
RMM:   6    -0.134729904213E+03   -0.13718E-06   -0.15458E-05   576   0.155E-02
  67 F= -.13472990E+03 E0= -.13472618E+03  d E =-.399806E-03
quench:  g(F)=  0.000E+00 g(S)=  0.000E+00 dE (1.order)= 0.000E+00
 bond charge predicted
       N       E                     dE             d eps       ncg     rms          rms(c)
DAV:   1    -0.134729954022E+03   -0.49947E-04   -0.35524E-02  1035   0.322E-01    0.562E-02
RMM:   2    -0.134730072410E+03   -0.11839E-03   -0.15173E-03  1350   0.722E-02    0.325E-02
RMM:   3    -0.134730048346E+03    0.24065E-04   -0.90435E-05   729   0.221E-02    0.225E-02
RMM:   4    -0.134730055374E+03   -0.70288E-05   -0.30909E-05   641   0.250E-02
  68 F= -.13473006E+03 E0= -.13472635E+03  d E =-.151162E-03
quench:  g(F)=  0.000E+00 g(S)=  0.000E+00 dE (1.order)= 0.000E+00
 bond charge predicted
       N       E                     dE             d eps       ncg     rms          rms(c)
DAV:   1    -0.134729870341E+03    0.17800E-03   -0.73802E-02  1008   0.510E-01    0.723E-02
RMM:   2    -0.134730133229E+03   -0.26289E-03   -0.29725E-03  1392   0.107E-01    0.427E-02
RMM:   3    -0.134730141309E+03   -0.80805E-05   -0.18538E-04  1055   0.387E-02    0.577E-02
RMM:   4    -0.134730076292E+03    0.65018E-04   -0.46511E-05   774   0.283E-02    0.196E-02
RMM:   5    -0.134730087165E+03   -0.10874E-04   -0.20636E-05   572   0.198E-02    0.163E-02
RMM:   6    -0.134730089550E+03   -0.23847E-05   -0.16413E-05   570   0.189E-02
  69 F= -.13473009E+03 E0= -.13472638E+03  d E =-.341757E-04
quench:  g(F)=  0.000E+00 g(S)=  0.000E+00 dE (1.order)= 0.000E+00
 bond charge predicted
       N       E                     dE             d eps       ncg     rms          rms(c)
DAV:   1    -0.134729862344E+03    0.22482E-03   -0.14296E-01  1008   0.640E-01    0.103E-01
RMM:   2    -0.134730274362E+03   -0.41202E-03   -0.52357E-03  1449   0.131E-01    0.523E-02
RMM:   3    -0.134730194180E+03    0.80182E-04   -0.33558E-04  1064   0.424E-02    0.510E-02
RMM:   4    -0.134730168618E+03    0.25561E-04   -0.90922E-05   946   0.356E-02    0.377E-02
RMM:   5    -0.134730162165E+03    0.64536E-05   -0.34695E-05   648   0.209E-02
  70 F= -.13473016E+03 E0= -.13472650E+03  d E =-.726146E-04
quench:  g(F)=  0.000E+00 g(S)=  0.000E+00 dE (1.order)= 0.000E+00
 bond charge predicted
       N       E                     dE             d eps       ncg     rms          rms(c)
DAV:   1    -0.134729731383E+03    0.43724E-03   -0.16079E-01  1017   0.673E-01    0.116E-01
RMM:   2    -0.134730260830E+03   -0.52945E-03   -0.69826E-03  1468   0.143E-01    0.769E-02
RMM:   3    -0.134730225755E+03    0.35075E-04   -0.38255E-04  1070   0.475E-02    0.525E-02
RMM:   4    -0.134730257853E+03   -0.32099E-04   -0.15032E-04  1000   0.474E-02    0.487E-02
RMM:   5    -0.134730253951E+03    0.39020E-05   -0.59946E-05   824   0.308E-02
  71 F= -.13473025E+03 E0= -.13472656E+03  d E =-.917865E-04
quench:  g(F)=  0.000E+00 g(S)=  0.000E+00 dE (1.order)= 0.000E+00
 bond charge predicted
       N       E                     dE             d eps       ncg     rms          rms(c)
DAV:   1    -0.134730517921E+03   -0.26007E-03   -0.59566E-02  1251   0.455E-01    0.828E-02
RMM:   2    -0.134730777779E+03   -0.25986E-03   -0.28010E-03  1312   0.933E-02    0.660E-02
RMM:   3    -0.134730704489E+03    0.73291E-04   -0.28183E-04  1049   0.453E-02    0.694E-02
RMM:   4    -0.134730601847E+03    0.10264E-03   -0.87100E-05   913   0.325E-02    0.274E-02
RMM:   5    -0.134730599196E+03    0.26510E-05   -0.25085E-05   611   0.204E-02
  72 F= -.13473060E+03 E0= -.13472693E+03  d E =-.345244E-03
quench:  g(F)=  0.000E+00 g(S)=  0.000E+00 dE (1.order)= 0.000E+00
 bond charge predicted
       N       E                     dE             d eps       ncg     rms          rms(c)
DAV:   1    -0.134730574707E+03    0.27140E-04   -0.50968E-02  1035   0.413E-01    0.606E-02
RMM:   2    -0.134730735672E+03   -0.16097E-03   -0.20165E-03  1410   0.877E-02    0.354E-02
RMM:   3    -0.134730717692E+03    0.17980E-04   -0.11386E-04   949   0.349E-02    0.325E-02
RMM:   4    -0.134730715664E+03    0.20281E-05   -0.38317E-05   685   0.283E-02
  73 F= -.13473072E+03 E0= -.13472704E+03  d E =-.116468E-03
quench:  g(F)=  0.000E+00 g(S)=  0.000E+00 dE (1.order)= 0.000E+00
 bond charge predicted
       N       E                     dE             d eps       ncg     rms          rms(c)
DAV:   1    -0.134730635709E+03    0.81982E-04   -0.11006E-01  1008   0.570E-01    0.923E-02
RMM:   2    -0.134730953549E+03   -0.31784E-03   -0.40752E-03  1446   0.120E-01    0.477E-02
RMM:   3    -0.134731014129E+03   -0.60580E-04   -0.31758E-04  1075   0.416E-02    0.698E-02
RMM:   4    -0.134730913079E+03    0.10105E-03   -0.72404E-05   910   0.311E-02    0.259E-02
RMM:   5    -0.134730930730E+03   -0.17651E-04   -0.38132E-05   661   0.239E-02    0.247E-02
RMM:   6    -0.134730928530E+03    0.22005E-05   -0.26469E-05   609   0.241E-02
  74 F= -.13473093E+03 E0= -.13472727E+03  d E =-.212866E-03
quench:  g(F)=  0.000E+00 g(S)=  0.000E+00 dE (1.order)= 0.000E+00
 bond charge predicted
       N       E                     dE             d eps       ncg     rms          rms(c)
DAV:   1    -0.134730632740E+03    0.29799E-03   -0.17303E-01  1008   0.703E-01    0.111E-01
RMM:   2    -0.134731140135E+03   -0.50740E-03   -0.66863E-03  1477   0.145E-01    0.636E-02
RMM:   3    -0.134731091435E+03    0.48700E-04   -0.32199E-04  1052   0.380E-02    0.473E-02
RMM:   4    -0.134731139239E+03   -0.47804E-04   -0.11673E-04  1005   0.408E-02    0.488E-02
RMM:   5    -0.134731112831E+03    0.26408E-04   -0.40415E-05   684   0.266E-02    0.223E-02
RMM:   6    -0.134731115808E+03   -0.29767E-05   -0.29117E-05   632   0.233E-02
  75 F= -.13473112E+03 E0= -.13472743E+03  d E =-.187278E-03
quench:  g(F)=  0.000E+00 g(S)=  0.000E+00 dE (1.order)= 0.000E+00
 bond charge predicted
       N       E                     dE             d eps       ncg     rms          rms(c)
DAV:   1    -0.134731235230E+03   -0.12240E-03   -0.10102E-01  1008   0.486E-01    0.106E-01
RMM:   2    -0.134731560428E+03   -0.32520E-03   -0.45023E-03  1453   0.111E-01    0.679E-02
RMM:   3    -0.134731480508E+03    0.79920E-04   -0.30644E-04  1062   0.308E-02    0.418E-02
RMM:   4    -0.134731510097E+03   -0.29589E-04   -0.10027E-04   965   0.378E-02    0.480E-02
RMM:   5    -0.134731465692E+03    0.44405E-04   -0.52619E-05   823   0.309E-02    0.203E-02
RMM:   6    -0.134731459967E+03    0.57245E-05   -0.15277E-05   569   0.160E-02
  76 F= -.13473146E+03 E0= -.13472781E+03  d E =-.344160E-03
quench:  g(F)=  0.000E+00 g(S)=  0.000E+00 dE (1.order)= 0.000E+00
 bond charge predicted
       N       E                     dE             d eps       ncg     rms          rms(c)
DAV:   1    -0.134731578161E+03   -0.11247E-03   -0.41060E-02  1026   0.335E-01    0.605E-02
RMM:   2    -0.134731721423E+03   -0.14326E-03   -0.18655E-03  1423   0.750E-02    0.413E-02
RMM:   3    -0.134731695443E+03    0.25980E-04   -0.96112E-05   764   0.253E-02    0.268E-02
RMM:   4    -0.134731706208E+03   -0.10765E-04   -0.57275E-05   801   0.321E-02    0.262E-02
RMM:   5    -0.134731701813E+03    0.43950E-05   -0.26575E-05   612   0.230E-02
  77 F= -.13473170E+03 E0= -.13472805E+03  d E =-.241845E-03
quench:  g(F)=  0.000E+00 g(S)=  0.000E+00 dE (1.order)= 0.000E+00
 bond charge predicted
       N       E                     dE             d eps       ncg     rms          rms(c)
DAV:   1    -0.134731649352E+03    0.56855E-04   -0.61516E-02  1008   0.438E-01    0.688E-02
RMM:   2    -0.134731856849E+03   -0.20750E-03   -0.24108E-03  1440   0.926E-02    0.398E-02
RMM:   3    -0.134731884696E+03   -0.27847E-04   -0.20980E-04  1060   0.359E-02    0.597E-02
RMM:   4    -0.134731809111E+03    0.75584E-04   -0.43264E-05   708   0.260E-02    0.197E-02
RMM:   5    -0.134731817775E+03   -0.86639E-05   -0.25676E-05   604   0.213E-02
  78 F= -.13473182E+03 E0= -.13472819E+03  d E =-.115962E-03
quench:  g(F)=  0.000E+00 g(S)=  0.000E+00 dE (1.order)= 0.000E+00
 bond charge predicted
       N       E                     dE             d eps       ncg     rms          rms(c)
DAV:   1    -0.134731620649E+03    0.18846E-03   -0.13249E-01  1008   0.635E-01    0.964E-02
RMM:   2    -0.134732009756E+03   -0.38911E-03   -0.49891E-03  1481   0.132E-01    0.466E-02
RMM:   3    -0.134731980268E+03    0.29487E-04   -0.20484E-04  1010   0.307E-02    0.403E-02
RMM:   4    -0.134731988509E+03   -0.82411E-05   -0.62818E-05   867   0.296E-02
  79 F= -.13473199E+03 E0= -.13472835E+03  d E =-.170734E-03
quench:  g(F)=  0.000E+00 g(S)=  0.000E+00 dE (1.order)= 0.000E+00
 bond charge predicted
       N       E                     dE             d eps       ncg     rms          rms(c)
DAV:   1    -0.134731867246E+03    0.11302E-03   -0.16264E-01  1008   0.687E-01    0.122E-01
RMM:   2    -0.134732371466E+03   -0.50422E-03   -0.67544E-03  1367   0.153E-01    0.731E-02
RMM:   3    -0.134732321862E+03    0.49604E-04   -0.55246E-04  1067   0.608E-02    0.687E-02
RMM:   4    -0.134732297920E+03    0.23941E-04   -0.16314E-04  1006   0.517E-02    0.473E-02
RMM:   5    -0.134732300137E+03   -0.22164E-05   -0.69819E-05   895   0.316E-02
  80 F= -.13473230E+03 E0= -.13472868E+03  d E =-.311627E-03
quench:  g(F)=  0.000E+00 g(S)=  0.000E+00 dE (1.order)= 0.000E+00
 bond charge predicted
       N       E                     dE             d eps       ncg     rms          rms(c)
DAV:   1    -0.134732560979E+03   -0.26306E-03   -0.76720E-02  1143   0.520E-01    0.889E-02
RMM:   2    -0.134732871837E+03   -0.31086E-03   -0.36079E-03  1322   0.102E-01    0.654E-02
RMM:   3    -0.134732837131E+03    0.34706E-04   -0.25719E-04  1065   0.451E-02    0.630E-02
RMM:   4    -0.134732772694E+03    0.64437E-04   -0.84717E-05   950   0.331E-02    0.332E-02
RMM:   5    -0.134732770442E+03    0.22515E-05   -0.32227E-05   618   0.211E-02
  81 F= -.13473277E+03 E0= -.13472915E+03  d E =-.470306E-03
quench:  g(F)=  0.000E+00 g(S)=  0.000E+00 dE (1.order)= 0.000E+00
 bond charge predicted
       N       E                     dE             d eps       ncg     rms          rms(c)
DAV:   1    -0.134732957350E+03   -0.18466E-03   -0.35899E-02  1035   0.331E-01    0.566E-02
RMM:   2    -0.134733078675E+03   -0.12133E-03   -0.15474E-03  1350   0.728E-02    0.325E-02
RMM:   3    -0.134733058146E+03    0.20529E-04   -0.92288E-05   773   0.244E-02    0.277E-02
RMM:   4    -0.134733058667E+03   -0.52071E-06   -0.40614E-05   719   0.289E-02
  82 F= -.13473306E+03 E0= -.13472945E+03  d E =-.288224E-03
quench:  g(F)=  0.000E+00 g(S)=  0.000E+00 dE (1.order)= 0.000E+00
 bond charge predicted
       N       E                     dE             d eps       ncg     rms          rms(c)
DAV:   1    -0.134733082060E+03   -0.23914E-04   -0.75356E-02  1008   0.500E-01    0.734E-02
RMM:   2    -0.134733361329E+03   -0.27927E-03   -0.29397E-03  1448   0.104E-01    0.478E-02
RMM:   3    -0.134733362262E+03   -0.93354E-06   -0.20503E-04  1078   0.346E-02    0.602E-02
RMM:   4    -0.134733287592E+03    0.74670E-04   -0.53373E-05   842   0.287E-02    0.208E-02
RMM:   5    -0.134733296620E+03   -0.90284E-05   -0.23272E-05   600   0.202E-02
  83 F= -.13473330E+03 E0= -.13472967E+03  d E =-.237953E-03
quench:  g(F)=  0.000E+00 g(S)=  0.000E+00 dE (1.order)= 0.000E+00
 bond charge predicted
       N       E                     dE             d eps       ncg     rms          rms(c)
DAV:   1    -0.134733441630E+03   -0.15404E-03   -0.14158E-01  1008   0.630E-01    0.105E-01
RMM:   2    -0.134733846737E+03   -0.40511E-03   -0.52550E-03  1444   0.132E-01    0.534E-02
RMM:   3    -0.134733794459E+03    0.52278E-04   -0.31726E-04  1044   0.390E-02    0.405E-02
RMM:   4    -0.134733812549E+03   -0.18090E-04   -0.96745E-05   951   0.396E-02    0.401E-02
RMM:   5    -0.134733804476E+03    0.80729E-05   -0.40140E-05   679   0.246E-02
  84 F= -.13473380E+03 E0= -.13473022E+03  d E =-.507856E-03
quench:  g(F)=  0.000E+00 g(S)=  0.000E+00 dE (1.order)= 0.000E+00
 bond charge predicted
       N       E                     dE             d eps       ncg     rms          rms(c)
DAV:   1    -0.134733764276E+03    0.48273E-04   -0.15218E-01  1008   0.654E-01    0.114E-01
RMM:   2    -0.134734312170E+03   -0.54789E-03   -0.66667E-03  1459   0.141E-01    0.774E-02
RMM:   3    -0.134734181488E+03    0.13068E-03   -0.37477E-04  1055   0.475E-02    0.514E-02
RMM:   4    -0.134734193869E+03   -0.12381E-04   -0.14883E-04   978   0.462E-02    0.436E-02
RMM:   5    -0.134734181641E+03    0.12229E-04   -0.65063E-05   809   0.341E-02    0.166E-02
RMM:   6    -0.134734186713E+03   -0.50724E-05   -0.18686E-05   606   0.166E-02
  85 F= -.13473419E+03 E0= -.13473057E+03  d E =-.382237E-03
quench:  g(F)=  0.000E+00 g(S)=  0.000E+00 dE (1.order)= 0.000E+00
 bond charge predicted
       N       E                     dE             d eps       ncg     rms          rms(c)
DAV:   1    -0.134734631741E+03   -0.45010E-03   -0.59076E-02  1008   0.380E-01    0.839E-02
RMM:   2    -0.134734835162E+03   -0.20342E-03   -0.27285E-03  1404   0.893E-02    0.569E-02
RMM:   3    -0.134734813025E+03    0.22137E-04   -0.23491E-04  1041   0.379E-02    0.518E-02
RMM:   4    -0.134734793860E+03    0.19165E-04   -0.93853E-05   971   0.370E-02    0.393E-02
RMM:   5    -0.134734771748E+03    0.22112E-04   -0.32824E-05   656   0.229E-02    0.222E-02
RMM:   6    -0.134734766008E+03    0.57404E-05   -0.27482E-05   626   0.243E-02
  86 F= -.13473477E+03 E0= -.13473118E+03  d E =-.579295E-03
quench:  g(F)=  0.000E+00 g(S)=  0.000E+00 dE (1.order)= 0.000E+00
 bond charge predicted
       N       E                     dE             d eps       ncg     rms          rms(c)
DAV:   1    -0.134734963858E+03   -0.19211E-03   -0.44799E-02  1008   0.365E-01    0.557E-02
RMM:   2    -0.134735111352E+03   -0.14749E-03   -0.17535E-03  1427   0.783E-02    0.291E-02
RMM:   3    -0.134735087055E+03    0.24297E-04   -0.69992E-05   712   0.197E-02    0.177E-02
RMM:   4    -0.134735096132E+03   -0.90773E-05   -0.21155E-05   577   0.201E-02
  87 F= -.13473510E+03 E0= -.13473151E+03  d E =-.330124E-03
quench:  g(F)=  0.000E+00 g(S)=  0.000E+00 dE (1.order)= 0.000E+00
 bond charge predicted
       N       E                     dE             d eps       ncg     rms          rms(c)
DAV:   1    -0.134735322257E+03   -0.23520E-03   -0.95869E-02  1008   0.538E-01    0.866E-02
RMM:   2    -0.134735626294E+03   -0.30404E-03   -0.37304E-03  1424   0.115E-01    0.426E-02
RMM:   3    -0.134735622626E+03    0.36678E-05   -0.24914E-04  1067   0.332E-02    0.526E-02
RMM:   4    -0.134735575434E+03    0.47192E-04   -0.52144E-05   742   0.253E-02    0.271E-02
RMM:   5    -0.134735581379E+03   -0.59444E-05   -0.34166E-05   629   0.255E-02
  88 F= -.13473558E+03 E0= -.13473201E+03  d E =-.485247E-03
quench:  g(F)=  0.000E+00 g(S)=  0.000E+00 dE (1.order)= 0.000E+00
 bond charge predicted
       N       E                     dE             d eps       ncg     rms          rms(c)
DAV:   1    -0.134735714457E+03   -0.13902E-03   -0.14948E-01  1008   0.662E-01    0.106E-01
RMM:   2    -0.134736218835E+03   -0.50438E-03   -0.60861E-03  1490   0.140E-01    0.631E-02
RMM:   3    -0.134736142760E+03    0.76074E-04   -0.31608E-04  1058   0.438E-02    0.514E-02
RMM:   4    -0.134736147880E+03   -0.51199E-05   -0.11386E-04  1001   0.413E-02    0.429E-02
RMM:   5    -0.134736132216E+03    0.15665E-04   -0.38350E-05   662   0.251E-02    0.249E-02
RMM:   6    -0.134736130323E+03    0.18926E-05   -0.32120E-05   653   0.262E-02
  89 F= -.13473613E+03 E0= -.13473253E+03  d E =-.548944E-03
quench:  g(F)=  0.000E+00 g(S)=  0.000E+00 dE (1.order)= 0.000E+00
 bond charge predicted
       N       E                     dE             d eps       ncg     rms          rms(c)
DAV:   1    -0.134736491966E+03   -0.35975E-03   -0.98273E-02  1008   0.482E-01    0.103E-01
RMM:   2    -0.134736801652E+03   -0.30969E-03   -0.43235E-03  1459   0.110E-01    0.658E-02
RMM:   3    -0.134736720486E+03    0.81165E-04   -0.29148E-04  1038   0.300E-02    0.403E-02
RMM:   4    -0.134736727334E+03   -0.68476E-05   -0.81724E-05   903   0.340E-02
  90 F= -.13473673E+03 E0= -.13473318E+03  d E =-.597011E-03
quench:  g(F)=  0.000E+00 g(S)=  0.000E+00 dE (1.order)= 0.000E+00
 bond charge predicted
       N       E                     dE             d eps       ncg     rms          rms(c)
DAV:   1    -0.134737030572E+03   -0.31009E-03   -0.39308E-02  1251   0.442E-01    0.605E-02
RMM:   2    -0.134737287684E+03   -0.25711E-03   -0.19193E-03  1227   0.891E-02    0.685E-02
RMM:   3    -0.134737174707E+03    0.11298E-03   -0.18828E-04  1033   0.423E-02    0.450E-02
RMM:   4    -0.134737146879E+03    0.27829E-04   -0.35247E-05   624   0.211E-02    0.182E-02
RMM:   5    -0.134737152550E+03   -0.56710E-05   -0.14959E-05   564   0.146E-02
  91 F= -.13473715E+03 E0= -.13473359E+03  d E =-.425216E-03
quench:  g(F)=  0.000E+00 g(S)=  0.000E+00 dE (1.order)= 0.000E+00
 bond charge predicted
       N       E                     dE             d eps       ncg     rms          rms(c)
DAV:   1    -0.134737438121E+03   -0.29124E-03   -0.63097E-02  1008   0.434E-01    0.694E-02
RMM:   2    -0.134737621451E+03   -0.18333E-03   -0.23173E-03  1460   0.917E-02    0.301E-02
RMM:   3    -0.134737604854E+03    0.16597E-04   -0.15076E-04   754   0.241E-02    0.226E-02
RMM:   4    -0.134737612178E+03   -0.73240E-05   -0.44136E-05   712   0.288E-02
  92 F= -.13473761E+03 E0= -.13473406E+03  d E =-.459628E-03
quench:  g(F)=  0.000E+00 g(S)=  0.000E+00 dE (1.order)= 0.000E+00
 bond charge predicted
       N       E                     dE             d eps       ncg     rms          rms(c)
DAV:   1    -0.134737803649E+03   -0.19880E-03   -0.13713E-01  1008   0.651E-01    0.985E-02
RMM:   2    -0.134738254742E+03   -0.45109E-03   -0.51947E-03  1460   0.137E-01    0.540E-02
RMM:   3    -0.134738278243E+03   -0.23501E-04   -0.30975E-04  1069   0.495E-02    0.745E-02
RMM:   4    -0.134738169585E+03    0.10866E-03   -0.89061E-05   980   0.380E-02    0.258E-02
RMM:   5    -0.134738185956E+03   -0.16371E-04   -0.25990E-05   590   0.210E-02    0.168E-02
RMM:   6    -0.134738191846E+03   -0.58904E-05   -0.23497E-05   598   0.230E-02
  93 F= -.13473819E+03 E0= -.13473464E+03  d E =-.579668E-03
quench:  g(F)=  0.000E+00 g(S)=  0.000E+00 dE (1.order)= 0.000E+00
 bond charge predicted
       N       E                     dE             d eps       ncg     rms          rms(c)
DAV:   1    -0.134738490336E+03   -0.30438E-03   -0.18452E-01  1008   0.698E-01    0.126E-01
RMM:   2    -0.134739050626E+03   -0.56029E-03   -0.75100E-03  1412   0.155E-01    0.731E-02
RMM:   3    -0.134738935989E+03    0.11464E-03   -0.42931E-04  1137   0.427E-02    0.502E-02
RMM:   4    -0.134738946474E+03   -0.10486E-04   -0.13201E-04   984   0.441E-02    0.475E-02
RMM:   5    -0.134738930227E+03    0.16248E-04   -0.85980E-05   908   0.406E-02    0.207E-02
RMM:   6    -0.134738928794E+03    0.14328E-05   -0.20037E-05   607   0.172E-02
  94 F= -.13473893E+03 E0= -.13473541E+03  d E =-.736948E-03
quench:  g(F)=  0.000E+00 g(S)=  0.000E+00 dE (1.order)= 0.000E+00
 bond charge predicted
       N       E                     dE             d eps       ncg     rms          rms(c)
DAV:   1    -0.134739390453E+03   -0.46023E-03   -0.89940E-02  1008   0.477E-01    0.969E-02
RMM:   2    -0.134739732627E+03   -0.34217E-03   -0.41902E-03  1455   0.107E-01    0.705E-02
RMM:   3    -0.134739654107E+03    0.78520E-04   -0.27081E-04  1038   0.431E-02    0.522E-02
RMM:   4    -0.134739668103E+03   -0.13997E-04   -0.12127E-04   998   0.396E-02    0.472E-02
RMM:   5    -0.134739647185E+03    0.20919E-04   -0.52380E-05   771   0.282E-02    0.282E-02
RMM:   6    -0.134739632998E+03    0.14187E-04   -0.38843E-05   695   0.285E-02    0.136E-02
RMM:   7    -0.134739630983E+03    0.20149E-05   -0.66960E-06   546   0.122E-02
  95 F= -.13473963E+03 E0= -.13473609E+03  d E =-.702189E-03
quench:  g(F)=  0.000E+00 g(S)=  0.000E+00 dE (1.order)= 0.000E+00
 bond charge predicted
       N       E                     dE             d eps       ncg     rms          rms(c)
DAV:   1    -0.134740041748E+03   -0.40875E-03   -0.32686E-02  1008   0.286E-01    0.557E-02
RMM:   2    -0.134740142380E+03   -0.10063E-03   -0.13505E-03  1384   0.638E-02    0.345E-02
RMM:   3    -0.134740125151E+03    0.17229E-04   -0.90213E-05   738   0.216E-02    0.269E-02
RMM:   4    -0.134740129376E+03   -0.42259E-05   -0.38022E-05   712   0.273E-02
  96 F= -.13474013E+03 E0= -.13473658E+03  d E =-.498393E-03
quench:  g(F)=  0.000E+00 g(S)=  0.000E+00 dE (1.order)= 0.000E+00
 bond charge predicted
       N       E                     dE             d eps       ncg     rms          rms(c)
DAV:   1    -0.134740492841E+03   -0.36769E-03   -0.67925E-02  1008   0.481E-01    0.703E-02
RMM:   2    -0.134740727581E+03   -0.23474E-03   -0.26724E-03  1413   0.101E-01    0.416E-02
RMM:   3    -0.134740731875E+03   -0.42942E-05   -0.21007E-04  1028   0.441E-02    0.538E-02
RMM:   4    -0.134740680072E+03    0.51803E-04   -0.51707E-05   824   0.307E-02    0.210E-02
RMM:   5    -0.134740686847E+03   -0.67751E-05   -0.20685E-05   571   0.201E-02
  97 F= -.13474069E+03 E0= -.13473716E+03  d E =-.557471E-03
quench:  g(F)=  0.000E+00 g(S)=  0.000E+00 dE (1.order)= 0.000E+00
 bond charge predicted
       N       E                     dE             d eps       ncg     rms          rms(c)
DAV:   1    -0.134741205707E+03   -0.52563E-03   -0.14308E-01  1008   0.643E-01    0.106E-01
RMM:   2    -0.134741621812E+03   -0.41611E-03   -0.54129E-03  1418   0.139E-01    0.504E-02
RMM:   3    -0.134741575741E+03    0.46072E-04   -0.33143E-04  1054   0.428E-02    0.412E-02
RMM:   4    -0.134741580299E+03   -0.45587E-05   -0.87483E-05   897   0.372E-02
  98 F= -.13474158E+03 E0= -.13473805E+03  d E =-.893452E-03
quench:  g(F)=  0.000E+00 g(S)=  0.000E+00 dE (1.order)= 0.000E+00
 bond charge predicted
       N       E                     dE             d eps       ncg     rms          rms(c)
DAV:   1    -0.134741859592E+03   -0.28385E-03   -0.18744E-01  1008   0.754E-01    0.121E-01
RMM:   2    -0.134742545309E+03   -0.68572E-03   -0.80169E-03  1470   0.161E-01    0.862E-02
RMM:   3    -0.134742486223E+03    0.59086E-04   -0.56227E-04  1064   0.674E-02    0.863E-02
RMM:   4    -0.134742380203E+03    0.10602E-03   -0.15212E-04  1022   0.460E-02    0.440E-02
RMM:   5    -0.134742399838E+03   -0.19635E-04   -0.85002E-05   885   0.360E-02    0.358E-02
RMM:   6    -0.134742394984E+03    0.48534E-05   -0.56809E-05   780   0.340E-02
  99 F= -.13474239E+03 E0= -.13473886E+03  d E =-.814685E-03
quench:  g(F)=  0.000E+00 g(S)=  0.000E+00 dE (1.order)= 0.000E+00
 bond charge predicted
       N       E                     dE             d eps       ncg     rms          rms(c)
DAV:   1    -0.134743048595E+03   -0.64876E-03   -0.77189E-02  1008   0.418E-01    0.966E-02
RMM:   2    -0.134743302367E+03   -0.25377E-03   -0.35531E-03  1462   0.985E-02    0.629E-02
RMM:   3    -0.134743243451E+03    0.58916E-04   -0.27108E-04  1047   0.341E-02    0.426E-02
RMM:   4    -0.134743282207E+03   -0.38755E-04   -0.10963E-04   989   0.402E-02    0.527E-02
RMM:   5    -0.134743220797E+03    0.61410E-04   -0.43422E-05   725   0.275E-02    0.164E-02
RMM:   6    -0.134743219198E+03    0.15984E-05   -0.15780E-05   574   0.162E-02
 100 F= -.13474322E+03 E0= -.13473971E+03  d E =-.824214E-03
quench:  g(F)=  0.000E+00 g(S)=  0.000E+00 dE (1.order)= 0.000E+00
 bond charge predicted
       N       E                     dE             d eps       ncg     rms          rms(c)
DAV:   1    -0.134743655650E+03   -0.43485E-03   -0.39078E-02  1053   0.342E-01    0.545E-02
RMM:   2    -0.134743787711E+03   -0.13206E-03   -0.16845E-03  1457   0.754E-02    0.323E-02
RMM:   3    -0.134743767660E+03    0.20051E-04   -0.74488E-05   726   0.206E-02    0.211E-02
RMM:   4    -0.134743778525E+03   -0.10865E-04   -0.34184E-05   672   0.259E-02    0.210E-02
RMM:   5    -0.134743777636E+03    0.88842E-06   -0.15383E-05   555   0.190E-02
 101 F= -.13474378E+03 E0= -.13474027E+03  d E =-.558438E-03
quench:  g(F)=  0.000E+00 g(S)=  0.000E+00 dE (1.order)= 0.000E+00
 bond charge predicted
       N       E                     dE             d eps       ncg     rms          rms(c)
DAV:   1    -0.134744353146E+03   -0.57462E-03   -0.82912E-02  1008   0.496E-01    0.809E-02
RMM:   2    -0.134744601184E+03   -0.24804E-03   -0.32302E-03  1456   0.106E-01    0.407E-02
RMM:   3    -0.134744602373E+03   -0.11889E-05   -0.22227E-04  1021   0.296E-02    0.493E-02
RMM:   4    -0.134744569484E+03    0.32889E-04   -0.43456E-05   674   0.220E-02    0.254E-02
RMM:   5    -0.134744578465E+03   -0.89808E-05   -0.34398E-05   659   0.262E-02
 102 F= -.13474458E+03 E0= -.13474109E+03  d E =-.800829E-03
quench:  g(F)=  0.000E+00 g(S)=  0.000E+00 dE (1.order)= 0.000E+00
 bond charge predicted
       N       E                     dE             d eps       ncg     rms          rms(c)
DAV:   1    -0.134745110616E+03   -0.54113E-03   -0.15571E-01  1008   0.686E-01    0.107E-01
RMM:   2    -0.134745603614E+03   -0.49300E-03   -0.61200E-03  1498   0.145E-01    0.545E-02
RMM:   3    -0.134745536344E+03    0.67269E-04   -0.28146E-04  1057   0.351E-02    0.420E-02
RMM:   4    -0.134745566521E+03   -0.30177E-04   -0.91140E-05   961   0.352E-02    0.432E-02
RMM:   5    -0.134745548809E+03    0.17712E-04   -0.31801E-05   616   0.247E-02    0.182E-02
RMM:   6    -0.134745556451E+03   -0.76422E-05   -0.25538E-05   604   0.226E-02
 103 F= -.13474556E+03 E0= -.13474204E+03  d E =-.977987E-03
quench:  g(F)=  0.000E+00 g(S)=  0.000E+00 dE (1.order)= 0.000E+00
 bond charge predicted
       N       E                     dE             d eps       ncg     rms          rms(c)
DAV:   1    -0.134746104205E+03   -0.55540E-03   -0.14860E-01  1008   0.612E-01    0.122E-01
RMM:   2    -0.134746567599E+03   -0.46339E-03   -0.64659E-03  1454   0.139E-01    0.747E-02
RMM:   3    -0.134746456572E+03    0.11103E-03   -0.43287E-04  1154   0.378E-02    0.476E-02
RMM:   4    -0.134746466633E+03   -0.10061E-04   -0.10946E-04   962   0.399E-02    0.404E-02
RMM:   5    -0.134746461725E+03    0.49080E-05   -0.77577E-05   928   0.378E-02
 104 F= -.13474646E+03 E0= -.13474297E+03  d E =-.905273E-03
quench:  g(F)=  0.000E+00 g(S)=  0.000E+00 dE (1.order)= 0.000E+00
 bond charge predicted
       N       E                     dE             d eps       ncg     rms          rms(c)
DAV:   1    -0.134747059186E+03   -0.59255E-03   -0.63358E-02  1134   0.472E-01    0.835E-02
RMM:   2    -0.134747366259E+03   -0.30707E-03   -0.33177E-03  1330   0.103E-01    0.742E-02
RMM:   3    -0.134747281334E+03    0.84925E-04   -0.25203E-04  1050   0.451E-02    0.579E-02
RMM:   4    -0.134747246851E+03    0.34483E-04   -0.76598E-05   899   0.306E-02    0.333E-02
RMM:   5    -0.134747253677E+03   -0.68258E-05   -0.55958E-05   790   0.303E-02
 105 F= -.13474725E+03 E0= -.13474379E+03  d E =-.791952E-03
quench:  g(F)=  0.000E+00 g(S)=  0.000E+00 dE (1.order)= 0.000E+00
 bond charge predicted
       N       E                     dE             d eps       ncg     rms          rms(c)
DAV:   1    -0.134747845054E+03   -0.59820E-03   -0.52375E-02  1035   0.422E-01    0.665E-02
RMM:   2    -0.134748023234E+03   -0.17818E-03   -0.23058E-03  1388   0.907E-02    0.303E-02
RMM:   3    -0.134747995488E+03    0.27746E-04   -0.89951E-05   791   0.185E-02    0.213E-02
RMM:   4    -0.134748010608E+03   -0.15120E-04   -0.26656E-05   612   0.213E-02    0.259E-02
RMM:   5    -0.134748000162E+03    0.10447E-04   -0.14444E-05   564   0.179E-02    0.118E-02
RMM:   6    -0.134748001029E+03   -0.86700E-06   -0.10123E-05   546   0.145E-02
 106 F= -.13474800E+03 E0= -.13474452E+03  d E =-.747352E-03
quench:  g(F)=  0.000E+00 g(S)=  0.000E+00 dE (1.order)= 0.000E+00
 bond charge predicted
       N       E                     dE             d eps       ncg     rms          rms(c)
DAV:   1    -0.134748644366E+03   -0.64420E-03   -0.11938E-01  1008   0.597E-01    0.910E-02
RMM:   2    -0.134748999694E+03   -0.35533E-03   -0.44678E-03  1492   0.124E-01    0.415E-02
RMM:   3    -0.134748963226E+03    0.36468E-04   -0.17039E-04   963   0.316E-02    0.293E-02
RMM:   4    -0.134748982897E+03   -0.19671E-04   -0.55620E-05   847   0.308E-02    0.278E-02
RMM:   5    -0.134748981321E+03    0.15753E-05   -0.24320E-05   592   0.221E-02
 107 F= -.13474898E+03 E0= -.13474551E+03  d E =-.980293E-03
quench:  g(F)=  0.000E+00 g(S)=  0.000E+00 dE (1.order)= 0.000E+00
 bond charge predicted
       N       E                     dE             d eps       ncg     rms          rms(c)
DAV:   1    -0.134749656139E+03   -0.67324E-03   -0.17006E-01  1008   0.689E-01    0.123E-01
RMM:   2    -0.134750205013E+03   -0.54887E-03   -0.73432E-03  1422   0.155E-01    0.704E-02
RMM:   3    -0.134750094708E+03    0.11031E-03   -0.46233E-04  1143   0.459E-02    0.518E-02
RMM:   4    -0.134750100258E+03   -0.55503E-05   -0.11392E-04   959   0.378E-02    0.411E-02
RMM:   5    -0.134750101587E+03   -0.13296E-05   -0.53075E-05   769   0.285E-02
 108 F= -.13475010E+03 E0= -.13474663E+03  d E =-.112027E-02
quench:  g(F)=  0.000E+00 g(S)=  0.000E+00 dE (1.order)= 0.000E+00
 bond charge predicted
       N       E                     dE             d eps       ncg     rms          rms(c)
DAV:   1    -0.134750637090E+03   -0.53683E-03   -0.10569E-01  1044   0.588E-01    0.105E-01
RMM:   2    -0.134751179192E+03   -0.54210E-03   -0.54843E-03  1384   0.131E-01    0.897E-02
RMM:   3    -0.134751062456E+03    0.11674E-03   -0.43203E-04  1044   0.647E-02    0.830E-02
RMM:   4    -0.134750949504E+03    0.11295E-03   -0.13921E-04  1012   0.420E-02    0.361E-02
RMM:   5    -0.134750957836E+03   -0.83325E-05   -0.56519E-05   733   0.262E-02
 109 F= -.13475096E+03 E0= -.13474751E+03  d E =-.856249E-03
quench:  g(F)=  0.000E+00 g(S)=  0.000E+00 dE (1.order)= 0.000E+00
 bond charge predicted
       N       E                     dE             d eps       ncg     rms          rms(c)
DAV:   1    -0.134751558828E+03   -0.60932E-03   -0.39469E-02  1089   0.356E-01    0.638E-02
RMM:   2    -0.134751701391E+03   -0.14256E-03   -0.18626E-03  1340   0.798E-02    0.388E-02
RMM:   3    -0.134751676803E+03    0.24588E-04   -0.12950E-04   867   0.268E-02    0.341E-02
RMM:   4    -0.134751677052E+03   -0.24943E-06   -0.43416E-05   713   0.273E-02
 110 F= -.13475168E+03 E0= -.13474822E+03  d E =-.719216E-03
quench:  g(F)=  0.000E+00 g(S)=  0.000E+00 dE (1.order)= 0.000E+00
 bond charge predicted
       N       E                     dE             d eps       ncg     rms          rms(c)
DAV:   1    -0.134752368140E+03   -0.69134E-03   -0.70048E-02  1017   0.511E-01    0.719E-02
RMM:   2    -0.134752619747E+03   -0.25161E-03   -0.28719E-03  1471   0.107E-01    0.354E-02
RMM:   3    -0.134752659712E+03   -0.39964E-04   -0.19943E-04  1070   0.357E-02    0.587E-02
RMM:   4    -0.134752573849E+03    0.85863E-04   -0.43163E-05   735   0.269E-02    0.177E-02
RMM:   5    -0.134752584707E+03   -0.10858E-04   -0.20863E-05   580   0.192E-02    0.159E-02
[...]
RMM:   2    -0.135284975741E+03   -0.26637E-03   -0.30952E-03  1544   0.117E-01    0.409E-02
RMM:   3    -0.135285021759E+03   -0.46019E-04   -0.24235E-04  1059   0.462E-02    0.611E-02
RMM:   4    -0.135284938311E+03    0.83448E-04   -0.62303E-05   909   0.315E-02    0.227E-02
RMM:   5    -0.135284947075E+03   -0.87641E-05   -0.32310E-05   659   0.245E-02
 671 F= -.13528495E+03 E0= -.13528800E+03  d E =-.341758E-03
quench:  g(F)=  0.000E+00 g(S)=  0.000E+00 dE (1.order)= 0.000E+00
 bond charge predicted
       N       E                     dE             d eps       ncg     rms          rms(c)
DAV:   1    -0.135285060457E+03   -0.12215E-03   -0.88116E-02  1008   0.512E-01    0.101E-01
RMM:   2    -0.135285378121E+03   -0.31766E-03   -0.43764E-03  1405   0.124E-01    0.633E-02
RMM:   3    -0.135285309622E+03    0.68499E-04   -0.30234E-04  1116   0.396E-02    0.455E-02
RMM:   4    -0.135285324838E+03   -0.15217E-04   -0.10018E-04   989   0.370E-02    0.454E-02
RMM:   5    -0.135285297418E+03    0.27420E-04   -0.44467E-05   760   0.270E-02    0.236E-02
RMM:   6    -0.135285294564E+03    0.28546E-05   -0.35906E-05   699   0.276E-02
 672 F= -.13528529E+03 E0= -.13528836E+03  d E =-.347488E-03
quench:  g(F)=  0.000E+00 g(S)=  0.000E+00 dE (1.order)= 0.000E+00
 bond charge predicted
       N       E                     dE             d eps       ncg     rms          rms(c)
DAV:   1    -0.135285460947E+03   -0.16353E-03   -0.47691E-02  1026   0.372E-01    0.762E-02
RMM:   2    -0.135285641789E+03   -0.18084E-03   -0.23376E-03  1616   0.881E-02    0.450E-02
RMM:   3    -0.135285615641E+03    0.26147E-04   -0.16129E-04   916   0.294E-02    0.257E-02
RMM:   4    -0.135285627195E+03   -0.11553E-04   -0.46962E-05   775   0.275E-02    0.290E-02
RMM:   5    -0.135285611135E+03    0.16060E-04   -0.20102E-05   577   0.211E-02    0.118E-02
RMM:   6    -0.135285609593E+03    0.15419E-05   -0.97451E-06   552   0.136E-02
 673 F= -.13528561E+03 E0= -.13528868E+03  d E =-.315029E-03
quench:  g(F)=  0.000E+00 g(S)=  0.000E+00 dE (1.order)= 0.000E+00
 bond charge predicted
       N       E                     dE             d eps       ncg     rms          rms(c)
DAV:   1    -0.135285774032E+03   -0.16290E-03   -0.14101E-02  1044   0.201E-01    0.433E-02
RMM:   2    -0.135285829172E+03   -0.55139E-04   -0.77054E-04  1262   0.509E-02    0.283E-02
RMM:   3    -0.135285813124E+03    0.16047E-04   -0.44381E-05   656   0.171E-02    0.176E-02
RMM:   4    -0.135285818729E+03   -0.56046E-05   -0.26219E-05   602   0.231E-02
 674 F= -.13528582E+03 E0= -.13528890E+03  d E =-.209136E-03
quench:  g(F)=  0.000E+00 g(S)=  0.000E+00 dE (1.order)= 0.000E+00
 bond charge predicted
       N       E                     dE             d eps       ncg     rms          rms(c)
DAV:   1    -0.135285913842E+03   -0.10072E-03   -0.32471E-02  1026   0.356E-01    0.547E-02
RMM:   2    -0.135286046153E+03   -0.13231E-03   -0.14855E-03  1444   0.821E-02    0.282E-02
RMM:   3    -0.135286057287E+03   -0.11134E-04   -0.11013E-04   956   0.322E-02    0.407E-02
RMM:   4    -0.135286019649E+03    0.37637E-04   -0.27034E-05   592   0.233E-02    0.152E-02
RMM:   5    -0.135286023726E+03   -0.40763E-05   -0.15449E-05   553   0.180E-02
 675 F= -.13528602E+03 E0= -.13528911E+03  d E =-.204997E-03
quench:  g(F)=  0.000E+00 g(S)=  0.000E+00 dE (1.order)= 0.000E+00
 bond charge predicted
       N       E                     dE             d eps       ncg     rms          rms(c)
DAV:   1    -0.135286148338E+03   -0.12869E-03   -0.64608E-02  1008   0.453E-01    0.773E-02
RMM:   2    -0.135286377582E+03   -0.22924E-03   -0.29333E-03  1414   0.106E-01    0.403E-02
RMM:   3    -0.135286331551E+03    0.46030E-04   -0.14427E-04   962   0.284E-02    0.292E-02
RMM:   4    -0.135286339881E+03   -0.83299E-05   -0.46479E-05   769   0.274E-02
 676 F= -.13528634E+03 E0= -.13528944E+03  d E =-.316155E-03
quench:  g(F)=  0.000E+00 g(S)=  0.000E+00 dE (1.order)= 0.000E+00
 bond charge predicted
       N       E                     dE             d eps       ncg     rms          rms(c)
DAV:   1    -0.135286301441E+03    0.30110E-04   -0.98698E-02  1026   0.596E-01    0.963E-02
RMM:   2    -0.135286706152E+03   -0.40471E-03   -0.44039E-03  1551   0.136E-01    0.596E-02
RMM:   3    -0.135286748594E+03   -0.42442E-04   -0.38764E-04  1066   0.580E-02    0.761E-02
RMM:   4    -0.135286624649E+03    0.12395E-03   -0.10925E-04  1001   0.412E-02    0.289E-02
RMM:   5    -0.135286629849E+03   -0.51998E-05   -0.50084E-05   785   0.296E-02
 677 F= -.13528663E+03 E0= -.13528973E+03  d E =-.289967E-03
quench:  g(F)=  0.000E+00 g(S)=  0.000E+00 dE (1.order)= 0.000E+00
 bond charge predicted
       N       E                     dE             d eps       ncg     rms          rms(c)
DAV:   1    -0.135286854213E+03   -0.22956E-03   -0.37898E-02  1026   0.331E-01    0.775E-02
RMM:   2    -0.135287015170E+03   -0.16096E-03   -0.22866E-03  1416   0.813E-02    0.519E-02
RMM:   3    -0.135286977785E+03    0.37385E-04   -0.15558E-04  1007   0.312E-02    0.400E-02
RMM:   4    -0.135286973491E+03    0.42943E-05   -0.64229E-05   902   0.310E-02
 678 F= -.13528697E+03 E0= -.13529009E+03  d E =-.343642E-03
quench:  g(F)=  0.000E+00 g(S)=  0.000E+00 dE (1.order)= 0.000E+00
 bond charge predicted
       N       E                     dE             d eps       ncg     rms          rms(c)
DAV:   1    -0.135287064164E+03   -0.86379E-04   -0.14059E-02  1233   0.295E-01    0.361E-02
RMM:   2    -0.135287128973E+03   -0.64809E-04   -0.72733E-04  1373   0.570E-02    0.223E-02
RMM:   3    -0.135287121829E+03    0.71439E-05   -0.58499E-05   794   0.277E-02
 679 F= -.13528712E+03 E0= -.13529024E+03  d E =-.148338E-03
quench:  g(F)=  0.000E+00 g(S)=  0.000E+00 dE (1.order)= 0.000E+00
 bond charge predicted
       N       E                     dE             d eps       ncg     rms          rms(c)
DAV:   1    -0.135287204369E+03   -0.75396E-04   -0.27549E-02  1044   0.326E-01    0.528E-02
RMM:   2    -0.135287326617E+03   -0.12225E-03   -0.13419E-03  1327   0.756E-02    0.319E-02
RMM:   3    -0.135287332322E+03   -0.57053E-05   -0.11509E-04  1005   0.308E-02    0.429E-02
RMM:   4    -0.135287291282E+03    0.41040E-04   -0.25432E-05   601   0.218E-02    0.157E-02
RMM:   5    -0.135287297353E+03   -0.60709E-05   -0.16786E-05   558   0.182E-02
 680 F= -.13528730E+03 E0= -.13529042E+03  d E =-.175524E-03
quench:  g(F)=  0.000E+00 g(S)=  0.000E+00 dE (1.order)= 0.000E+00
 bond charge predicted
       N       E                     dE             d eps       ncg     rms          rms(c)
DAV:   1    -0.135287392625E+03   -0.10134E-03   -0.64573E-02  1008   0.461E-01    0.753E-02
RMM:   2    -0.135287612574E+03   -0.21995E-03   -0.26056E-03  1573   0.106E-01    0.301E-02
RMM:   3    -0.135287591113E+03    0.21461E-04   -0.10514E-04   865   0.293E-02    0.215E-02
RMM:   4    -0.135287594967E+03   -0.38537E-05   -0.40216E-05   701   0.279E-02
 681 F= -.13528759E+03 E0= -.13529074E+03  d E =-.297614E-03
quench:  g(F)=  0.000E+00 g(S)=  0.000E+00 dE (1.order)= 0.000E+00
 bond charge predicted
       N       E                     dE             d eps       ncg     rms          rms(c)
DAV:   1    -0.135287670205E+03   -0.79092E-04   -0.79127E-02  1008   0.485E-01    0.948E-02
RMM:   2    -0.135287951421E+03   -0.28122E-03   -0.38549E-03  1408   0.115E-01    0.573E-02
RMM:   3    -0.135287887540E+03    0.63881E-04   -0.23926E-04  1077   0.314E-02    0.391E-02
RMM:   4    -0.135287916017E+03   -0.28477E-04   -0.79147E-05   955   0.316E-02    0.429E-02
RMM:   5    -0.135287880478E+03    0.35539E-04   -0.35396E-05   660   0.257E-02    0.181E-02
RMM:   6    -0.135287880223E+03    0.25498E-06   -0.27222E-05   604   0.239E-02
 682 F= -.13528788E+03 E0= -.13529104E+03  d E =-.285257E-03
quench:  g(F)=  0.000E+00 g(S)=  0.000E+00 dE (1.order)= 0.000E+00
 bond charge predicted
       N       E                     dE             d eps       ncg     rms          rms(c)
DAV:   1    -0.135288016932E+03   -0.13645E-03   -0.40987E-02  1026   0.344E-01    0.708E-02
RMM:   2    -0.135288178748E+03   -0.16182E-03   -0.20431E-03  1584   0.831E-02    0.438E-02
RMM:   3    -0.135288152727E+03    0.26021E-04   -0.14877E-04   922   0.344E-02    0.271E-02
RMM:   4    -0.135288150056E+03    0.26707E-05   -0.60029E-05   826   0.322E-02
 683 F= -.13528815E+03 E0= -.13529129E+03  d E =-.269833E-03
quench:  g(F)=  0.000E+00 g(S)=  0.000E+00 dE (1.order)= 0.000E+00
 bond charge predicted
       N       E                     dE             d eps       ncg     rms          rms(c)
DAV:   1    -0.135288267108E+03   -0.11438E-03   -0.11434E-02  1161   0.216E-01    0.372E-02
RMM:   2    -0.135288313984E+03   -0.46876E-04   -0.58576E-04  1155   0.476E-02    0.243E-02
RMM:   3    -0.135288315452E+03   -0.14677E-05   -0.45641E-05   702   0.214E-02
 684 F= -.13528832E+03 E0= -.13529148E+03  d E =-.165396E-03
quench:  g(F)=  0.000E+00 g(S)=  0.000E+00 dE (1.order)= 0.000E+00
 bond charge predicted
       N       E                     dE             d eps       ncg     rms          rms(c)
DAV:   1    -0.135288361783E+03   -0.47799E-04   -0.27052E-02  1080   0.356E-01    0.519E-02
RMM:   2    -0.135288475687E+03   -0.11390E-03   -0.12853E-03  1422   0.753E-02    0.242E-02
RMM:   3    -0.135288477970E+03   -0.22834E-05   -0.62016E-05   737   0.206E-02
 685 F= -.13528848E+03 E0= -.13529164E+03  d E =-.162518E-03
quench:  g(F)=  0.000E+00 g(S)=  0.000E+00 dE (1.order)= 0.000E+00
 bond charge predicted
       N       E                     dE             d eps       ncg     rms          rms(c)
DAV:   1    -0.135288531402E+03   -0.55715E-04   -0.53993E-02  1035   0.459E-01    0.757E-02
RMM:   2    -0.135288750758E+03   -0.21936E-03   -0.26504E-03  1367   0.104E-01    0.396E-02
RMM:   3    -0.135288724333E+03    0.26426E-04   -0.13427E-04  1019   0.260E-02    0.346E-02
RMM:   4    -0.135288722291E+03    0.20416E-05   -0.46635E-05   772   0.271E-02
 686 F= -.13528872E+03 E0= -.13529190E+03  d E =-.244321E-03
quench:  g(F)=  0.000E+00 g(S)=  0.000E+00 dE (1.order)= 0.000E+00
 bond charge predicted
       N       E                     dE             d eps       ncg     rms          rms(c)
DAV:   1    -0.135288657417E+03    0.66916E-04   -0.83953E-02  1008   0.543E-01    0.876E-02
RMM:   2    -0.135288968394E+03   -0.31098E-03   -0.36065E-03  1564   0.124E-01    0.431E-02
RMM:   3    -0.135288942253E+03    0.26141E-04   -0.22282E-04  1056   0.463E-02    0.327E-02
RMM:   4    -0.135288940557E+03    0.16959E-05   -0.68302E-05   891   0.354E-02
 687 F= -.13528894E+03 E0= -.13529213E+03  d E =-.218266E-03
quench:  g(F)=  0.000E+00 g(S)=  0.000E+00 dE (1.order)= 0.000E+00
 bond charge predicted
       N       E                     dE             d eps       ncg     rms          rms(c)
DAV:   1    -0.135289091048E+03   -0.14879E-03   -0.32931E-02  1053   0.330E-01    0.734E-02
RMM:   2    -0.135289262143E+03   -0.17109E-03   -0.19760E-03  1277   0.835E-02    0.588E-02
RMM:   3    -0.135289273121E+03   -0.10978E-04   -0.19781E-04  1048   0.432E-02    0.566E-02
RMM:   4    -0.135289209646E+03    0.63475E-04   -0.60332E-05   840   0.289E-02    0.238E-02
RMM:   5    -0.135289208580E+03    0.10659E-05   -0.22980E-05   588   0.199E-02
 688 F= -.13528921E+03 E0= -.13529240E+03  d E =-.268022E-03
quench:  g(F)=  0.000E+00 g(S)=  0.000E+00 dE (1.order)= 0.000E+00
 bond charge predicted
       N       E                     dE             d eps       ncg     rms          rms(c)
DAV:   1    -0.135289292793E+03   -0.83147E-04   -0.13045E-02  1080   0.230E-01    0.353E-02
RMM:   2    -0.135289346271E+03   -0.53479E-04   -0.62163E-04  1408   0.523E-02    0.185E-02
RMM:   3    -0.135289343304E+03    0.29674E-05   -0.33693E-05   633   0.184E-02
 689 F= -.13528934E+03 E0= -.13529255E+03  d E =-.134724E-03
quench:  g(F)=  0.000E+00 g(S)=  0.000E+00 dE (1.order)= 0.000E+00
 bond charge predicted
       N       E                     dE             d eps       ncg     rms          rms(c)
DAV:   1    -0.135289412384E+03   -0.66112E-04   -0.22994E-02  1062   0.309E-01    0.477E-02
RMM:   2    -0.135289524038E+03   -0.11165E-03   -0.11430E-03  1303   0.707E-02    0.314E-02
RMM:   3    -0.135289522909E+03    0.11290E-05   -0.10358E-04   982   0.294E-02    0.405E-02
RMM:   4    -0.135289486679E+03    0.36230E-04   -0.21821E-05   578   0.207E-02    0.135E-02
RMM:   5    -0.135289491784E+03   -0.51052E-05   -0.11916E-05   550   0.147E-02
 690 F= -.13528949E+03 E0= -.13529269E+03  d E =-.148481E-03
quench:  g(F)=  0.000E+00 g(S)=  0.000E+00 dE (1.order)= 0.000E+00
 bond charge predicted
       N       E                     dE             d eps       ncg     rms          rms(c)
DAV:   1    -0.135289553667E+03   -0.66987E-04   -0.53363E-02  1008   0.419E-01    0.688E-02
RMM:   2    -0.135289738082E+03   -0.18442E-03   -0.21445E-03  1590   0.956E-02    0.279E-02
RMM:   3    -0.135289721432E+03    0.16650E-04   -0.91679E-05   801   0.268E-02    0.206E-02
RMM:   4    -0.135289724342E+03   -0.29097E-05   -0.34572E-05   653   0.261E-02
 691 F= -.13528972E+03 E0= -.13529295E+03  d E =-.232557E-03
quench:  g(F)=  0.000E+00 g(S)=  0.000E+00 dE (1.order)= 0.000E+00
 bond charge predicted
       N       E                     dE             d eps       ncg     rms          rms(c)
DAV:   1    -0.135289750695E+03   -0.29263E-04   -0.60765E-02  1008   0.435E-01    0.859E-02
RMM:   2    -0.135289958360E+03   -0.20767E-03   -0.31243E-03  1382   0.105E-01    0.577E-02
RMM:   3    -0.135289933909E+03    0.24451E-04   -0.25090E-04  1086   0.405E-02    0.550E-02
RMM:   4    -0.135289888261E+03    0.45649E-04   -0.74835E-05   927   0.316E-02    0.331E-02
RMM:   5    -0.135289883857E+03    0.44037E-05   -0.34241E-05   667   0.244E-02
 692 F= -.13528988E+03 E0= -.13529311E+03  d E =-.159516E-03
quench:  g(F)=  0.000E+00 g(S)=  0.000E+00 dE (1.order)= 0.000E+00
 bond charge predicted
       N       E                     dE             d eps       ncg     rms          rms(c)
DAV:   1    -0.135289993365E+03   -0.10510E-03   -0.29925E-02  1026   0.322E-01    0.593E-02
RMM:   2    -0.135290113917E+03   -0.12055E-03   -0.14929E-03  1546   0.738E-02    0.345E-02
RMM:   3    -0.135290105736E+03    0.81802E-05   -0.94374E-05   801   0.223E-02
 693 F= -.13529011E+03 E0= -.13529334E+03  d E =-.221879E-03
quench:  g(F)=  0.000E+00 g(S)=  0.000E+00 dE (1.order)= 0.000E+00
 bond charge predicted
       N       E                     dE             d eps       ncg     rms          rms(c)
DAV:   1    -0.135290170918E+03   -0.57001E-04   -0.11546E-02  1332   0.330E-01    0.392E-02
RMM:   2    -0.135290342605E+03   -0.17169E-03   -0.64805E-04  1120   0.685E-02    0.669E-02
RMM:   3    -0.135290199120E+03    0.14349E-03   -0.11112E-04  1006   0.346E-02    0.198E-02
RMM:   4    -0.135290199992E+03   -0.87245E-06   -0.10704E-05   569   0.121E-02
 694 F= -.13529020E+03 E0= -.13529344E+03  d E =-.942557E-04
quench:  g(F)=  0.000E+00 g(S)=  0.000E+00 dE (1.order)= 0.000E+00
 bond charge predicted
       N       E                     dE             d eps       ncg     rms          rms(c)
DAV:   1    -0.135290270167E+03   -0.71047E-04   -0.28027E-02  1008   0.305E-01    0.509E-02
RMM:   2    -0.135290365060E+03   -0.94893E-04   -0.11037E-03  1564   0.679E-02    0.213E-02
RMM:   3    -0.135290357944E+03    0.71167E-05   -0.38747E-05   662   0.172E-02
 695 F= -.13529036E+03 E0= -.13529360E+03  d E =-.157951E-03
quench:  g(F)=  0.000E+00 g(S)=  0.000E+00 dE (1.order)= 0.000E+00
 bond charge predicted
       N       E                     dE             d eps       ncg     rms          rms(c)
DAV:   1    -0.135290415358E+03   -0.50298E-04   -0.46730E-02  1008   0.390E-01    0.710E-02
RMM:   2    -0.135290606377E+03   -0.19102E-03   -0.22634E-03  1393   0.932E-02    0.461E-02
RMM:   3    -0.135290608529E+03   -0.21525E-05   -0.18793E-04  1073   0.345E-02    0.525E-02
RMM:   4    -0.135290553122E+03    0.55408E-04   -0.45361E-05   742   0.260E-02    0.242E-02
RMM:   5    -0.135290558901E+03   -0.57799E-05   -0.16578E-05   566   0.175E-02
 696 F= -.13529056E+03 E0= -.13529381E+03  d E =-.200958E-03
quench:  g(F)=  0.000E+00 g(S)=  0.000E+00 dE (1.order)= 0.000E+00
 bond charge predicted
       N       E                     dE             d eps       ncg     rms          rms(c)
DAV:   1    -0.135290514386E+03    0.38736E-04   -0.56562E-02  1008   0.419E-01    0.741E-02
RMM:   2    -0.135290726068E+03   -0.21168E-03   -0.25232E-03  1637   0.963E-02    0.407E-02
RMM:   3    -0.135290703873E+03    0.22195E-04   -0.15789E-04   930   0.313E-02    0.283E-02
RMM:   4    -0.135290699959E+03    0.39135E-05   -0.52728E-05   830   0.305E-02
 697 F= -.13529070E+03 E0= -.13529396E+03  d E =-.141058E-03
quench:  g(F)=  0.000E+00 g(S)=  0.000E+00 dE (1.order)= 0.000E+00
 bond charge predicted
       N       E                     dE             d eps       ncg     rms          rms(c)
DAV:   1    -0.135290840172E+03   -0.13630E-03   -0.18392E-02  1071   0.248E-01    0.523E-02
RMM:   2    -0.135290919260E+03   -0.79089E-04   -0.10754E-03  1298   0.598E-02    0.345E-02
RMM:   3    -0.135290904762E+03    0.14498E-04   -0.71710E-05   794   0.243E-02    0.301E-02
RMM:   4    -0.135290898232E+03    0.65309E-05   -0.31395E-05   626   0.247E-02
 698 F= -.13529090E+03 E0= -.13529416E+03  d E =-.198272E-03
quench:  g(F)=  0.000E+00 g(S)=  0.000E+00 dE (1.order)= 0.000E+00
 bond charge predicted
       N       E                     dE             d eps       ncg     rms          rms(c)
DAV:   1    -0.135290956037E+03   -0.51275E-04   -0.19936E-02  1053   0.290E-01    0.431E-02
RMM:   2    -0.135291035167E+03   -0.79130E-04   -0.90638E-04  1462   0.648E-02    0.196E-02
RMM:   3    -0.135291031287E+03    0.38808E-05   -0.46306E-05   711   0.230E-02
 699 F= -.13529103E+03 E0= -.13529430E+03  d E =-.133055E-03
quench:  g(F)=  0.000E+00 g(S)=  0.000E+00 dE (1.order)= 0.000E+00
 bond charge predicted
       N       E                     dE             d eps       ncg     rms          rms(c)
DAV:   1    -0.135291089522E+03   -0.54354E-04   -0.38896E-02  1026   0.382E-01    0.632E-02
RMM:   2    -0.135291251099E+03   -0.16158E-03   -0.18813E-03  1327   0.908E-02    0.373E-02
RMM:   3    -0.135291254310E+03   -0.32104E-05   -0.14433E-04  1014   0.350E-02    0.457E-02
RMM:   4    -0.135291213624E+03    0.40685E-04   -0.36726E-05   681   0.253E-02    0.207E-02
RMM:   5    -0.135291219108E+03   -0.54835E-05   -0.18448E-05   558   0.191E-02
 700 F= -.13529122E+03 E0= -.13529450E+03  d E =-.187821E-03
quench:  g(F)=  0.000E+00 g(S)=  0.000E+00 dE (1.order)= 0.000E+00
 bond charge predicted
       N       E                     dE             d eps       ncg     rms          rms(c)
DAV:   1    -0.135291184199E+03    0.29425E-04   -0.65573E-02  1008   0.466E-01    0.762E-02
RMM:   2    -0.135291425176E+03   -0.24098E-03   -0.27634E-03  1631   0.106E-01    0.350E-02
RMM:   3    -0.135291411514E+03    0.13661E-04   -0.15820E-04   905   0.276E-02    0.282E-02
RMM:   4    -0.135291412523E+03   -0.10083E-05   -0.39774E-05   717   0.253E-02
 701 F= -.13529141E+03 E0= -.13529470E+03  d E =-.193415E-03
quench:  g(F)=  0.000E+00 g(S)=  0.000E+00 dE (1.order)= 0.000E+00
 bond charge predicted
       N       E                     dE             d eps       ncg     rms          rms(c)
DAV:   1    -0.135291494086E+03   -0.82571E-04   -0.31872E-02  1116   0.340E-01    0.690E-02
RMM:   2    -0.135291631547E+03   -0.13746E-03   -0.18722E-03  1322   0.763E-02    0.449E-02
RMM:   3    -0.135291597186E+03    0.34361E-04   -0.12383E-04   922   0.289E-02    0.346E-02
RMM:   4    -0.135291599358E+03   -0.21729E-05   -0.54796E-05   836   0.299E-02
 702 F= -.13529160E+03 E0= -.13529489E+03  d E =-.186836E-03
quench:  g(F)=  0.000E+00 g(S)=  0.000E+00 dE (1.order)= 0.000E+00
 bond charge predicted
       N       E                     dE             d eps       ncg     rms          rms(c)
