 vasp.5.4.4.18Apr17-6-g9f103f2a35 (build Feb 06 2024 13:54:16) complex          
  
 POSCAR found type information on POSCAR  Cu Rh Cu N  O 
 02/POSCAR found :  5 types and      40 ions
 scaLAPACK will be used

 ----------------------------------------------------------------------------- 
|                                                                             |
|  ADVICE TO THIS USER RUNNING 'VASP/VAMP'   (HEAR YOUR MASTER'S VOICE ...):  |
|                                                                             |
|      You enforced a specific xc-type in the INCAR file,                     |
|      a different type was found on the POTCAR file                          |
|          I HOPE YOU KNOW, WHAT YOU ARE  DOING                               |
|                                                                             |
 ----------------------------------------------------------------------------- 

 LDA part: xc-table for Pade appr. of Perdew
 POSCAR found type information on POSCAR  Cu Rh Cu N  O 
 00/POSCAR found :  5 types and      40 ions
 POSCAR found type information on POSCAR  Cu Rh Cu N  O 
 06/POSCAR found :  5 types and      40 ions
 Jacobian:    20.5888137679208     
 POSCAR, INCAR and KPOINTS ok, starting setup
 FFT: planning ...
 WAVECAR not read
 entering main loop
       N       E                     dE             d eps       ncg     rms          rms(c)
  Solvation turned off during non-self-consistent phase (first NELMDL steps)
DAV:   1     0.437542223290E+04    0.43754E+04   -0.18118E+05  4080   0.203E+03
DAV:   2     0.634161718712E+03   -0.37413E+04   -0.36125E+04  4116   0.473E+02
DAV:   3    -0.230165443803E+02   -0.65718E+03   -0.60612E+03  4836   0.235E+02
DAV:   4    -0.148949335879E+03   -0.12593E+03   -0.11092E+03  7269   0.942E+01
DAV:   5    -0.162125493660E+03   -0.13176E+02   -0.12981E+02  6189   0.311E+01    0.428E+01
 Begin Solvation calculations
  rms_SCF =    4.81529204241934      tol =   0.481529204241934     
 Begin minimization
 Creating dielectric and ionic cavities
  area:      172.501738504979     
  volume:    691.417801206520     
  Acav:     9.056341271511383E-002
  Solving linear dielectric/ionic screening model
        iter                  A_solv                     rms
   LPB:       -0.337343224921194E+03   0.222015896874183E+03
   LPB:    0  -0.666425179949812E+01   0.291331012612343E+02  -0.452641E+01   0.000000E+00   0.322796E+02  -0.146111E+03
   LPB:    1  -0.136875627458181E+01   0.666728926580008E+01   0.110624E-01   0.000000E+00   0.991097E+02   0.870801E-14
   LPB:    2  -0.585017797580804E+00   0.107603478498776E+01   0.139481E-01   0.117381E+00   0.342164E+03   0.469204E-14
   LPB:    3  -0.357381563831609E+00   0.856291312417615E+00   0.278145E-01   0.145652E+00   0.609574E+03   0.790710E-14
   LPB:    4  -0.279442122943237E+00   0.765841961964447E+00   0.291124E-01   0.327122E+00   0.114809E+03   0.985451E-14
   LPB:    5  -0.247104380959229E+00   0.762553151993958E+00   0.243718E-01   0.495613E+00   0.483591E+03   0.206027E-13
   LPB:    6  -0.226992697034063E+00   0.292516913374817E+00   0.263625E-01   0.574964E+00   0.863812E+02   0.252392E-13
  Finished solving LPB equations
  A_corr:   -0.136429284318950     
 End minimization
 Ecorr=   1795.39443538003     
 A_corr= -0.136429284318950     
 Ecorr_band=  -1795.53086466435     
 End Solvation calculations
RMM:   6    -0.166631734524E+03   -0.45062E+01   -0.34240E+02  4175   0.909E+01    0.430E+01
 Begin Solvation calculations
  rms_SCF =    4.81529204241934      tol =   0.481529204241934     
 Begin minimization
 Creating dielectric and ionic cavities
  area:      177.149460095858     
  volume:    697.644067909443     
  Acav:     9.300346655032560E-002
  Solving linear dielectric/ionic screening model
        iter                  A_solv                     rms
   LPB:       -0.998283437385187E+01   0.548660296610284E+02
   LPB:    0  -0.981796767906908E+01   0.544969822760178E+02   0.101529E+00   0.000000E+00   0.319877E+02   0.324768E+01
   LPB:    1  -0.101632960668479E+01   0.504790885358339E+01   0.891593E-02   0.000000E+00   0.745215E+02   0.600651E-16
   LPB:    2  -0.365287310272159E+00   0.117192306018934E+01   0.165652E-01   0.398121E-01   0.126280E+03   0.352662E-14
   LPB:    3  -0.273426891459783E+00   0.630429332995368E+00   0.229372E-01   0.101901E+00   0.135307E+03   0.261830E-14
   LPB:    4  -0.243553418766378E+00   0.636267447006996E+00   0.255069E-01   0.292441E+00   0.282488E+03   0.905655E-14
   LPB:    5  -0.229479790698759E+00   0.313481646622076E+00   0.240130E-01   0.500418E+00   0.102513E+03   0.120729E-13
  Finished solving LPB equations
  A_corr:   -0.136476324148434     
 End minimization
 Ecorr=   1738.49958340303     
 A_corr= -0.136476324148434     
 Ecorr_band=  -1738.63605972718     
 End Solvation calculations
RMM:   7    -0.154496805984E+03    0.12135E+02   -0.12804E+02  4218   0.442E+01    0.255E+01
 Begin Solvation calculations
  rms_SCF =    4.81529204241934      tol =   0.481529204241934     
 Begin minimization
 Creating dielectric and ionic cavities
  area:      174.366326322742     
  volume:    701.180440030154     
  Acav:     9.154232131943964E-002
  Solving linear dielectric/ionic screening model
        iter                  A_solv                     rms
   LPB:       -0.414660391227144E+01   0.344206092355787E+02
   LPB:    0  -0.410098534902846E+01   0.343156981289398E+02   0.535454E-01   0.000000E+00   0.318219E+02   0.170392E+01
   LPB:    1  -0.558640150275859E+00   0.324884967724562E+01   0.908850E-02   0.000000E+00   0.728360E+02   0.912070E-16
   LPB:    2  -0.272878248467802E+00   0.510887183209984E+00   0.160481E-01   0.456858E-01   0.139297E+03  -0.401264E-15
   LPB:    3  -0.229678286522691E+00   0.208275968586960E+00   0.236664E-01   0.102511E+00   0.296758E+03  -0.139331E-15
   LPB:    4  -0.218253664914439E+00   0.221412195005672E+00   0.277140E-01   0.225835E+00   0.379169E+03  -0.109936E-15
  Finished solving LPB equations
  A_corr:   -0.126711343595000     
 End minimization
 Ecorr=   1705.70515078367     
 A_corr= -0.126711343595000     
 Ecorr_band=  -1705.83186212726     
 End Solvation calculations
RMM:   8    -0.141566746784E+03    0.12930E+02   -0.87412E+00  4180   0.120E+01    0.162E+01
 Begin Solvation calculations
  rms_SCF =    3.95117350540542      tol =   0.395117350540542     
 Begin minimization
 Creating dielectric and ionic cavities
  area:      163.418523112845     
  volume:    700.425995388154     
  Acav:     8.579472463424369E-002
  Solving linear dielectric/ionic screening model
        iter                  A_solv                     rms
   LPB:       -0.804265792642114E+00   0.121515730001931E+02
   LPB:    0  -0.804230185039785E+00   0.121645414871194E+02   0.149514E-02   0.000000E+00   0.318573E+02   0.476311E-01
   LPB:    1  -0.330536625036250E+00   0.149713172428410E+01   0.931533E-02   0.000000E+00   0.717508E+02  -0.858967E-18
   LPB:    2  -0.262765339334233E+00   0.304529235561310E+00   0.193128E-01   0.690082E-01   0.942996E+02   0.194688E-14
   LPB:    3  -0.249915735448015E+00   0.305364194989981E+00   0.247278E-01   0.148083E+00   0.321088E+03   0.663586E-14
   LPB:    4  -0.243638091884746E+00   0.217164385188352E+00   0.303182E-01   0.398465E+00   0.652781E+02   0.748132E-14
  Finished solving LPB equations
  A_corr:   -0.157843367250502     
 End minimization
 Ecorr=   1663.88614745956     
 A_corr= -0.157843367250502     
 Ecorr_band=  -1664.04399082681     
 End Solvation calculations
RMM:   9    -0.138173448441E+03    0.33933E+01   -0.89402E+00  4186   0.117E+01    0.102E+01
 Begin Solvation calculations
  rms_SCF =    3.95117350540542      tol =   0.395117350540542     
 Begin minimization
 Creating dielectric and ionic cavities
  area:      153.233121969453     
  volume:    699.700291304809     
  Acav:     8.044738903396279E-002
  Solving linear dielectric/ionic screening model
        iter                  A_solv                     rms
   LPB:       -0.168231606084029E+01   0.202704365437638E+02
   LPB:    0  -0.166423429604536E+01   0.202522099266385E+02   0.336743E-01   0.000000E+00   0.318913E+02   0.107392E+01
   LPB:    1  -0.404691592593092E+00   0.185632705019915E+01   0.910082E-02   0.000000E+00   0.741146E+02   0.308972E-16
   LPB:    2  -0.307389802533078E+00   0.307636071082508E+00   0.155944E-01   0.450838E-01   0.154691E+03  -0.150888E-14
   LPB:    3  -0.291179872349457E+00   0.163536262126780E+00   0.254098E-01   0.102242E+00   0.265520E+03  -0.524511E-14
   LPB:    4  -0.284274625912957E+00   0.146078946342348E+00   0.347665E-01   0.311342E+00   0.185901E+03  -0.530926E-14
  Finished solving LPB equations
  A_corr:   -0.203827236878995     
 End minimization
 Ecorr=   1631.86061934844     
 A_corr= -0.203827236878995     
 Ecorr_band=  -1632.06444658532     
 End Solvation calculations
RMM:  10    -0.135663120783E+03    0.25103E+01   -0.43863E+00  4195   0.697E+00    0.681E+00
 Begin Solvation calculations
  rms_SCF =    1.06833767210446      tol =   0.106833767210446     
 Begin minimization
 Creating dielectric and ionic cavities
  area:      150.139907419665     
  volume:    697.412846734684     
  Acav:     7.882345139532436E-002
  Solving linear dielectric/ionic screening model
        iter                  A_solv                     rms
   LPB:       -0.323748324312891E+00   0.194676347929247E+01
   LPB:    0  -0.323418744885628E+00   0.183859076872414E+01  -0.453868E-02   0.000000E+00   0.319986E+02  -0.145231E+00
   LPB:    1  -0.302119915378960E+00   0.480279424343708E+00   0.115575E-01   0.000000E+00   0.821642E+02   0.118459E-16
   LPB:    2  -0.298281852285928E+00   0.146575994253648E+00   0.162588E-01   0.128095E+00   0.168049E+03   0.284383E-14
   LPB:    3  -0.293270340276950E+00   0.305455485387163E+00   0.553315E-01   0.383683E+00   0.110455E+03   0.366658E-14
   LPB:    4  -0.288960396541039E+00   0.323938735961984E+00   0.286794E-01   0.165922E+01   0.343056E+02   0.519287E-14
   LPB:    5  -0.285934299745789E+00   0.114111793680235E+00   0.259688E-01   0.775408E+00   0.139412E+03   0.663641E-14
   LPB:    6  -0.284423502093014E+00   0.440516752194194E-01   0.318579E-01   0.406965E+00   0.956367E+02   0.905048E-14
  Finished solving LPB equations
  A_corr:   -0.205600050697689     
 End minimization
 Ecorr=   1603.02742989592     
 A_corr= -0.205600050697689     
 Ecorr_band=  -1603.23302994662     
 End Solvation calculations
RMM:  11    -0.135449882608E+03    0.21324E+00   -0.61095E-01  4259   0.240E+00    0.370E+00
 Begin Solvation calculations
  rms_SCF =   0.593692521693227      tol =   5.936925216932269E-002
 Begin minimization
 Creating dielectric and ionic cavities
  area:      148.037919777443     
  volume:    692.769722470617     
  Acav:     7.771990788315733E-002
  Solving linear dielectric/ionic screening model
        iter                  A_solv                     rms
   LPB:       -0.382406475387065E+00   0.185886527729531E+01
   LPB:    0  -0.382406459357121E+00   0.185777248455769E+01  -0.315459E-04   0.000000E+00   0.322162E+02  -0.101629E-02
   LPB:    1  -0.324278826718551E+00   0.777574868572945E+00   0.142869E-01   0.000000E+00   0.123054E+03   0.604220E-19
   LPB:    2  -0.317888940188389E+00   0.245512299218850E+00   0.148194E-01   0.105978E+00   0.124217E+03   0.131719E-14
   LPB:    3  -0.315739190788845E+00   0.142370238235075E+00   0.201719E-01   0.247161E+00   0.267126E+03   0.167068E-14
   LPB:    4  -0.314714762412114E+00   0.166192754558031E+00   0.256412E-01   0.374888E+00   0.109712E+03   0.160821E-14
   LPB:    5  -0.313735680477383E+00   0.135268642630769E+00   0.298962E-01   0.819710E+00   0.258615E+03   0.174100E-14
   LPB:    6  -0.312663853235368E+00   0.597418818017277E-01   0.399545E-01   0.819136E+00   0.674087E+02   0.296566E-14
   LPB:    7  -0.311748691900359E+00   0.408927401273167E-01   0.381007E-01   0.895378E+00   0.119968E+03   0.403867E-14
  Finished solving LPB equations
  A_corr:   -0.234028784017202     
 End minimization
 Ecorr=   1581.31178864740     
 A_corr= -0.234028784017202     
 Ecorr_band=  -1581.54581743141     
 End Solvation calculations
RMM:  12    -0.135830794214E+03   -0.38091E+00   -0.78907E-01  4180   0.244E+00    0.505E+00
 Begin Solvation calculations
  rms_SCF =   0.593692521693227      tol =   5.936925216932269E-002
 Begin minimization
 Creating dielectric and ionic cavities
  area:      147.818168073705     
  volume:    687.742829474028     
  Acav:     7.760453823869537E-002
  Solving linear dielectric/ionic screening model
        iter                  A_solv                     rms
   LPB:       -0.461458584196404E+00   0.269201618481715E+01
   LPB:    0  -0.461369917518626E+00   0.260485768512839E+01  -0.233763E-02   0.000000E+00   0.324519E+02  -0.758604E-01
   LPB:    1  -0.374110495947520E+00   0.102859636069925E+01   0.137651E-01   0.000000E+00   0.972109E+02   0.176075E-17
   LPB:    2  -0.363041919908321E+00   0.279989884981022E+00   0.145653E-01   0.119878E+00   0.131319E+03   0.685642E-15
   LPB:    3  -0.359736992916804E+00   0.205069878921627E+00   0.203122E-01   0.214108E+00   0.271990E+03   0.631519E-15
   LPB:    4  -0.358443486072570E+00   0.180590046211575E+00   0.218548E-01   0.363761E+00   0.874221E+02  -0.420680E-15
   LPB:    5  -0.357275636339587E+00   0.120698742575521E+00   0.301707E-01   0.654001E+00   0.228553E+03  -0.114040E-14
   LPB:    6  -0.356210215366438E+00   0.476902299166780E-01   0.392486E-01   0.701287E+00   0.729496E+02  -0.278751E-14
  Finished solving LPB equations
  A_corr:   -0.278605677127742     
 End minimization
 Ecorr=   1554.36158709072     
 A_corr= -0.278605677127742     
 Ecorr_band=  -1554.64019276784     
 End Solvation calculations
RMM:  13    -0.135542225223E+03    0.28857E+00   -0.14546E-01  4168   0.152E+00    0.392E+00
 Begin Solvation calculations
  rms_SCF =   0.593692521693227      tol =   5.936925216932269E-002
 Begin minimization
 Creating dielectric and ionic cavities
  area:      148.144300907628     
  volume:    685.054079086678     
  Acav:     7.777575797650449E-002
  Solving linear dielectric/ionic screening model
        iter                  A_solv                     rms
   LPB:       -0.454797131957418E+00   0.170318539407617E+01
   LPB:    0  -0.453073015007612E+00   0.197094565534108E+01   0.102881E-01   0.000000E+00   0.325780E+02   0.335166E+00
   LPB:    1  -0.404944624823473E+00   0.941638206206269E+00   0.132696E-01   0.000000E+00   0.111855E+03  -0.904315E-17
   LPB:    2  -0.398150919224223E+00   0.198440163863978E+00   0.136324E-01   0.137401E+00   0.105910E+03   0.146358E-14
   LPB:    3  -0.396033727873580E+00   0.135967530043744E+00   0.216314E-01   0.196401E+00   0.247583E+03   0.163924E-14
   LPB:    4  -0.394793940349171E+00   0.164686936854219E+00   0.314435E-01   0.402847E+00   0.751380E+02   0.167242E-14
   LPB:    5  -0.393511966748304E+00   0.140972492710004E+00   0.317734E-01   0.102329E+01   0.210179E+03   0.137943E-14
   LPB:    6  -0.392371434729312E+00   0.628532908733816E-01   0.340734E-01   0.829615E+00   0.611025E+02   0.571521E-15
   LPB:    7  -0.391640885360849E+00   0.349367392704489E-01   0.330406E-01   0.660557E+00   0.218021E+03  -0.111272E-14
  Finished solving LPB equations
  A_corr:   -0.313865127384344     
 End minimization
 Ecorr=   1526.72071122370     
 A_corr= -0.313865127384344     
 Ecorr_band=  -1527.03457635109     
 End Solvation calculations
RMM:  14    -0.135337478917E+03    0.20475E+00   -0.23117E-01  4237   0.110E+00    0.862E-01
 Begin Solvation calculations
  rms_SCF =   0.265636340814795      tol =   2.656363408147948E-002
 Begin minimization
 Creating dielectric and ionic cavities
  area:      148.320608686625     
  volume:    684.167515218591     
  Acav:     7.786831956047821E-002
  Solving linear dielectric/ionic screening model
        iter                  A_solv                     rms
   LPB:       -0.405670945197628E+00   0.524233059515109E+00
   LPB:    0  -0.405670064814499E+00   0.532620096480257E+00   0.232334E-03   0.000000E+00   0.326195E+02   0.757861E-02
   LPB:    1  -0.400724191485932E+00   0.235012212359962E+00   0.145199E-01   0.000000E+00   0.123273E+03  -0.122987E-18
   LPB:    2  -0.400052618813890E+00   0.759505432661583E-01   0.155104E-01   0.127113E+00   0.109027E+03  -0.263218E-14
   LPB:    3  -0.399839536909283E+00   0.486575317129379E-01   0.217692E-01   0.226065E+00   0.243838E+03  -0.321509E-14
   LPB:    4  -0.399698235331668E+00   0.808776988366959E-01   0.297263E-01   0.485626E+00   0.112832E+03  -0.327923E-14
   LPB:    5  -0.399439059509319E+00   0.776528961925126E-01   0.397999E-01   0.136995E+01   0.211189E+03  -0.319319E-14
   LPB:    6  -0.399092936388258E+00   0.283390215392623E-01   0.399643E-01   0.132998E+01   0.539302E+02  -0.284731E-14
   LPB:    7  -0.398920169182635E+00   0.184874099471122E-01   0.291731E-01   0.683787E+00   0.186032E+03  -0.217924E-14
  Finished solving LPB equations
  A_corr:   -0.321051849622157     
 End minimization
 Ecorr=   1518.71164257071     
 A_corr= -0.321051849622157     
 Ecorr_band=  -1519.03269442033     
 End Solvation calculations
RMM:  15    -0.135335602596E+03    0.18763E-02   -0.35348E-02  4313   0.568E-01    0.562E-01
 Begin Solvation calculations
  rms_SCF =   0.265636340814795      tol =   2.656363408147948E-002
 Begin minimization
 Creating dielectric and ionic cavities
  area:      148.741534554800     
  volume:    683.120141608475     
  Acav:     7.808930564127008E-002
  Solving linear dielectric/ionic screening model
        iter                  A_solv                     rms
   LPB:       -0.419681183249800E+00   0.936155198137059E+00
   LPB:    0  -0.419596212275449E+00   0.864030670227478E+00  -0.228079E-02   0.000000E+00   0.326686E+02  -0.745102E-01
   LPB:    1  -0.409858310556138E+00   0.248841265667846E+00   0.148631E-01   0.000000E+00   0.960706E+02  -0.676130E-17
   LPB:    2  -0.408636509885305E+00   0.949295085129220E-01   0.152270E-01   0.122471E+00   0.165135E+03  -0.165496E-14
   LPB:    3  -0.408338129502197E+00   0.549787340840107E-01   0.217664E-01   0.170843E+00   0.109579E+03  -0.196359E-14
   LPB:    4  -0.408222746381836E+00   0.617762835624003E-01   0.240876E-01   0.349433E+00   0.225786E+03  -0.253743E-14
   LPB:    5  -0.408154224995642E+00   0.354433445159857E-01   0.214379E-01   0.667261E+00   0.131775E+03  -0.271540E-14
   LPB:    6  -0.408101681606840E+00   0.127817521922530E-01   0.275731E-01   0.596195E+00   0.136479E+03  -0.287611E-14
  Finished solving LPB equations
  A_corr:   -0.330012375965570     
 End minimization
 Ecorr=   1513.44636754457     
 A_corr= -0.330012375965570     
 Ecorr_band=  -1513.77637992053     
 End Solvation calculations
RMM:  16    -0.135337550229E+03   -0.19476E-02   -0.18990E-02  5013   0.283E-01    0.335E-01
 Begin Solvation calculations
  rms_SCF =   0.265636340814795      tol =   2.656363408147948E-002
 Begin minimization
 Creating dielectric and ionic cavities
  area:      149.626950809964     
  volume:    681.211811294710     
  Acav:     7.855414917523088E-002
  Solving linear dielectric/ionic screening model
        iter                  A_solv                     rms
   LPB:       -0.467716062478277E+00   0.178608545483041E+01
   LPB:    0  -0.466929791601153E+00   0.155073748252984E+01  -0.692854E-02   0.000000E+00   0.327581E+02  -0.226966E+00
   LPB:    1  -0.432851881006175E+00   0.519387557506598E+00   0.144927E-01   0.000000E+00   0.108337E+03  -0.321691E-17
   LPB:    2  -0.428724066442941E+00   0.150285765554152E+00   0.152369E-01   0.115213E+00   0.121513E+03   0.584570E-15
   LPB:    3  -0.427788567671312E+00   0.633949150237870E-01   0.224490E-01   0.153823E+00   0.139092E+03   0.411643E-15
   LPB:    4  -0.427368662284927E+00   0.662315915496276E-01   0.286226E-01   0.352044E+00   0.219246E+03  -0.749247E-16
   LPB:    5  -0.427137275019051E+00   0.103950648264319E+00   0.262647E-01   0.600516E+00   0.200383E+03  -0.358134E-15
   LPB:    6  -0.426963827608833E+00   0.500942808395821E-01   0.223335E-01   0.881544E+00   0.775799E+02  -0.415234E-15
   LPB:    7  -0.426810701614972E+00   0.192940944779693E-01   0.327270E-01   0.602467E+00   0.246226E+03  -0.181055E-15
  Finished solving LPB equations
  A_corr:   -0.348256552439741     
 End minimization
 Ecorr=   1504.98774149073     
 A_corr= -0.348256552439741     
 Ecorr_band=  -1505.33599804317     
 End Solvation calculations
RMM:  17    -0.135343157094E+03   -0.56069E-02   -0.11235E-02  4206   0.234E-01    0.513E-01
 Begin Solvation calculations
  rms_SCF =   0.198530309048222      tol =   1.985303090482220E-002
 Begin minimization
 Creating dielectric and ionic cavities
  area:      150.082314888610     
  volume:    680.426702612165     
  Acav:     7.879321531652020E-002
  Solving linear dielectric/ionic screening model
        iter                  A_solv                     rms
   LPB:       -0.451138096845948E+00   0.107980578302873E+01
   LPB:    0  -0.450952520586968E+00   0.977219014705858E+00  -0.336413E-02   0.000000E+00   0.327949E+02  -0.110326E+00
   LPB:    1  -0.439829205067959E+00   0.263307005476348E+00   0.147605E-01   0.000000E+00   0.890296E+02   0.304414E-17
   LPB:    2  -0.438448672542321E+00   0.996845564301500E-01   0.149491E-01   0.122546E+00   0.170467E+03  -0.143130E-16
   LPB:    3  -0.438130241619965E+00   0.608066857239820E-01   0.213768E-01   0.161303E+00   0.110525E+03   0.511269E-15
   LPB:    4  -0.437989998950261E+00   0.750636575254295E-01   0.246650E-01   0.381703E+00   0.194878E+03   0.623106E-15
   LPB:    5  -0.437862762118863E+00   0.528144365123214E-01   0.268906E-01   0.832173E+00   0.100442E+03   0.719201E-15
   LPB:    6  -0.437708319926622E+00   0.228918763916762E-01   0.355113E-01   0.919153E+00   0.827281E+02   0.747865E-15
   LPB:    7  -0.437585994034632E+00   0.144382023186155E-01   0.358593E-01   0.784363E+00   0.142456E+03   0.553414E-15
  Finished solving LPB equations
  A_corr:   -0.358792778718112     
 End minimization
 Ecorr=   1498.93861702223     
 A_corr= -0.358792778718112     
 Ecorr_band=  -1499.29740980095     
 End Solvation calculations
RMM:  18    -0.135343251622E+03   -0.94527E-04   -0.21091E-03  4388   0.121E-01    0.439E-01
 Begin Solvation calculations
  rms_SCF =   0.198530309048222      tol =   1.985303090482220E-002
 Begin minimization
 Creating dielectric and ionic cavities
  area:      150.594683505146     
  volume:    679.702411333070     
  Acav:     7.906220884020174E-002
  Solving linear dielectric/ionic screening model
        iter                  A_solv                     rms
   LPB:       -0.471455774049576E+00   0.145943544684736E+01
   LPB:    0  -0.471053584716612E+00   0.132150614088838E+01  -0.494997E-02   0.000000E+00   0.328289E+02  -0.162502E+00
   LPB:    1  -0.453663776795376E+00   0.324810459548958E+00   0.146117E-01   0.000000E+00   0.804524E+02   0.125116E-16
   LPB:    2  -0.451541468601950E+00   0.131174819451908E+00   0.142897E-01   0.124794E+00   0.201979E+03  -0.335644E-14
   LPB:    3  -0.451110227098365E+00   0.816281116021502E-01   0.190715E-01   0.152248E+00   0.119112E+03  -0.319721E-14
   LPB:    4  -0.450952272612436E+00   0.662671743259658E-01   0.200500E-01   0.348403E+00   0.172355E+03  -0.344300E-14
   LPB:    5  -0.450840955938201E+00   0.382846068478406E-01   0.263013E-01   0.537235E+00   0.127163E+03  -0.356854E-14
   LPB:    6  -0.450732636340364E+00   0.176125636117860E-01   0.363859E-01   0.703381E+00   0.100136E+03  -0.358186E-14
  Finished solving LPB equations
  A_corr:   -0.371670427500162     
 End minimization
 Ecorr=   1493.27283176320     
 A_corr= -0.371670427500162     
 Ecorr_band=  -1493.64450219070     
 End Solvation calculations
RMM:  19    -0.135343831887E+03   -0.58027E-03   -0.22048E-03  4214   0.993E-02    0.352E-01
 Begin Solvation calculations
  rms_SCF =   0.131798122320665      tol =   1.317981223206647E-002
 Begin minimization
 Creating dielectric and ionic cavities
  area:      151.075860802708     
  volume:    679.426745458163     
  Acav:     7.931482692142165E-002
  Solving linear dielectric/ionic screening model
        iter                  A_solv                     rms
   LPB:       -0.493323073387807E+00   0.170753859789340E+01
   LPB:    0  -0.492622595886728E+00   0.152793677594029E+01  -0.653129E-02   0.000000E+00   0.328418E+02  -0.214499E+00
   LPB:    1  -0.469388906433348E+00   0.346037778883097E+00   0.146690E-01   0.000000E+00   0.802173E+02  -0.100455E-16
   LPB:    2  -0.466732812695044E+00   0.139680021865773E+00   0.147563E-01   0.113645E+00   0.184330E+03   0.456616E-14
   LPB:    3  -0.466181124283025E+00   0.816443109182812E-01   0.201905E-01   0.151803E+00   0.108599E+03   0.255373E-14
   LPB:    4  -0.465922391586591E+00   0.954667048075648E-01   0.237686E-01   0.398383E+00   0.199110E+03   0.140588E-14
   LPB:    5  -0.465734658742535E+00   0.662884817734438E-01   0.247530E-01   0.696730E+00   0.941645E+02   0.756806E-15
   LPB:    6  -0.465556064251515E+00   0.250089137263858E-01   0.310609E-01   0.758127E+00   0.107891E+03   0.266363E-15
   LPB:    7  -0.465415634396194E+00   0.133644506375666E-01   0.369619E-01   0.660770E+00   0.195253E+03   0.120071E-15
   LPB:    8  -0.465319522513823E+00   0.101262699335282E-01   0.370546E-01   0.682699E+00   0.214408E+03   0.650136E-16
  Finished solving LPB equations
  A_corr:   -0.386004695592401     
 End minimization
 Ecorr=   1486.03632822117     
 A_corr= -0.386004695592401     
 Ecorr_band=  -1486.42233291676     
 End Solvation calculations
RMM:  20    -0.135344976123E+03   -0.11442E-02   -0.44932E-03  4184   0.137E-01    0.181E-01
 Begin Solvation calculations
  rms_SCF =   0.131798122320665      tol =   1.317981223206647E-002
 Begin minimization
 Creating dielectric and ionic cavities
  area:      151.539670504820     
  volume:    679.164452064871     
  Acav:     7.955832701503042E-002
  Solving linear dielectric/ionic screening model
        iter                  A_solv                     rms
   LPB:       -0.509222932902403E+00   0.195053248886898E+01
   LPB:    0  -0.508181277237065E+00   0.175675073317061E+01  -0.796310E-02   0.000000E+00   0.328541E+02  -0.261620E+00
   LPB:    1  -0.483607828542354E+00   0.385402471717291E+00   0.142006E-01   0.000000E+00   0.711754E+02   0.253107E-16
   LPB:    2  -0.480667343444446E+00   0.162699784428063E+00   0.137335E-01   0.123731E+00   0.232873E+03  -0.786337E-14
   LPB:    3  -0.480075464898369E+00   0.909840601101213E-01   0.179184E-01   0.154275E+00   0.128476E+03  -0.895490E-14
   LPB:    4  -0.479856730108505E+00   0.669183779695698E-01   0.201474E-01   0.328674E+00   0.165055E+03  -0.889138E-14
   LPB:    5  -0.479739364220744E+00   0.396031603680764E-01   0.251786E-01   0.429349E+00   0.125883E+03  -0.902136E-14
   LPB:    6  -0.479636144580689E+00   0.179130569671672E-01   0.353674E-01   0.626108E+00   0.115842E+03  -0.917412E-14
   LPB:    7  -0.479539352790922E+00   0.114402029978027E-01   0.412431E-01   0.804132E+00   0.143050E+03  -0.915717E-14
  Finished solving LPB equations
  A_corr:   -0.399981025775892     
 End minimization
 Ecorr=   1480.76012592664     
 A_corr= -0.399981025775892     
 Ecorr_band=  -1481.16010695241     
 End Solvation calculations
RMM:  21    -0.135346213899E+03   -0.12378E-02   -0.18402E-03  4141   0.897E-02    0.135E-01
 Begin Solvation calculations
  rms_SCF =   0.131798122320665      tol =   1.317981223206647E-002
 Begin minimization
 Creating dielectric and ionic cavities
  area:      151.837352313902     
  volume:    679.095523542558     
  Acav:     7.971460996479832E-002
  Solving linear dielectric/ionic screening model
        iter                  A_solv                     rms
   LPB:       -0.507015605372566E+00   0.157530970998900E+01
   LPB:    0  -0.506372846281626E+00   0.143766267445552E+01  -0.625494E-02   0.000000E+00   0.328573E+02  -0.205520E+00
   LPB:    1  -0.492251231469576E+00   0.309201892631913E+00   0.137787E-01   0.000000E+00   0.661743E+02   0.129458E-17
   LPB:    2  -0.490528957784597E+00   0.121551791148711E+00   0.132409E-01   0.126913E+00   0.247016E+03   0.103433E-14
   LPB:    3  -0.490189709537906E+00   0.615877593358516E-01   0.176182E-01   0.148038E+00   0.140950E+03   0.123592E-14
   LPB:    4  -0.490063738405755E+00   0.522383250426537E-01   0.220340E-01   0.296907E+00   0.135797E+03   0.134062E-14
   LPB:    5  -0.489974611910385E+00   0.363750839236714E-01   0.292901E-01   0.532242E+00   0.113924E+03   0.147958E-14
   LPB:    6  -0.489881403678555E+00   0.167821802839238E-01   0.379210E-01   0.807771E+00   0.890340E+02   0.138319E-14
   LPB:    7  -0.489802775910791E+00   0.959923392729928E-02   0.378774E-01   0.844542E+00   0.142210E+03   0.164062E-14
  Finished solving LPB equations
  A_corr:   -0.410088165945993     
 End minimization
 Ecorr=   1476.73466387948     
 A_corr= -0.410088165945993     
 Ecorr_band=  -1477.14475204543     
 End Solvation calculations
RMM:  22    -0.135347189964E+03   -0.97606E-03   -0.91715E-04  4138   0.592E-02    0.192E-01
 Begin Solvation calculations
  rms_SCF =   8.837633520808440E-002 tol =   8.837633520808439E-003
 Begin minimization
 Creating dielectric and ionic cavities
  area:      151.911774227857     
  volume:    679.301722148281     
  Acav:     7.975368146962505E-002
  Solving linear dielectric/ionic screening model
        iter                  A_solv                     rms
   LPB:       -0.504556718610270E+00   0.130776669429313E+01
   LPB:    0  -0.504146618550865E+00   0.122183855509229E+01  -0.499698E-02   0.000000E+00   0.328476E+02  -0.164139E+00
   LPB:    1  -0.496099152224356E+00   0.236144559268062E+00   0.127340E-01   0.000000E+00   0.632392E+02  -0.413026E-17
   LPB:    2  -0.495175085052568E+00   0.808901885946162E-01   0.125749E-01   0.116280E+00   0.256908E+03   0.249662E-15
   LPB:    3  -0.495006270407519E+00   0.314550469128264E-01   0.175376E-01   0.130991E+00   0.157794E+03   0.168564E-15
   LPB:    4  -0.494958982531269E+00   0.291435920311191E-01   0.230279E-01   0.213332E+00   0.129109E+03   0.117904E-15
   LPB:    5  -0.494928268526256E+00   0.240694938373190E-01   0.292495E-01   0.511355E+00   0.121272E+03   0.106698E-15
   LPB:    6  -0.494889673031005E+00   0.130107099055655E-01   0.409628E-01   0.897282E+00   0.741250E+02   0.229490E-17
   LPB:    7  -0.494849506981302E+00   0.726367441278588E-02   0.399704E-01   0.106653E+01   0.100224E+03  -0.190739E-15
  Finished solving LPB equations
  A_corr:   -0.415095825511677     
 End minimization
 Ecorr=   1474.41577982703     
 A_corr= -0.415095825511677     
 Ecorr_band=  -1474.83087565255     
 End Solvation calculations
RMM:  23    -0.135347358418E+03   -0.16845E-03   -0.76071E-04  4135   0.597E-02    0.446E-02
 Begin Solvation calculations
  rms_SCF =   8.837633520808440E-002 tol =   8.837633520808439E-003
 Begin minimization
 Creating dielectric and ionic cavities
  area:      151.887000759005     
  volume:    679.512852821184     
  Acav:     7.974067539847772E-002
  Solving linear dielectric/ionic screening model
        iter                  A_solv                     rms
   LPB:       -0.501944097141016E+00   0.104059850995141E+01
   LPB:    0  -0.501681729120671E+00   0.985964968022740E+00  -0.399746E-02   0.000000E+00   0.328377E+02  -0.131267E+00
   LPB:    1  -0.497154723477996E+00   0.166532015977193E+00   0.116510E-01   0.000000E+00   0.665778E+02  -0.107309E-16
   LPB:    2  -0.496697320431648E+00   0.502060710126768E-01   0.121022E-01   0.972716E-01   0.261826E+03  -0.992074E-15
   LPB:    3  -0.496626229648351E+00   0.152423229532516E-01   0.179175E-01   0.104979E+00   0.156418E+03  -0.107929E-14
   LPB:    4  -0.496611707214706E+00   0.138696737948887E-01   0.231833E-01   0.157880E+00   0.136815E+03  -0.106682E-14
   LPB:    5  -0.496603193479747E+00   0.139831308574653E-01   0.299017E-01   0.454527E+00   0.139303E+03  -0.918351E-15
   LPB:    6  -0.496591613267494E+00   0.925939809395434E-02   0.411846E-01   0.987549E+00   0.675521E+02  -0.795996E-15
   LPB:    7  -0.496577133899198E+00   0.482167012315141E-02   0.413735E-01   0.124464E+01   0.826579E+02  -0.442065E-15
  Finished solving LPB equations
  A_corr:   -0.416836458500721     
 End minimization
 Ecorr=   1473.44184992147     
 A_corr= -0.416836458500721     
 Ecorr_band=  -1473.85868637997     
 End Solvation calculations
RMM:  24    -0.135347809134E+03   -0.45072E-03   -0.42652E-04  4125   0.529E-02    0.920E-02
 Begin Solvation calculations
  rms_SCF =   8.283335662740521E-002 tol =   8.283335662740521E-003
 Begin minimization
 Creating dielectric and ionic cavities
  area:      151.915383985886     
  volume:    679.607369065878     
  Acav:     7.975557659258993E-002
  Solving linear dielectric/ionic screening model
        iter                  A_solv                     rms
   LPB:       -0.503980518957371E+00   0.976090799826557E+00
   LPB:    0  -0.503742633537174E+00   0.917417109084075E+00  -0.380664E-02   0.000000E+00   0.328333E+02  -0.124985E+00
   LPB:    1  -0.499927666660918E+00   0.157312920292368E+00   0.116676E-01   0.000000E+00   0.639978E+02  -0.702953E-17
   LPB:    2  -0.499500812306538E+00   0.473261008868696E-01   0.124482E-01   0.104873E+00   0.244852E+03  -0.430988E-15
   LPB:    3  -0.499435484212296E+00   0.164735757791371E-01   0.176500E-01   0.107940E+00   0.163583E+03  -0.486292E-15
   LPB:    4  -0.499421100569483E+00   0.147144994162357E-01   0.226753E-01   0.171380E+00   0.129679E+03  -0.499838E-15
   LPB:    5  -0.499414140548986E+00   0.106879758426754E-01   0.255034E-01   0.430227E+00   0.133676E+03  -0.510042E-15
   LPB:    6  -0.499407855230011E+00   0.512154067287050E-02   0.343375E-01   0.670727E+00   0.912864E+02  -0.620624E-15
  Finished solving LPB equations
  A_corr:   -0.419652278637421     
 End minimization
 Ecorr=   1472.48439863144     
 A_corr= -0.419652278637421     
 Ecorr_band=  -1472.90405091008     
 End Solvation calculations
RMM:  25    -0.135347797062E+03    0.12073E-04   -0.21226E-04  3983   0.251E-02    0.352E-02
 Begin Solvation calculations
  rms_SCF =   2.567041010547632E-002 tol =   2.567041010547632E-003
 Begin minimization
 Creating dielectric and ionic cavities
  area:      151.922096392433     
  volume:    679.628755055430     
  Acav:     7.975910060602731E-002
  Solving linear dielectric/ionic screening model
        iter                  A_solv                     rms
   LPB:       -0.500775126748239E+00   0.346412404458238E+00
   LPB:    0  -0.500752959045852E+00   0.330488866276390E+00  -0.116205E-02   0.000000E+00   0.328323E+02  -0.381528E-01
   LPB:    1  -0.500292052871139E+00   0.504719381929885E-01   0.108342E-01   0.000000E+00   0.692923E+02   0.331975E-19
   LPB:    2  -0.500247970450876E+00   0.155022557561071E-01   0.123115E-01   0.841661E-01   0.223146E+03  -0.812148E-16
   LPB:    3  -0.500240939421672E+00   0.494292269389489E-02   0.192887E-01   0.101804E+00   0.124707E+03  -0.103467E-15
   LPB:    4  -0.500236972471171E+00   0.844136241502741E-02   0.437839E-01   0.248558E+00   0.717024E+02  -0.899193E-16
   LPB:    5  -0.500231562435388E+00   0.111528717516416E-01   0.419984E-01   0.142176E+01   0.804608E+02  -0.247888E-16
   LPB:    6  -0.500226554156844E+00   0.661969312606654E-02   0.286820E-01   0.135554E+01   0.514501E+02   0.666845E-16
   LPB:    7  -0.500223396556108E+00   0.210783336016376E-02   0.298582E-01   0.605639E+00   0.215942E+03   0.828950E-16
  Finished solving LPB equations
  A_corr:   -0.420464295950081     
 End minimization
 Ecorr=   1471.72573409576     
 A_corr= -0.420464295950081     
 Ecorr_band=  -1472.14619839171     
 End Solvation calculations
RMM:  26    -0.135347838426E+03   -0.41364E-04   -0.56533E-05  2809   0.256E-02    0.169E-02
 Begin Solvation calculations
  rms_SCF =   2.567041010547632E-002 tol =   2.567041010547632E-003
 Begin minimization
 Creating dielectric and ionic cavities
  area:      151.919969576396     
  volume:    679.623508070164     
  Acav:     7.975798402760778E-002
  Solving linear dielectric/ionic screening model
        iter                  A_solv                     rms
   LPB:       -0.500853642467183E+00   0.277575241054538E+00
   LPB:    0  -0.500842825802127E+00   0.268163594615770E+00  -0.811726E-03   0.000000E+00   0.328326E+02  -0.266510E-01
   LPB:    1  -0.500576534034887E+00   0.320680353632968E-01   0.980934E-02   0.000000E+00   0.748140E+02   0.108511E-17
   LPB:    2  -0.500555985849797E+00   0.778414045608162E-02   0.123738E-01   0.611719E-01   0.230006E+03   0.302239E-15
   LPB:    3  -0.500553620676272E+00   0.226353149103267E-02   0.194386E-01   0.732701E-01   0.159799E+03   0.323664E-15
   LPB:    4  -0.500553047963615E+00   0.255227213963715E-02   0.288689E-01   0.163046E+00   0.170075E+03   0.320556E-15
  Finished solving LPB equations
  A_corr:   -0.420795063936008     
 End minimization
 Ecorr=   1471.49329453735     
 A_corr= -0.420795063936008     
 Ecorr_band=  -1471.91408960129     
 End Solvation calculations
RMM:  27    -0.135347896878E+03   -0.58452E-04   -0.25495E-05  2518   0.150E-02    0.120E-02
 Begin Solvation calculations
  rms_SCF =   6.180619142273171E-003 tol =   6.180619142273171E-004
 Begin minimization
 Creating dielectric and ionic cavities
  area:      151.905220686986     
  volume:    679.608955523841     
  Acav:     7.975024086066745E-002
  Solving linear dielectric/ionic screening model
        iter                  A_solv                     rms
   LPB:       -0.499977702027768E+00   0.482606107020709E-01
   LPB:    0  -0.499977387313746E+00   0.453412331901225E-01   0.138457E-03   0.000000E+00   0.328332E+02   0.454601E-02
   LPB:    1  -0.499927691633842E+00   0.312055963554076E-01   0.134854E-01   0.000000E+00   0.253449E+03  -0.147077E-18
   LPB:    2  -0.499920915743328E+00   0.870597338116454E-02   0.142063E-01   0.129429E+00   0.648593E+02  -0.442786E-16
   LPB:    3  -0.499919204711128E+00   0.330759614359000E-02   0.181698E-01   0.197435E+00   0.308989E+03  -0.525446E-16
   LPB:    4  -0.499918288337618E+00   0.404255378111224E-02   0.273587E-01   0.355688E+00   0.280092E+03  -0.596444E-16
   LPB:    5  -0.499917694080679E+00   0.342685584581397E-02   0.275120E-01   0.644875E+00   0.113492E+03  -0.685984E-16
   LPB:    6  -0.499917153271379E+00   0.196925575595395E-02   0.324685E-01   0.771133E+00   0.335780E+03  -0.144451E-15
   LPB:    7  -0.499916699339475E+00   0.958128803074639E-03   0.394038E-01   0.691626E+00   0.372315E+03  -0.207619E-15
   LPB:    8  -0.499916318129757E+00   0.886878766378704E-03   0.401145E-01   0.824917E+00   0.368057E+03  -0.250620E-15
   LPB:    9  -0.499915981132120E+00   0.832569053264110E-03   0.402123E-01   0.881870E+00   0.249276E+03  -0.284623E-15
   LPB:   10  -0.499915694748758E+00   0.639381191245337E-03   0.399694E-01   0.854973E+00   0.158036E+03  -0.315163E-15
   LPB:   11  -0.499915476632812E+00   0.554203197956926E-03   0.385686E-01   0.789284E+00   0.172051E+03  -0.341089E-15
  Finished solving LPB equations
  A_corr:   -0.420165235772145     
 End minimization
 Ecorr=   1471.46470164681     
 A_corr= -0.420165235772145     
 Ecorr_band=  -1471.88486688258     
 End Solvation calculations
RMM:  28    -0.135347965126E+03   -0.68248E-04   -0.21138E-05  2503   0.155E-02    0.767E-03
 Begin Solvation calculations
  rms_SCF =   3.590051391957602E-003 tol =   3.590051391957602E-004
 Begin minimization
 Creating dielectric and ionic cavities
  area:      151.904726312271     
  volume:    679.587092257499     
  Acav:     7.974998131394219E-002
  Solving linear dielectric/ionic screening model
        iter                  A_solv                     rms
   LPB:       -0.499794135781668E+00   0.392980776376251E-01
   LPB:    0  -0.499793363817760E+00   0.348359279885980E-01  -0.216845E-03   0.000000E+00   0.328343E+02  -0.711995E-02
   LPB:    1  -0.499777411072282E+00   0.173169728437630E-01   0.106431E-01   0.000000E+00   0.207653E+03   0.133237E-19
   LPB:    2  -0.499775595825337E+00   0.298994597843423E-02   0.137963E-01   0.877821E-01   0.782555E+02   0.746043E-16
   LPB:    3  -0.499775079501103E+00   0.960401966889978E-03   0.211376E-01   0.185649E+00   0.186244E+03   0.840613E-16
   LPB:    4  -0.499774894350452E+00   0.530751236912533E-03   0.321219E-01   0.235970E+00   0.682390E+03   0.827574E-16
   LPB:    5  -0.499774819523037E+00   0.425350888562670E-03   0.308611E-01   0.420655E+00   0.472218E+03   0.870312E-16
   LPB:    6  -0.499774781514600E+00   0.608334968650947E-03   0.308610E-01   0.507950E+00   0.337120E+03   0.906933E-16
   LPB:    7  -0.499774742214387E+00   0.100601973391635E-02   0.400786E-01   0.796181E+00   0.355603E+03   0.918826E-16
   LPB:    8  -0.499774688652992E+00   0.990087325039348E-03   0.401945E-01   0.135895E+01   0.102362E+03   0.858384E-16
   LPB:    9  -0.499774607689701E+00   0.624725824896570E-03   0.438546E-01   0.138544E+01   0.622143E+03   0.717660E-16
   LPB:   10  -0.499774500571988E+00   0.461544510133343E-03   0.468219E-01   0.123919E+01   0.372168E+03   0.432739E-16
   LPB:   11  -0.499774395663617E+00   0.438882523223435E-03   0.418112E-01   0.109674E+01   0.613798E+03   0.611334E-17
   LPB:   12  -0.499774315054866E+00   0.349886468211697E-03   0.378557E-01   0.848661E+00   0.127441E+04  -0.302426E-16
  Finished solving LPB equations
  A_corr:   -0.420024333740924     
 End minimization
 Ecorr=   1471.38385731231     
 A_corr= -0.420024333740924     
 Ecorr_band=  -1471.80388164605     
 End Solvation calculations
RMM:  29    -0.135348001071E+03   -0.35945E-04   -0.10374E-05  2401   0.105E-02    0.320E-03
 Begin Solvation calculations
  rms_SCF =   2.654997344467913E-003 tol =   2.654997344467913E-004
 Begin minimization
 Creating dielectric and ionic cavities
  area:      151.913920197130     
  volume:    679.561922929842     
  Acav:     7.975480810349318E-002
  Solving linear dielectric/ionic screening model
        iter                  A_solv                     rms
   LPB:       -0.500011064365615E+00   0.565689692839822E-01
   LPB:    0  -0.500009422309990E+00   0.468606090181750E-01  -0.316255E-03   0.000000E+00   0.328354E+02  -0.103844E-01
   LPB:    1  -0.499996849189399E+00   0.992087975811789E-02   0.955603E-02   0.000000E+00   0.100901E+03  -0.194960E-19
   LPB:    2  -0.499996008074196E+00   0.140076433529089E-02   0.128065E-01   0.499182E-01   0.987815E+02  -0.907571E-16
   LPB:    3  -0.499995852625475E+00   0.102875288247569E-02   0.215657E-01   0.109748E+00   0.467928E+03  -0.112957E-15
   LPB:    4  -0.499995796280242E+00   0.800816390040691E-03   0.237668E-01   0.328900E+00   0.140533E+03  -0.117513E-15
   LPB:    5  -0.499995764394816E+00   0.540436126170402E-03   0.260789E-01   0.515722E+00   0.464538E+03  -0.120140E-15
   LPB:    6  -0.499995739698348E+00   0.333034805597519E-03   0.343255E-01   0.588458E+00   0.195840E+03  -0.124202E-15
   LPB:    7  -0.499995716683449E+00   0.247698387031388E-03   0.456432E-01   0.700833E+00   0.830492E+03  -0.127105E-15
  Finished solving LPB equations
  A_corr:   -0.420240908579955     
 End minimization
 Ecorr=   1471.24541559140     
 A_corr= -0.420240908579955     
 Ecorr_band=  -1471.66565649998     
 End Solvation calculations
RMM:  30    -0.135348028506E+03   -0.27436E-04   -0.67475E-06  2375   0.841E-03    0.485E-03
 Begin Solvation calculations
  rms_SCF =   2.654997344467913E-003 tol =   2.654997344467913E-004
 Begin minimization
 Creating dielectric and ionic cavities
  area:      151.917314653386     
  volume:    679.548391829157     
  Acav:     7.975659019302767E-002
  Solving linear dielectric/ionic screening model
        iter                  A_solv                     rms
   LPB:       -0.500034664011971E+00   0.251088626175438E-01
   LPB:    0  -0.500034294105613E+00   0.197693668130857E-01  -0.150102E-03   0.000000E+00   0.328361E+02  -0.492875E-02
   LPB:    1  -0.500027680535283E+00   0.112746684145161E-01   0.125760E-01   0.000000E+00   0.156530E+03   0.105918E-19
   LPB:    2  -0.500027031568229E+00   0.236264499405884E-02   0.127015E-01   0.971570E-01   0.612341E+02   0.861504E-16
   LPB:    3  -0.500026862644520E+00   0.112468991968447E-02   0.193671E-01   0.170709E+00   0.248583E+03   0.990136E-16
   LPB:    4  -0.500026812376879E+00   0.712147665162643E-03   0.227155E-01   0.253711E+00   0.148775E+03   0.100603E-15
   LPB:    5  -0.500026784566481E+00   0.547179417532825E-03   0.262824E-01   0.478162E+00   0.313558E+03   0.957552E-16
   LPB:    6  -0.500026762343233E+00   0.366588945909777E-03   0.330075E-01   0.636287E+00   0.143797E+03   0.933858E-16
   LPB:    7  -0.500026741325729E+00   0.248882083284803E-03   0.378596E-01   0.824538E+00   0.293967E+03   0.841851E-16
  Finished solving LPB equations
  A_corr:   -0.420270151132701     
 End minimization
 Ecorr=   1471.18050179054     
 A_corr= -0.420270151132701     
 Ecorr_band=  -1471.60077194167     
 End Solvation calculations
RMM:  31    -0.135348039104E+03   -0.10598E-04   -0.54880E-06  2388   0.715E-03    0.557E-03
 Begin Solvation calculations
  rms_SCF =   2.654997344467913E-003 tol =   2.654997344467913E-004
 Begin minimization
 Creating dielectric and ionic cavities
  area:      151.919406063435     
  volume:    679.534992433982     
  Acav:     7.975768818330349E-002
  Solving linear dielectric/ionic screening model
        iter                  A_solv                     rms
   LPB:       -0.499971617894025E+00   0.509829508067870E-01
   LPB:    0  -0.499971517543369E+00   0.501377450533232E-01  -0.781799E-04   0.000000E+00   0.328367E+02  -0.256717E-02
   LPB:    1  -0.499950463605775E+00   0.874985448321395E-02   0.144524E-01   0.000000E+00   0.777769E+02   0.337935E-20
   LPB:    2  -0.499948949371592E+00   0.563249940831103E-02   0.144168E-01   0.720989E-01   0.206899E+03   0.300290E-16
   LPB:    3  -0.499948523558520E+00   0.174215992857981E-02   0.161512E-01   0.251010E+00   0.109437E+03   0.271545E-16
   LPB:    4  -0.499948369672315E+00   0.115887953381554E-02   0.246393E-01   0.236896E+00   0.259563E+03   0.259037E-16
   LPB:    5  -0.499948298140426E+00   0.972502970529112E-03   0.262013E-01   0.437124E+00   0.172393E+03   0.305893E-16
   LPB:    6  -0.499948251413122E+00   0.723444688224758E-03   0.281006E-01   0.609086E+00   0.137113E+03   0.426727E-16
   LPB:    7  -0.499948215681447E+00   0.422161249055317E-03   0.309627E-01   0.694000E+00   0.188158E+03   0.483518E-16
   LPB:    8  -0.499948185489323E+00   0.214707987755526E-03   0.381885E-01   0.685090E+00   0.207757E+03   0.486334E-16
  Finished solving LPB equations
  A_corr:   -0.420190497306020     
 End minimization
 Ecorr=   1471.13747272072     
 A_corr= -0.420190497306020     
 Ecorr_band=  -1471.55766321802     
 End Solvation calculations
RMM:  32    -0.135348051165E+03   -0.12061E-04   -0.57305E-06  2407   0.576E-03    0.401E-03
 Begin Solvation calculations
  rms_SCF =   2.654997344467913E-003 tol =   2.654997344467913E-004
 Begin minimization
 Creating dielectric and ionic cavities
  area:      151.923999375206     
  volume:    679.526726511477     
  Acav:     7.976009967198323E-002
  Solving linear dielectric/ionic screening model
        iter                  A_solv                     rms
   LPB:       -0.500018695500486E+00   0.542662508148888E-01
   LPB:    0  -0.500018068503487E+00   0.501192121773752E-01  -0.195418E-03   0.000000E+00   0.328371E+02  -0.641697E-02
   LPB:    1  -0.500003113890107E+00   0.921918721030511E-02   0.127242E-01   0.000000E+00   0.668591E+02   0.271377E-18
   LPB:    2  -0.500001822075330E+00   0.379462976943911E-02   0.125655E-01   0.874732E-01   0.249482E+03   0.275550E-15
   LPB:    3  -0.500001511622525E+00   0.192177632153974E-02   0.190233E-01   0.158741E+00   0.106946E+03   0.276383E-15
   LPB:    4  -0.500001421573788E+00   0.111563005083495E-02   0.202727E-01   0.272179E+00   0.150819E+03   0.281434E-15
   LPB:    5  -0.500001373203585E+00   0.516641983041969E-03   0.248327E-01   0.438519E+00   0.213153E+03   0.288201E-15
   LPB:    6  -0.500001337157638E+00   0.338279150398943E-03   0.358646E-01   0.515985E+00   0.175426E+03   0.294888E-15
   LPB:    7  -0.500001305457669E+00   0.231524296380821E-03   0.393595E-01   0.801342E+00   0.152835E+03   0.302879E-15
  Finished solving LPB equations
  A_corr:   -0.420241205785686     
 End minimization
 Ecorr=   1471.05703707325     
 A_corr= -0.420241205785686     
 Ecorr_band=  -1471.47727827903     
 End Solvation calculations
RMM:  33    -0.135348057102E+03   -0.59366E-05   -0.34699E-06  2352   0.576E-03
 Begin Solvation calculations
  rms_SCF =   2.654997344467913E-003 tol =   2.654997344467913E-004
 Begin minimization
 Creating dielectric and ionic cavities
  area:      151.927474413319     
  volume:    679.526373245268     
  Acav:     7.976192406699262E-002
  Solving linear dielectric/ionic screening model
        iter                  A_solv                     rms
   LPB:       -0.500184373511490E+00   0.435421361629595E-01
   LPB:    0  -0.500183075153118E+00   0.336118786169990E-01  -0.281209E-03   0.000000E+00   0.328371E+02  -0.923410E-02
   LPB:    1  -0.500178368561726E+00   0.448221585899336E-02   0.996851E-02   0.000000E+00   0.639217E+02  -0.576966E-19
   LPB:    2  -0.500178010367187E+00   0.178745468912482E-02   0.136519E-01   0.555713E-01   0.123958E+03  -0.505919E-16
   LPB:    3  -0.500177958085258E+00   0.835472405005664E-03   0.157673E-01   0.126377E+00   0.140905E+03  -0.528618E-16
   LPB:    4  -0.500177938217437E+00   0.359777511689293E-03   0.242529E-01   0.247054E+00   0.898413E+02  -0.538569E-16
   LPB:    5  -0.500177923091015E+00   0.227676844246761E-03   0.321010E-01   0.575216E+00   0.213564E+03  -0.566449E-16
  Finished solving LPB equations
  A_corr:   -0.420415999024023     
 End minimization
 Ecorr=   1470.95466563180     
 A_corr= -0.420415999024023     
 Ecorr_band=  -1471.37508163082     
 End Solvation calculations
   1 F= -.13534806E+03 E0= -.13535014E+03  d E =-.135348E+03
quench:  g(F)=  0.000E+00 g(S)=  0.000E+00 dE (1.order)= 0.000E+00
 bond charge predicted
       N       E                     dE             d eps       ncg     rms          rms(c)
 Begin Solvation calculations
  rms_SCF =   2.654997344467913E-003 tol =   2.654997344467913E-004
 Begin minimization
 Creating dielectric and ionic cavities
  area:      151.963636943159     
  volume:    679.520149795256     
  Acav:     7.978090939515840E-002
  Solving linear dielectric/ionic screening model
        iter                  A_solv                     rms
   LPB:       -0.501074514040182E+00   0.249048720322505E-02
   LPB:    0  -0.501074514032202E+00   0.249396163887611E-02  -0.697142E-06   0.000000E+00   0.328374E+02  -0.228923E-04
   LPB:    1  -0.500531764817484E+00   0.981040850964889E-03   0.153272E-01   0.000000E+00   0.736392E+06  -0.393825E-21
   LPB:    2  -0.500488457654603E+00   0.872605166236426E-03   0.253582E-01   0.482288E-01   0.124622E+06  -0.357850E-17
   LPB:    3  -0.500476704370286E+00   0.154615669104154E-02   0.312758E-01   0.220044E+00   0.309113E+05   0.904474E-18
   LPB:    4  -0.500472014963012E+00   0.422374765459304E-02   0.344461E-01   0.362265E+00   0.422487E+04   0.657884E-17
   LPB:    5  -0.500469985585410E+00   0.837780467883629E-02   0.298076E-01   0.500101E+00   0.315027E+03   0.116626E-16
   LPB:    6  -0.500468909339609E+00   0.472586855387726E-02   0.191187E-01   0.826831E+00   0.191277E+03   0.187979E-16
   LPB:    7  -0.500467964562625E+00   0.251370627162018E-02   0.301168E-01   0.557272E+00   0.645618E+03   0.974551E-17
   LPB:    8  -0.500467410803578E+00   0.346243483440076E-02   0.311320E-01   0.567014E+00   0.232788E+03   0.204976E-16
   LPB:    9  -0.500467073667951E+00   0.200904260093415E-02   0.237960E-01   0.796504E+00   0.219649E+03   0.331732E-16
   LPB:   10  -0.500466800326881E+00   0.619165772854951E-03   0.331469E-01   0.582051E+00   0.417930E+03   0.269835E-16
   LPB:   11  -0.500466608164235E+00   0.305273912295080E-03   0.400635E-01   0.581644E+00   0.542850E+04  -0.940442E-17
   LPB:   12  -0.500466480411188E+00   0.331159055718556E-03   0.405904E-01   0.656187E+00   0.166733E+04  -0.273258E-16
   LPB:   13  -0.500466395922731E+00   0.430117542869566E-03   0.382230E-01   0.702304E+00   0.193293E+04  -0.406418E-16
   LPB:   14  -0.500466338327625E+00   0.363564648461633E-03   0.342750E-01   0.760212E+00   0.938970E+03  -0.476129E-16
   LPB:   15  -0.500466294940025E+00   0.220980481258736E-03   0.360188E-01   0.716852E+00   0.171203E+04  -0.534973E-16
  Finished solving LPB equations
  A_corr:   -0.420685385544866     
 End minimization
 Ecorr=   1470.89951189597     
 A_corr= -0.420685385544866     
 Ecorr_band=  -1471.32019728151     
 End Solvation calculations
DAV:   1    -0.135350658826E+03   -0.26077E-02   -0.42081E-02  4272   0.371E-01    0.589E-02
 Begin Solvation calculations
  rms_SCF =   2.654997344467913E-003 tol =   2.654997344467913E-004
 Begin minimization
 Creating dielectric and ionic cavities
  area:      151.931563053849     
  volume:    679.496059737043     
  Acav:     7.976407060327084E-002
  Solving linear dielectric/ionic screening model
        iter                  A_solv                     rms
   LPB:       -0.501215303458672E+00   0.100030274212969E+00
   LPB:    0  -0.501206900153258E+00   0.800424385995868E-01  -0.715399E-03   0.000000E+00   0.328385E+02  -0.234926E-01
   LPB:    1  -0.501157884666551E+00   0.251812441902146E-01   0.122491E-01   0.000000E+00   0.905399E+02   0.110063E-17
   LPB:    2  -0.501150694280990E+00   0.506466880439742E-02   0.134742E-01   0.133357E+00   0.215680E+03   0.134888E-15
   LPB:    3  -0.501148476883981E+00   0.408263270198277E-02   0.236904E-01   0.175397E+00   0.577712E+03   0.148611E-15
   LPB:    4  -0.501147762957162E+00   0.357503664500637E-02   0.220688E-01   0.345624E+00   0.156342E+03   0.162034E-15
   LPB:    5  -0.501147359091047E+00   0.170056018770864E-02   0.242339E-01   0.515157E+00   0.255003E+03   0.152627E-15
   LPB:    6  -0.501147127842989E+00   0.689183596444030E-03   0.324813E-01   0.427199E+00   0.285288E+03   0.175397E-15
   LPB:    7  -0.501146999243515E+00   0.404289573994035E-03   0.337228E-01   0.535637E+00   0.964944E+03   0.211445E-15
   LPB:    8  -0.501146919436020E+00   0.275326766756057E-03   0.348252E-01   0.600946E+00   0.806962E+03   0.233458E-15
   LPB:    9  -0.501146866407225E+00   0.206802831179886E-03   0.371519E-01   0.622845E+00   0.938191E+03   0.248128E-15
  Finished solving LPB equations
  A_corr:   -0.421382795803954     
 End minimization
 Ecorr=   1470.76071795677     
 A_corr= -0.421382795803954     
 Ecorr_band=  -1471.18210075257     
 End Solvation calculations
RMM:   2    -0.135350936639E+03   -0.27781E-03   -0.33120E-03  5800   0.112E-01    0.516E-02
 Begin Solvation calculations
  rms_SCF =   2.654997344467913E-003 tol =   2.654997344467913E-004
 Begin minimization
 Creating dielectric and ionic cavities
  area:      151.930788908979     
  volume:    679.497331058507     
  Acav:     7.976366417721396E-002
  Solving linear dielectric/ionic screening model
        iter                  A_solv                     rms
   LPB:       -0.501399508275083E+00   0.370484590391064E-01
   LPB:    0  -0.501398641139074E+00   0.317406900807312E-01  -0.229809E-03   0.000000E+00   0.328385E+02  -0.754658E-02
   LPB:    1  -0.501392821586742E+00   0.842802823929030E-02   0.113246E-01   0.000000E+00   0.832245E+02  -0.222581E-18
   LPB:    2  -0.501391547959810E+00   0.181826234120107E-02   0.151202E-01   0.163915E+00   0.195520E+03  -0.304719E-17
   LPB:    3  -0.501391315742788E+00   0.142774756750863E-02   0.250422E-01   0.110087E+00   0.251222E+03   0.148992E-16
   LPB:    4  -0.501391238018497E+00   0.103096480919099E-02   0.231414E-01   0.362197E+00   0.153218E+03   0.165280E-16
   LPB:    5  -0.501391197436534E+00   0.601203569344116E-03   0.243517E-01   0.496177E+00   0.310819E+03   0.132896E-16
   LPB:    6  -0.501391165448173E+00   0.290565435473112E-03   0.356551E-01   0.538354E+00   0.204139E+03   0.126369E-16
   LPB:    7  -0.501391138721118E+00   0.248695023673706E-03   0.408778E-01   0.728774E+00   0.627868E+03   0.140018E-16
  Finished solving LPB equations
  A_corr:   -0.421627474543904     
 End minimization
 Ecorr=   1470.70420840203     
 A_corr= -0.421627474543904     
 Ecorr_band=  -1471.12583587657     
 End Solvation calculations
RMM:   3    -0.135350868378E+03    0.68261E-04   -0.18025E-04  3953   0.253E-02    0.376E-02
 Begin Solvation calculations
  rms_SCF =   2.654997344467913E-003 tol =   2.654997344467913E-004
 Begin minimization
 Creating dielectric and ionic cavities
  area:      151.930224023924     
  volume:    679.498143052299     
  Acav:     7.976336761256003E-002
  Solving linear dielectric/ionic screening model
        iter                  A_solv                     rms
   LPB:       -0.501665408452881E+00   0.551330581510310E-01
   LPB:    0  -0.501664619222719E+00   0.516380656667206E-01  -0.219243E-03   0.000000E+00   0.328384E+02  -0.719960E-02
   LPB:    1  -0.501653701879289E+00   0.757268873989368E-02   0.991732E-02   0.000000E+00   0.801680E+02  -0.209185E-18
   LPB:    2  -0.501652497856519E+00   0.118152864556180E-02   0.137291E-01   0.796655E-01   0.240094E+03   0.114049E-16
   LPB:    3  -0.501652287671715E+00   0.117807200945587E-02   0.244977E-01   0.978326E-01   0.670444E+03   0.584208E-17
   LPB:    4  -0.501652226790234E+00   0.927931771042784E-03   0.224278E-01   0.316390E+00   0.130892E+03   0.241789E-17
   LPB:    5  -0.501652190914749E+00   0.587495817822754E-03   0.261662E-01   0.505078E+00   0.315730E+03   0.206920E-17
   LPB:    6  -0.501652164781909E+00   0.283131112734787E-03   0.334974E-01   0.569008E+00   0.165657E+03   0.770695E-17
   LPB:    7  -0.501652144737908E+00   0.182353303567501E-03   0.368226E-01   0.697741E+00   0.442045E+03   0.607974E-17
  Finished solving LPB equations
  A_corr:   -0.421888777125348     
 End minimization
 Ecorr=   1470.63345469341     
 A_corr= -0.421888777125348     
 Ecorr_band=  -1471.05534347053     
 End Solvation calculations
RMM:   4    -0.135350868016E+03    0.36163E-06   -0.58140E-05  2847   0.230E-02
 Begin Solvation calculations
  rms_SCF =   2.654997344467913E-003 tol =   2.654997344467913E-004
 Begin minimization
 Creating dielectric and ionic cavities
  area:      151.924505176801     
  volume:    679.496596322826     
  Acav:     7.976036521782058E-002
  Solving linear dielectric/ionic screening model
        iter                  A_solv                     rms
   LPB:       -0.502593725184226E+00   0.853986482205788E-01
   LPB:    0  -0.502582969010473E+00   0.506172156659763E-01  -0.809379E-03   0.000000E+00   0.328385E+02  -0.265788E-01
   LPB:    1  -0.502532833927485E+00   0.149138763127129E-01   0.155830E-01   0.000000E+00   0.110800E+03   0.627556E-18
   LPB:    2  -0.502527996327498E+00   0.695901416942095E-02   0.164860E-01   0.912061E-01   0.196592E+03  -0.113215E-15
   LPB:    3  -0.502526479003895E+00   0.241873678134971E-02   0.208332E-01   0.248203E+00   0.140115E+03  -0.167218E-15
   LPB:    4  -0.502525878134985E+00   0.108172305875086E-02   0.291150E-01   0.283362E+00   0.602799E+03  -0.184469E-15
   LPB:    5  -0.502525620035945E+00   0.184591809454300E-02   0.314006E-01   0.398276E+00   0.352407E+03  -0.201075E-15
   LPB:    6  -0.502525500782240E+00   0.227684328890915E-02   0.233555E-01   0.621203E+00   0.139920E+03  -0.215500E-15
   LPB:    7  -0.502525417449682E+00   0.970283906004904E-03   0.218527E-01   0.746840E+00   0.208725E+03  -0.221874E-15
   LPB:    8  -0.502525352754385E+00   0.350133413077922E-03   0.308142E-01   0.550569E+00   0.327263E+03  -0.225029E-15
   LPB:    9  -0.502525307802479E+00   0.232254519062397E-03   0.360810E-01   0.593400E+00   0.494276E+03  -0.226653E-15
  Finished solving LPB equations
  A_corr:   -0.422764942584658     
 End minimization
 Ecorr=   1470.40951807595     
 A_corr= -0.422764942584658     
 Ecorr_band=  -1470.83228301853     
 End Solvation calculations
   2 F= -.13535087E+03 E0= -.13535294E+03  d E =-.281091E-02
quench:  g(F)=  0.000E+00 g(S)=  0.000E+00 dE (1.order)= 0.000E+00
 bond charge predicted
       N       E                     dE             d eps       ncg     rms          rms(c)
 Begin Solvation calculations
  rms_SCF =   2.654997344467913E-003 tol =   2.654997344467913E-004
 Begin minimization
 Creating dielectric and ionic cavities
  area:      152.009735864751     
  volume:    679.477376376483     
  Acav:     7.980511132899443E-002
  Solving linear dielectric/ionic screening model
        iter                  A_solv                     rms
   LPB:       -0.505147944993818E+00   0.457729700148301E-02
   LPB:    0  -0.505147944921372E+00   0.459893884466710E-02  -0.210051E-05   0.000000E+00   0.328394E+02  -0.689795E-04
   LPB:    1  -0.503410718676394E+00   0.182056464035625E-02   0.152993E-01   0.000000E+00   0.675620E+06  -0.660028E-20
   LPB:    2  -0.503276163771711E+00   0.190925073277371E-02   0.253399E-01   0.467637E-01   0.116964E+06  -0.229804E-17
   LPB:    3  -0.503239799908739E+00   0.383103646994294E-02   0.312045E-01   0.219462E+00   0.238489E+05  -0.234983E-17
   LPB:    4  -0.503225392205867E+00   0.104491469195826E-01   0.339629E-01   0.364030E+00   0.226531E+04   0.305807E-17
   LPB:    5  -0.503219546278956E+00   0.165944124590331E-01   0.256630E-01   0.536978E+00   0.226169E+03   0.727666E-17
   LPB:    6  -0.503215662586338E+00   0.609349485538276E-02   0.196940E-01   0.865693E+00   0.239526E+03  -0.126246E-16
   LPB:    7  -0.503212509012771E+00   0.259842257749034E-02   0.344243E-01   0.464545E+00   0.134485E+04  -0.249534E-16
   LPB:    8  -0.503210628523631E+00   0.444101641963583E-02   0.362268E-01   0.566635E+00   0.448391E+03  -0.363278E-16
   LPB:    9  -0.503209645277455E+00   0.466381014915039E-02   0.264021E-01   0.717434E+00   0.224487E+03  -0.435290E-16
   LPB:   10  -0.503208896584724E+00   0.182173196857871E-02   0.273266E-01   0.735690E+00   0.209288E+03  -0.147645E-16
   LPB:   11  -0.503208322272312E+00   0.691693150023994E-03   0.376038E-01   0.557440E+00   0.211613E+04   0.335728E-16
   LPB:   12  -0.503207940906809E+00   0.546435697132999E-03   0.399709E-01   0.624713E+00   0.136591E+04   0.578204E-16
   LPB:   13  -0.503207692891948E+00   0.656386725072397E-03   0.386399E-01   0.672735E+00   0.153020E+04   0.713260E-16
   LPB:   14  -0.503207529310182E+00   0.571955711036616E-03   0.350043E-01   0.728068E+00   0.108786E+04   0.807291E-16
   LPB:   15  -0.503207415732661E+00   0.372922711685224E-03   0.355366E-01   0.683917E+00   0.130957E+04   0.867760E-16
   LPB:   16  -0.503207328602210E+00   0.246289367063315E-03   0.393243E-01   0.693253E+00   0.182896E+04   0.909787E-16
  Finished solving LPB equations
  A_corr:   -0.423402217273216     
 End minimization
 Ecorr=   1470.31169776759     
 A_corr= -0.423402217273216     
 Ecorr_band=  -1470.73509998486     
 End Solvation calculations
DAV:   1    -0.135353677115E+03   -0.28087E-02   -0.13396E-01  4164   0.714E-01    0.103E-01
 Begin Solvation calculations
  rms_SCF =   2.654997344467913E-003 tol =   2.654997344467913E-004
 Begin minimization
 Creating dielectric and ionic cavities
  area:      151.946594644821     
  volume:    679.441416700492     
  Acav:     7.977196218853112E-002
  Solving linear dielectric/ionic screening model
        iter                  A_solv                     rms
   LPB:       -0.505064345792960E+00   0.190925073552395E+00
   LPB:    0  -0.505030556555503E+00   0.148937339508950E+00  -0.143448E-02   0.000000E+00   0.328411E+02  -0.471100E-01
   LPB:    1  -0.504834165780457E+00   0.548830436642699E-01   0.125595E-01   0.000000E+00   0.984235E+02   0.164020E-17
   LPB:    2  -0.504805690798936E+00   0.989687737992036E-02   0.132125E-01   0.137825E+00   0.170972E+03  -0.227100E-16
   LPB:    3  -0.504797160098018E+00   0.731062268309927E-02   0.233591E-01   0.169454E+00   0.526665E+03  -0.171325E-16
   LPB:    4  -0.504794469086195E+00   0.684558831227280E-02   0.228785E-01   0.322076E+00   0.159801E+03  -0.133163E-16
   LPB:    5  -0.504793059974029E+00   0.355553336236085E-02   0.231146E-01   0.518290E+00   0.245052E+03   0.385644E-16
   LPB:    6  -0.504792248364718E+00   0.133161422058911E-02   0.315023E-01   0.422615E+00   0.228993E+03   0.953462E-16
   LPB:    7  -0.504791812782798E+00   0.776679705761411E-03   0.330773E-01   0.511134E+00   0.892994E+03   0.147543E-15
   LPB:    8  -0.504791553831284E+00   0.502955128634897E-03   0.339758E-01   0.578773E+00   0.630433E+03   0.160964E-15
   LPB:    9  -0.504791390765347E+00   0.383075772371460E-03   0.360428E-01   0.593604E+00   0.796502E+03   0.167017E-15
   LPB:   10  -0.504791287003361E+00   0.312460616315731E-03   0.370675E-01   0.618728E+00   0.780699E+03   0.171245E-15
   LPB:   11  -0.504791219210550E+00   0.289448527840680E-03   0.372477E-01   0.650188E+00   0.833766E+03   0.173518E-15
   LPB:   12  -0.504791173288584E+00   0.272371103832779E-03   0.364753E-01   0.691733E+00   0.774105E+03   0.175084E-15
   LPB:   13  -0.504791140587144E+00   0.230232627139070E-03   0.363902E-01   0.713772E+00   0.903401E+03   0.176274E-15
  Finished solving LPB equations
  A_corr:   -0.425019178398613     
 End minimization
 Ecorr=   1469.97840131339     
 A_corr= -0.425019178398613     
 Ecorr_band=  -1470.40342049179     
 End Solvation calculations
RMM:   2    -0.135354517333E+03   -0.84022E-03   -0.10398E-02  5886   0.213E-01    0.864E-02
 Begin Solvation calculations
  rms_SCF =   2.654997344467913E-003 tol =   2.654997344467913E-004
 Begin minimization
 Creating dielectric and ionic cavities
  area:      151.946734876231     
  volume:    679.446598331152     
  Acav:     7.977203581002121E-002
  Solving linear dielectric/ionic screening model
        iter                  A_solv                     rms
   LPB:       -0.505439560316239E+00   0.592656868321471E-01
   LPB:    0  -0.505435212813273E+00   0.415090246932865E-01  -0.514550E-03   0.000000E+00   0.328409E+02  -0.168983E-01
   LPB:    1  -0.505411403627695E+00   0.157674610403971E-01   0.149882E-01   0.000000E+00   0.100593E+03   0.149694E-17
   LPB:    2  -0.505408218566443E+00   0.634789135052764E-02   0.126140E-01   0.158953E+00   0.225187E+03   0.316381E-16
   LPB:    3  -0.505407244709007E+00   0.315486438395704E-02   0.218265E-01   0.176704E+00   0.146694E+03   0.359254E-16
   LPB:    4  -0.505406914951288E+00   0.215001424977655E-02   0.242880E-01   0.304293E+00   0.153553E+03   0.356708E-16
   LPB:    5  -0.505406762063353E+00   0.130122647391184E-02   0.225071E-01   0.500323E+00   0.296708E+03   0.364217E-16
   LPB:    6  -0.505406665306979E+00   0.482926123602490E-03   0.296077E-01   0.481084E+00   0.171564E+03   0.491465E-16
   LPB:    7  -0.505406610163759E+00   0.325692630943984E-03   0.342938E-01   0.492040E+00   0.740125E+03   0.569219E-16
   LPB:    8  -0.505406573797000E+00   0.251020423559613E-03   0.366848E-01   0.616514E+00   0.333755E+03   0.635023E-16
  Finished solving LPB equations
  A_corr:   -0.425634537986978     
 End minimization
 Ecorr=   1469.84467124174     
 A_corr= -0.425634537986978     
 Ecorr_band=  -1470.27030577972     
 End Solvation calculations
RMM:   3    -0.135354305223E+03    0.21211E-03   -0.62352E-04  5625   0.449E-02    0.587E-02
 Begin Solvation calculations
  rms_SCF =   2.654997344467913E-003 tol =   2.654997344467913E-004
 Begin minimization
 Creating dielectric and ionic cavities
  area:      151.946720174987     
  volume:    679.451275296943     
  Acav:     7.977202809186834E-002
  Solving linear dielectric/ionic screening model
        iter                  A_solv                     rms
   LPB:       -0.506215785063992E+00   0.105248669277228E+00
   LPB:    0  -0.506210267961949E+00   0.926789506299164E-01  -0.579649E-03   0.000000E+00   0.328406E+02  -0.190360E-01
   LPB:    1  -0.506162704023979E+00   0.223164635158102E-01   0.107217E-01   0.000000E+00   0.897563E+02   0.104486E-17
   LPB:    2  -0.506156493756229E+00   0.309818674264223E-02   0.133809E-01   0.104619E+00   0.183582E+03  -0.819923E-17
   LPB:    3  -0.506155278306702E+00   0.260002141465932E-02   0.237236E-01   0.110390E+00   0.470517E+03  -0.267380E-16
   LPB:    4  -0.506154939444130E+00   0.217466051950933E-02   0.228289E-01   0.289722E+00   0.134831E+03  -0.355677E-16
   LPB:    5  -0.506154773620456E+00   0.136076774586140E-02   0.234486E-01   0.476422E+00   0.294682E+03  -0.548692E-16
   LPB:    6  -0.506154668867155E+00   0.526300700782921E-03   0.313715E-01   0.472175E+00   0.143354E+03  -0.702302E-16
   LPB:    7  -0.506154601530466E+00   0.333907098439569E-03   0.339154E-01   0.594596E+00   0.414394E+03  -0.807545E-16
   LPB:    8  -0.506154554867074E+00   0.210502896143092E-03   0.365063E-01   0.643805E+00   0.257226E+03  -0.897436E-16
  Finished solving LPB equations
  A_corr:   -0.426382526775205     
 End minimization
 Ecorr=   1469.65311669820     
 A_corr= -0.426382526775205     
 Ecorr_band=  -1470.07949922498     
 End Solvation calculations
RMM:   4    -0.135354325909E+03   -0.20686E-04   -0.20650E-04  3896   0.304E-02    0.729E-02
 Begin Solvation calculations
  rms_SCF =   2.654997344467913E-003 tol =   2.654997344467913E-004
 Begin minimization
 Creating dielectric and ionic cavities
  area:      151.944136194170     
  volume:    679.457432182989     
  Acav:     7.977067150193901E-002
  Solving linear dielectric/ionic screening model
        iter                  A_solv                     rms
   LPB:       -0.508049667933125E+00   0.146533751860133E+00
   LPB:    0  -0.508017679926264E+00   0.876509031481316E-01  -0.139574E-02   0.000000E+00   0.328403E+02  -0.458366E-01
   LPB:    1  -0.507855674491411E+00   0.230713607895750E-01   0.161499E-01   0.000000E+00   0.113361E+03  -0.190454E-17
   LPB:    2  -0.507841195587675E+00   0.134206264896605E-01   0.168282E-01   0.857703E-01   0.216641E+03   0.590926E-15
   LPB:    3  -0.507836817689397E+00   0.706879775873102E-02   0.197648E-01   0.257440E+00   0.109098E+03   0.694145E-15
   LPB:    4  -0.507835110543392E+00   0.582053007568019E-02   0.254072E-01   0.303347E+00   0.228735E+03   0.753204E-15
   LPB:    5  -0.507834451311440E+00   0.421461842207721E-02   0.206943E-01   0.474106E+00   0.174680E+03   0.785845E-15
   LPB:    6  -0.507833976876778E+00   0.150013982917029E-02   0.230313E-01   0.646651E+00   0.186793E+03   0.799003E-15
   LPB:    7  -0.507833665712094E+00   0.849018367945975E-03   0.323015E-01   0.467637E+00   0.396725E+03   0.819436E-15
   LPB:    8  -0.507833472400418E+00   0.537360438211700E-03   0.341102E-01   0.588311E+00   0.284895E+03   0.834189E-15
   LPB:    9  -0.507833346572654E+00   0.393249162186666E-03   0.358893E-01   0.618640E+00   0.361492E+03   0.847856E-15
   LPB:   10  -0.507833264614636E+00   0.329245361468721E-03   0.364542E-01   0.641257E+00   0.335235E+03   0.856728E-15
   LPB:   11  -0.507833210587950E+00   0.290797482215218E-03   0.357989E-01   0.671266E+00   0.408482E+03   0.863648E-15
   LPB:   12  -0.507833173504203E+00   0.219331696980324E-03   0.359532E-01   0.683450E+00   0.344700E+03   0.868218E-15
  Finished solving LPB equations
  A_corr:   -0.428062502002264     
 End minimization
 Ecorr=   1469.20694725329     
 A_corr= -0.428062502002264     
 Ecorr_band=  -1469.63500975529     
 End Solvation calculations
RMM:   5    -0.135354229880E+03    0.96029E-04   -0.88265E-05  3173   0.266E-02    0.168E-02
 Begin Solvation calculations
  rms_SCF =   2.654997344467913E-003 tol =   2.654997344467913E-004
 Begin minimization
 Creating dielectric and ionic cavities
  area:      151.958026486955     
  volume:    679.473899997713     
  Acav:     7.977796390565112E-002
  Solving linear dielectric/ionic screening model
        iter                  A_solv                     rms
   LPB:       -0.508961852180457E+00   0.118401329643579E+00
   LPB:    0  -0.508950733642702E+00   0.941993600158859E-01  -0.822887E-03   0.000000E+00   0.328396E+02  -0.270233E-01
   LPB:    1  -0.508883151744677E+00   0.329504360767268E-01   0.116495E-01   0.000000E+00   0.967237E+02  -0.887902E-18
   LPB:    2  -0.508874187474900E+00   0.445029578157457E-02   0.128415E-01   0.120331E+00   0.125837E+03   0.296263E-16
   LPB:    3  -0.508872381021011E+00   0.339722978982018E-02   0.219574E-01   0.117854E+00   0.341025E+03   0.256766E-16
   LPB:    4  -0.508871863877260E+00   0.269076805751571E-02   0.227719E-01   0.276036E+00   0.112378E+03   0.208856E-16
   LPB:    5  -0.508871621215056E+00   0.159466429630173E-02   0.227283E-01   0.470137E+00   0.320016E+03   0.915320E-17
   LPB:    6  -0.508871486202252E+00   0.522249038626600E-03   0.297404E-01   0.425199E+00   0.132148E+03  -0.366168E-17
   LPB:    7  -0.508871409223941E+00   0.382026046143935E-03   0.330489E-01   0.513078E+00   0.300863E+03  -0.480022E-17
   LPB:    8  -0.508871352577855E+00   0.261849072536956E-03   0.381829E-01   0.636927E+00   0.174285E+03  -0.393305E-17
  Finished solving LPB equations
  A_corr:   -0.429093388672204     
 End minimization
 Ecorr=   1468.90811404006     
 A_corr= -0.429093388672204     
 Ecorr_band=  -1469.33720742874     
 End Solvation calculations
RMM:   6    -0.135354231356E+03   -0.14758E-05   -0.56086E-05  3510   0.345E-02
 Begin Solvation calculations
  rms_SCF =   2.654997344467913E-003 tol =   2.654997344467913E-004
 Begin minimization
 Creating dielectric and ionic cavities
  area:      151.969295140118     
  volume:    679.485486141212     
  Acav:     7.978387994856183E-002
  Solving linear dielectric/ionic screening model
        iter                  A_solv                     rms
   LPB:       -0.509502361386734E+00   0.554518867633478E-01
   LPB:    0  -0.509498348697200E+00   0.342384444487711E-01  -0.494353E-03   0.000000E+00   0.328390E+02  -0.162341E-01
   LPB:    1  -0.509481186612486E+00   0.109722719073041E-01   0.152625E-01   0.000000E+00   0.843722E+02  -0.829519E-18
   LPB:    2  -0.509479671873755E+00   0.374259208400444E-02   0.149596E-01   0.900479E-01   0.121278E+03   0.410833E-16
   LPB:    3  -0.509479281542989E+00   0.174021569110688E-02   0.191669E-01   0.201124E+00   0.169774E+03   0.550622E-16
   LPB:    4  -0.509479139309798E+00   0.186214160764874E-02   0.217982E-01   0.320404E+00   0.128493E+03   0.289507E-16
   LPB:    5  -0.509479060442774E+00   0.143019940241293E-02   0.220109E-01   0.549134E+00   0.193741E+03   0.226241E-16
   LPB:    6  -0.509478986860061E+00   0.501911278566947E-03   0.329023E-01   0.624153E+00   0.806651E+02   0.182908E-16
   LPB:    7  -0.509478924679267E+00   0.328280857628956E-03   0.380287E-01   0.731132E+00   0.136766E+03   0.240954E-16
   LPB:    8  -0.509478878422140E+00   0.247615320700976E-03   0.373803E-01   0.756816E+00   0.122275E+03   0.289216E-16
  Finished solving LPB equations
  A_corr:   -0.429694998473578     
 End minimization
 Ecorr=   1468.68810214730     
 A_corr= -0.429694998473578     
 Ecorr_band=  -1469.11779714577     
 End Solvation calculations
   3 F= -.13535423E+03 E0= -.13535632E+03  d E =-.336334E-02
quench:  g(F)=  0.000E+00 g(S)=  0.000E+00 dE (1.order)= 0.000E+00
 bond charge predicted
       N       E                     dE             d eps       ncg     rms          rms(c)
 Begin Solvation calculations
  rms_SCF =   2.654997344467913E-003 tol =   2.654997344467913E-004
 Begin minimization
 Creating dielectric and ionic cavities
  area:      152.116028955972     
  volume:    679.432814852600     
  Acav:     7.986091520188536E-002
  Solving linear dielectric/ionic screening model
        iter                  A_solv                     rms
   LPB:       -0.513629014817219E+00   0.616959833689214E-02
   LPB:    0  -0.513629014292054E+00   0.628693869369250E-02  -0.565524E-05   0.000000E+00   0.328415E+02  -0.185727E-03
   LPB:    1  -0.511112695062775E+00   0.254643929811714E-02   0.152267E-01   0.000000E+00   0.466962E+06  -0.729521E-21
   LPB:    2  -0.510935764047405E+00   0.293511790577075E-02   0.254466E-01   0.420740E-01   0.808105E+05  -0.518815E-17
   LPB:    3  -0.510886886979150E+00   0.639189709168689E-02   0.314661E-01   0.223403E+00   0.152110E+05  -0.425086E-17
   LPB:    4  -0.510867160015794E+00   0.168331286981955E-01   0.334291E-01   0.379903E+00   0.114228E+04  -0.486144E-17
   LPB:    5  -0.510859226279578E+00   0.191179065516197E-01   0.218440E-01   0.615475E+00   0.180424E+03   0.256798E-17
   LPB:    6  -0.510852649340946E+00   0.532754491507714E-02   0.227881E-01   0.794640E+00   0.347461E+03   0.884949E-17
   LPB:    7  -0.510847818798727E+00   0.109135854740977E-02   0.371979E-01   0.449947E+00   0.156373E+04   0.159674E-16
   LPB:    8  -0.510844847665606E+00   0.122105293957256E-02   0.394932E-01   0.579326E+00   0.364932E+04   0.202220E-16
   LPB:    9  -0.510843072022267E+00   0.199329855337762E-02   0.385733E-01   0.611884E+00   0.775694E+03   0.232984E-16
   LPB:   10  -0.510842046853745E+00   0.348330206615389E-02   0.347213E-01   0.641402E+00   0.740928E+03   0.229336E-16
   LPB:   11  -0.510841420437040E+00   0.313883438904109E-02   0.278682E-01   0.761299E+00   0.147217E+03   0.660449E-16
   LPB:   12  -0.510840953943307E+00   0.190778489966564E-02   0.289163E-01   0.717708E+00   0.439280E+03   0.128173E-15
   LPB:   13  -0.510840621660404E+00   0.123394132051177E-02   0.327819E-01   0.628305E+00   0.298445E+03   0.181336E-15
   LPB:   14  -0.510840382251772E+00   0.700772172142068E-03   0.323593E-01   0.729907E+00   0.990747E+03   0.204766E-15
   LPB:   15  -0.510840215760971E+00   0.375306274791727E-03   0.359662E-01   0.625683E+00   0.865962E+03   0.218167E-15
   LPB:   16  -0.510840095217540E+00   0.300811469435504E-03   0.393414E-01   0.661909E+00   0.136775E+04   0.231091E-15
   LPB:   17  -0.510840019417083E+00   0.340699095023498E-03   0.376460E-01   0.657142E+00   0.114952E+04   0.239635E-15
   LPB:   18  -0.510839967360083E+00   0.332753522601612E-03   0.366400E-01   0.705620E+00   0.103778E+04   0.245923E-15
   LPB:   19  -0.510839928209610E+00   0.227308665809467E-03   0.365097E-01   0.754753E+00   0.104706E+04   0.250216E-15
  Finished solving LPB equations
  A_corr:   -0.430979013007724     
 End minimization
 Ecorr=   1468.51130446504     
 A_corr= -0.430979013007724     
 Ecorr_band=  -1468.94228347805     
 End Solvation calculations
DAV:   1    -0.135355993177E+03   -0.17633E-02   -0.19456E-01  4326   0.102E+00    0.986E-02
 Begin Solvation calculations
  rms_SCF =   2.654997344467913E-003 tol =   2.654997344467913E-004
 Begin minimization
 Creating dielectric and ionic cavities
  area:      152.018780849912     
  volume:    679.410707045906     
  Acav:     7.980985994620396E-002
  Solving linear dielectric/ionic screening model
        iter                  A_solv                     rms
   LPB:       -0.512815361253866E+00   0.184822703360760E+00
   LPB:    0  -0.512781016664634E+00   0.138520055686526E+00  -0.144619E-02   0.000000E+00   0.328425E+02  -0.474966E-01
   LPB:    1  -0.512622310839779E+00   0.502912372845871E-01   0.122284E-01   0.000000E+00   0.931194E+02   0.252479E-17
   LPB:    2  -0.512599438376561E+00   0.844736820488181E-02   0.132265E-01   0.133243E+00   0.145530E+03  -0.709768E-15
   LPB:    3  -0.512593546789458E+00   0.697331961078260E-02   0.225256E-01   0.151247E+00   0.430189E+03  -0.814528E-15
   LPB:    4  -0.512591670926587E+00   0.562271003418983E-02   0.218548E-01   0.328170E+00   0.125568E+03  -0.838738E-15
   LPB:    5  -0.512590671436280E+00   0.271613446203871E-02   0.237735E-01   0.489814E+00   0.286997E+03  -0.852759E-15
[...]
   LPB:   14  -0.579673329727552E+00   0.139956269875865E-03   0.339447E-01   0.722058E+00   0.136859E+04  -0.104480E-16
   LPB:   15  -0.579673322873091E+00   0.816408791589961E-04   0.349703E-01   0.681419E+00   0.193173E+04  -0.111182E-16
   LPB:   16  -0.579673317955002E+00   0.600812873488971E-04   0.392283E-01   0.639621E+00   0.283557E+04  -0.115775E-16
   LPB:   17  -0.579673314648230E+00   0.618422153793345E-04   0.385618E-01   0.683991E+00   0.256793E+04  -0.120436E-16
   LPB:   18  -0.579673312364492E+00   0.635379069145816E-04   0.379948E-01   0.700931E+00   0.169913E+04  -0.130317E-16
   LPB:   19  -0.579673310707837E+00   0.491457963838181E-04   0.368828E-01   0.747283E+00   0.156069E+04  -0.142226E-16
   LPB:   20  -0.579673309427544E+00   0.297890313480215E-04   0.386101E-01   0.738246E+00   0.251986E+04  -0.147850E-16
  Finished solving LPB equations
  A_corr:   -0.499281345919458     
 End minimization
 Ecorr=   1456.27211882908     
 A_corr= -0.499281345919458     
 Ecorr_band=  -1456.77140017500     
 End Solvation calculations
DAV:   1    -0.135376236822E+03    0.78347E-04   -0.49251E-03  4584   0.135E-01    0.203E-02
 Begin Solvation calculations
  rms_SCF =   4.047389913340127E-004 tol =   4.047389913340127E-005
 Begin minimization
 Creating dielectric and ionic cavities
  area:      153.132775049352     
  volume:    678.293804539615     
  Acav:     8.039470690091005E-002
  Solving linear dielectric/ionic screening model
        iter                  A_solv                     rms
   LPB:       -0.579594762926284E+00   0.233726550051417E-01
   LPB:    0  -0.579594701907877E+00   0.228068511137859E-01   0.609090E-04   0.000000E+00   0.328949E+02   0.200359E-02
   LPB:    1  -0.579592008658833E+00   0.496017424147853E-02   0.108301E-01   0.000000E+00   0.875402E+02   0.906066E-19
   LPB:    2  -0.579591528879853E+00   0.832100593495772E-03   0.149189E-01   0.129319E+00   0.356505E+03   0.420931E-17
   LPB:    3  -0.579591393371583E+00   0.470261933165578E-03   0.265312E-01   0.158820E+00   0.939837E+03  -0.117294E-17
   LPB:    4  -0.579591346767934E+00   0.554992062768894E-03   0.296555E-01   0.307684E+00   0.481140E+03  -0.420204E-17
   LPB:    5  -0.579591326284006E+00   0.563656905472081E-03   0.251875E-01   0.517504E+00   0.283364E+03  -0.411633E-17
   LPB:    6  -0.579591313687663E+00   0.349435567912239E-03   0.263759E-01   0.587232E+00   0.182870E+03  -0.271797E-17
   LPB:    7  -0.579591305627093E+00   0.182939738499013E-03   0.304613E-01   0.554089E+00   0.370033E+03  -0.241461E-17
   LPB:    8  -0.579591300355100E+00   0.927739557290539E-04   0.337223E-01   0.590799E+00   0.589356E+03  -0.106513E-16
   LPB:    9  -0.579591296890876E+00   0.537913826623130E-04   0.364093E-01   0.608606E+00   0.109975E+04  -0.164422E-16
   LPB:   10  -0.579591294625067E+00   0.443204767477795E-04   0.375756E-01   0.633758E+00   0.138460E+04  -0.206879E-16
   LPB:   11  -0.579591293139200E+00   0.433685203134406E-04   0.372302E-01   0.661861E+00   0.128747E+04  -0.234948E-16
   LPB:   12  -0.579591292141143E+00   0.404958395088080E-04   0.363570E-01   0.687834E+00   0.117714E+04  -0.252997E-16
   LPB:   13  -0.579591291442849E+00   0.336299655215858E-04   0.360040E-01   0.706512E+00   0.122124E+04  -0.265122E-16
  Finished solving LPB equations
  A_corr:   -0.499196584541939     
 End minimization
 Ecorr=   1456.28986828671     
 A_corr= -0.499196584541939     
 Ecorr_band=  -1456.78906487125     
 End Solvation calculations
RMM:   2    -0.135376266196E+03   -0.29373E-04   -0.33120E-04  4137   0.375E-02    0.167E-02
 Begin Solvation calculations
  rms_SCF =   4.047389913340127E-004 tol =   4.047389913340127E-005
 Begin minimization
 Creating dielectric and ionic cavities
  area:      153.131982387538     
  volume:    678.295051147299     
  Acav:     8.039429075345736E-002
  Solving linear dielectric/ionic screening model
        iter                  A_solv                     rms
   LPB:       -0.579531046747225E+00   0.107403360579137E-01
   LPB:    0  -0.579530988825248E+00   0.957772105389213E-02   0.593435E-04   0.000000E+00   0.328948E+02   0.195209E-02
   LPB:    1  -0.579530608795667E+00   0.174963865316425E-02   0.103300E-01   0.000000E+00   0.735747E+02  -0.317275E-20
   LPB:    2  -0.579530526728483E+00   0.370233811903954E-03   0.168630E-01   0.132288E+00   0.175969E+03  -0.119180E-17
   LPB:    3  -0.579530514587327E+00   0.365365057745332E-03   0.235372E-01   0.105991E+00   0.333119E+03  -0.238009E-17
   LPB:    4  -0.579530509947904E+00   0.238835265079128E-03   0.216955E-01   0.414561E+00   0.172484E+03  -0.333816E-17
   LPB:    5  -0.579530507227712E+00   0.124071630839233E-03   0.277365E-01   0.458622E+00   0.291812E+03  -0.551859E-17
   LPB:    6  -0.579530505538136E+00   0.719754237492653E-04   0.317642E-01   0.542365E+00   0.442529E+03  -0.714419E-17
   LPB:    7  -0.579530504391860E+00   0.438592075981931E-04   0.352454E-01   0.611430E+00   0.705992E+03  -0.898733E-17
   LPB:    8  -0.579530503552873E+00   0.308016185489449E-04   0.390147E-01   0.661211E+00   0.114916E+04  -0.989245E-17
  Finished solving LPB equations
  A_corr:   -0.499136212799416     
 End minimization
 Ecorr=   1456.29669189454     
 A_corr= -0.499136212799416     
 Ecorr_band=  -1456.79582810734     
 End Solvation calculations
RMM:   3    -0.135376259461E+03    0.67345E-05   -0.19055E-05  2369   0.171E-02
 Begin Solvation calculations
  rms_SCF =   4.047389913340127E-004 tol =   4.047389913340127E-005
 Begin minimization
 Creating dielectric and ionic cavities
  area:      153.131860173837     
  volume:    678.295359329825     
  Acav:     8.039422659126436E-002
  Solving linear dielectric/ionic screening model
        iter                  A_solv                     rms
   LPB:       -0.579492073325352E+00   0.315867420024036E-02
   LPB:    0  -0.579492058981698E+00   0.209562027181898E-02   0.295312E-04   0.000000E+00   0.328948E+02   0.971424E-03
   LPB:    1  -0.579491862918941E+00   0.547114664261046E-03   0.171074E-01   0.000000E+00   0.253543E+03   0.329080E-19
   LPB:    2  -0.579491841496075E+00   0.676566056339221E-03   0.187476E-01   0.997057E-01   0.429914E+03  -0.145958E-16
   LPB:    3  -0.579491834538589E+00   0.420481197816959E-03   0.169300E-01   0.359636E+00   0.127217E+03  -0.163611E-16
   LPB:    4  -0.579491830752996E+00   0.161078804314613E-03   0.243183E-01   0.378796E+00   0.253415E+03  -0.160321E-16
   LPB:    5  -0.579491828766816E+00   0.168119677730273E-03   0.287143E-01   0.444343E+00   0.420952E+03  -0.164967E-16
   LPB:    6  -0.579491827397676E+00   0.146490963738181E-03   0.274493E-01   0.721102E+00   0.167258E+03  -0.175232E-16
   LPB:    7  -0.579491826340165E+00   0.968496979123718E-04   0.310346E-01   0.683161E+00   0.237744E+03  -0.184769E-16
   LPB:    8  -0.579491825532297E+00   0.550275734225014E-04   0.340713E-01   0.695846E+00   0.328260E+03  -0.188616E-16
   LPB:    9  -0.579491824926491E+00   0.293182363073761E-04   0.371996E-01   0.686820E+00   0.727701E+03  -0.185376E-16
  Finished solving LPB equations
  A_corr:   -0.499097598335226     
 End minimization
 Ecorr=   1456.30354357314     
 A_corr= -0.499097598335226     
 Ecorr_band=  -1456.80264117148     
 End Solvation calculations
 165 F= -.13537626E+03 E0= -.13537850E+03  d E =0.470500E-04
quench:  g(F)=  0.000E+00 g(S)=  0.000E+00 dE (1.order)= 0.000E+00
 bond charge predicted
       N       E                     dE             d eps       ncg     rms          rms(c)
 Begin Solvation calculations
  rms_SCF =   4.047389913340127E-004 tol =   4.047389913340127E-005
 Begin minimization
 Creating dielectric and ionic cavities
  area:      153.132417427664     
  volume:    678.295338396784     
  Acav:     8.039451914952367E-002
  Solving linear dielectric/ionic screening model
        iter                  A_solv                     rms
   LPB:       -0.579495020926372E+00   0.118140165785236E-03
   LPB:    0  -0.579495020926366E+00   0.118307254784361E-03  -0.190772E-07   0.000000E+00   0.328948E+02  -0.627542E-06
   LPB:    1  -0.579493833553212E+00   0.490589875568684E-04   0.160630E-01   0.000000E+00   0.644372E+06   0.102284E-22
   LPB:    2  -0.579493686906239E+00   0.381966076318576E-04   0.271205E-01   0.731501E-01   0.152615E+06   0.668381E-19
   LPB:    3  -0.579493639529550E+00   0.709241862804684E-04   0.329092E-01   0.266239E+00   0.617260E+05   0.636659E-19
   LPB:    4  -0.579493619242824E+00   0.191164104543245E-03   0.353820E-01   0.398275E+00   0.832403E+04   0.605104E-19
   LPB:    5  -0.579493609862873E+00   0.472288903321546E-03   0.332372E-01   0.492206E+00   0.637461E+03   0.119217E-18
   LPB:    6  -0.579493605687763E+00   0.386456981565443E-03   0.196990E-01   0.751013E+00   0.174370E+03   0.157226E-18
   LPB:    7  -0.579493601824057E+00   0.100302667967699E-03   0.266179E-01   0.684868E+00   0.493960E+03   0.107217E-18
   LPB:    8  -0.579493599234860E+00   0.779857499156914E-04   0.372740E-01   0.478551E+00   0.200252E+04   0.804246E-20
   LPB:    9  -0.579493597717411E+00   0.134178032851420E-03   0.351126E-01   0.622145E+00   0.509243E+03  -0.981359E-19
   LPB:   10  -0.579493596818043E+00   0.121975014451716E-03   0.270049E-01   0.770628E+00   0.206515E+03  -0.705011E-18
   LPB:   11  -0.579493596128203E+00   0.693103937583491E-04   0.295315E-01   0.701402E+00   0.299875E+03  -0.463343E-18
   LPB:   12  -0.579493595623847E+00   0.477174307527320E-04   0.334689E-01   0.645110E+00   0.615522E+03   0.488401E-18
   LPB:   13  -0.579493595266660E+00   0.310934686515841E-04   0.327234E-01   0.724335E+00   0.904000E+03   0.791489E-18
  Finished solving LPB equations
  A_corr:   -0.499099076117136     
 End minimization
 Ecorr=   1456.30366879882     
 A_corr= -0.499099076117136     
 Ecorr_band=  -1456.80276787494     
 End Solvation calculations
DAV:   1    -0.135376252507E+03    0.13688E-04   -0.11156E-04  3897   0.464E-02    0.913E-03
 Begin Solvation calculations
  rms_SCF =   4.047389913340127E-004 tol =   4.047389913340127E-005
 Begin minimization
 Creating dielectric and ionic cavities
  area:      153.131305043316     
  volume:    678.295566170429     
  Acav:     8.039393514774087E-002
  Solving linear dielectric/ionic screening model
        iter                  A_solv                     rms
   LPB:       -0.579408969079851E+00   0.195939194074744E-01
   LPB:    0  -0.579408904984337E+00   0.187872143183350E-01   0.624259E-04   0.000000E+00   0.328948E+02   0.205349E-02
   LPB:    1  -0.579407574960692E+00   0.230241339409875E-02   0.954175E-02   0.000000E+00   0.808245E+02  -0.192663E-18
   LPB:    2  -0.579407430955167E+00   0.421910261656813E-03   0.145928E-01   0.707961E-01   0.249747E+03  -0.185357E-17
   LPB:    3  -0.579407404558449E+00   0.397257197065969E-03   0.248942E-01   0.107451E+00   0.690819E+03   0.261144E-17
   LPB:    4  -0.579407396330867E+00   0.355311966870559E-03   0.234414E-01   0.331006E+00   0.163568E+03   0.524168E-17
   LPB:    5  -0.579407391852269E+00   0.186623466054789E-03   0.244541E-01   0.521797E+00   0.257908E+03   0.637104E-17
   LPB:    6  -0.579407389129029E+00   0.909314777011656E-04   0.307695E-01   0.483254E+00   0.289656E+03   0.853835E-17
   LPB:    7  -0.579407387435186E+00   0.531738549209042E-04   0.332107E-01   0.576276E+00   0.739295E+03   0.934445E-17
   LPB:    8  -0.579407386313486E+00   0.333347006271728E-04   0.358616E-01   0.613270E+00   0.685887E+03   0.980856E-17
  Finished solving LPB equations
  A_corr:   -0.499013451165745     
 End minimization
 Ecorr=   1456.32185617577     
 A_corr= -0.499013451165745     
 Ecorr_band=  -1456.82086962693     
 End Solvation calculations
RMM:   2    -0.135376258914E+03   -0.64063E-05   -0.17966E-05  2421   0.145E-02
 Begin Solvation calculations
  rms_SCF =   4.047389913340127E-004 tol =   4.047389913340127E-005
 Begin minimization
 Creating dielectric and ionic cavities
  area:      153.131741537152     
  volume:    678.295782001172     
  Acav:     8.039416430700462E-002
  Solving linear dielectric/ionic screening model
        iter                  A_solv                     rms
   LPB:       -0.579398030936652E+00   0.155494750032242E-01
   LPB:    0  -0.579398028071879E+00   0.155236164945852E-01   0.131976E-04   0.000000E+00   0.328948E+02   0.434134E-03
   LPB:    1  -0.579397323964066E+00   0.159930362740571E-02   0.894334E-02   0.000000E+00   0.730353E+02  -0.118606E-19
   LPB:    2  -0.579397250895520E+00   0.300626824706449E-03   0.172370E-01   0.538429E-01   0.126604E+03  -0.865102E-18
   LPB:    3  -0.579397240981550E+00   0.167148489616888E-03   0.232705E-01   0.100502E+00   0.232685E+03  -0.108432E-17
   LPB:    4  -0.579397237531992E+00   0.107974055975583E-03   0.286924E-01   0.282199E+00   0.312608E+03   0.526999E-19
   LPB:    5  -0.579397236074107E+00   0.113818121193229E-03   0.285754E-01   0.424360E+00   0.305722E+03   0.471946E-18
   LPB:    6  -0.579397235296019E+00   0.103876002055877E-03   0.266333E-01   0.572627E+00   0.218034E+03   0.192238E-17
   LPB:    7  -0.579397234780114E+00   0.652755369796501E-04   0.277926E-01   0.635388E+00   0.223283E+03   0.306100E-17
   LPB:    8  -0.579397234371319E+00   0.331612889958334E-04   0.342453E-01   0.643075E+00   0.382100E+03   0.433498E-17
  Finished solving LPB equations
  A_corr:   -0.499003070064314     
 End minimization
 Ecorr=   1456.32337753750     
 A_corr= -0.499003070064314     
 Ecorr_band=  -1456.82238060757     
 End Solvation calculations
 166 F= -.13537626E+03 E0= -.13537851E+03  d E =0.547436E-06
quench:  g(F)=  0.000E+00 g(S)=  0.000E+00 dE (1.order)= 0.000E+00
 bond charge predicted
       N       E                     dE             d eps       ncg     rms          rms(c)
 Begin Solvation calculations
  rms_SCF =   4.047389913340127E-004 tol =   4.047389913340127E-005
 Begin minimization
 Creating dielectric and ionic cavities
  area:      153.131531282972     
  volume:    678.295501963706     
  Acav:     8.039405392356054E-002
  Solving linear dielectric/ionic screening model
        iter                  A_solv                     rms
   LPB:       -0.579398655016831E+00   0.209148702127514E-03
   LPB:    0  -0.579398655016759E+00   0.210096049196330E-03  -0.662120E-07   0.000000E+00   0.328948E+02  -0.217803E-05
   LPB:    1  -0.579395085707186E+00   0.898216831193986E-04   0.165203E-01   0.000000E+00   0.553335E+06  -0.197007E-21
   LPB:    2  -0.579394598160073E+00   0.727979103991911E-04   0.274978E-01   0.820639E-01   0.143887E+06   0.367419E-18
   LPB:    3  -0.579394435716044E+00   0.126007611398233E-03   0.331373E-01   0.276483E+00   0.505410E+05   0.573627E-18
   LPB:    4  -0.579394364168780E+00   0.309362918278912E-03   0.356100E-01   0.409858E+00   0.840785E+04   0.123278E-17
   LPB:    5  -0.579394329696631E+00   0.744071401380342E-03   0.345588E-01   0.496465E+00   0.745004E+03   0.155196E-17
   LPB:    6  -0.579394314301180E+00   0.782829212893081E-03   0.221812E-01   0.695822E+00   0.182832E+03   0.339020E-17
   LPB:    7  -0.579394301491423E+00   0.337998234793846E-03   0.240498E-01   0.767400E+00   0.339968E+03   0.650934E-17
   LPB:    8  -0.579394293083035E+00   0.403937506680350E-03   0.311151E-01   0.507354E+00   0.328341E+03   0.117221E-16
   LPB:    9  -0.579394288139281E+00   0.291425111914138E-03   0.241992E-01   0.755988E+00   0.179541E+03   0.139539E-16
   LPB:   10  -0.579394283966890E+00   0.972762917255685E-04   0.307550E-01   0.664069E+00   0.403784E+03   0.170042E-16
   LPB:   11  -0.579394281116562E+00   0.513648545739473E-04   0.380858E-01   0.551648E+00   0.213417E+04   0.192839E-16
   LPB:   12  -0.579394279286092E+00   0.571081106603776E-04   0.378797E-01   0.645691E+00   0.191718E+04   0.226288E-16
   LPB:   13  -0.579394278104455E+00   0.530576859634955E-04   0.344719E-01   0.709354E+00   0.134172E+04   0.243278E-16
   LPB:   14  -0.579394277265233E+00   0.326358877903485E-04   0.343318E-01   0.713117E+00   0.151076E+04   0.253636E-16
  Finished solving LPB equations
  A_corr:   -0.499000223341672     
 End minimization
 Ecorr=   1456.32575788334     
 A_corr= -0.499000223341672     
 Ecorr_band=  -1456.82475810668     
 End Solvation calculations
DAV:   1    -0.135376227281E+03    0.25226E-04   -0.34315E-04  4800   0.558E-02    0.564E-03
 Begin Solvation calculations
  rms_SCF =   4.047389913340127E-004 tol =   4.047389913340127E-005
 Begin minimization
 Creating dielectric and ionic cavities
  area:      153.130503830625     
  volume:    678.294637981622     
  Acav:     8.039351451107800E-002
  Solving linear dielectric/ionic screening model
        iter                  A_solv                     rms
   LPB:       -0.579351427783461E+00   0.989938442132158E-02
   LPB:    0  -0.579351415156096E+00   0.955049417018080E-02   0.277081E-04   0.000000E+00   0.328949E+02   0.911455E-03
   LPB:    1  -0.579351040111809E+00   0.139452930604885E-02   0.969280E-02   0.000000E+00   0.853862E+02   0.203196E-19
   LPB:    2  -0.579350991398435E+00   0.269955746725741E-03   0.152937E-01   0.823196E-01   0.247716E+03  -0.656331E-17
   LPB:    3  -0.579350981772228E+00   0.208234328254636E-03   0.242558E-01   0.124596E+00   0.704315E+03  -0.373947E-17
   LPB:    4  -0.579350978519265E+00   0.215633399350254E-03   0.260553E-01   0.314590E+00   0.197983E+03  -0.394008E-17
   LPB:    5  -0.579350976729933E+00   0.140619080848455E-03   0.249683E-01   0.574008E+00   0.246580E+03  -0.488542E-17
   LPB:    6  -0.579350975461236E+00   0.751344397933943E-04   0.310178E-01   0.570749E+00   0.257248E+03  -0.414714E-17
   LPB:    7  -0.579350974578203E+00   0.455990943872011E-04   0.338000E-01   0.638724E+00   0.740838E+03  -0.469867E-17
   LPB:    8  -0.579350973938367E+00   0.290998400514955E-04   0.366133E-01   0.668913E+00   0.620633E+03  -0.503377E-17
  Finished solving LPB equations
  A_corr:   -0.498957459427289     
 End minimization
 Ecorr=   1456.33862918943     
 A_corr= -0.498957459427289     
 Ecorr_band=  -1456.83758664886     
 End Solvation calculations
RMM:   2    -0.135376229349E+03   -0.20680E-05   -0.18255E-05  2341   0.150E-02
 Begin Solvation calculations
  rms_SCF =   4.047389913340127E-004 tol =   4.047389913340127E-005
 Begin minimization
 Creating dielectric and ionic cavities
  area:      153.130374139622     
  volume:    678.294733977038     
  Acav:     8.039344642330146E-002
  Solving linear dielectric/ionic screening model
        iter                  A_solv                     rms
   LPB:       -0.579334515142752E+00   0.959168319826159E-02
   LPB:    0  -0.579334509321531E+00   0.946585308114495E-02   0.188130E-04   0.000000E+00   0.328949E+02   0.618851E-03
   LPB:    1  -0.579334243134042E+00   0.106098879056671E-02   0.911330E-02   0.000000E+00   0.710723E+02   0.527348E-19
   LPB:    2  -0.579334211675515E+00   0.159141572753621E-03   0.169845E-01   0.634122E-01   0.124669E+03   0.354375E-17
   LPB:    3  -0.579334207789541E+00   0.765882225712330E-04   0.224565E-01   0.934271E-01   0.346011E+03   0.426545E-17
   LPB:    4  -0.579334206503038E+00   0.819226157769275E-04   0.279099E-01   0.266376E+00   0.329709E+03   0.517936E-17
   LPB:    5  -0.579334205900764E+00   0.100043346383169E-03   0.290309E-01   0.450071E+00   0.186553E+03   0.552132E-17
   LPB:    6  -0.579334205504710E+00   0.773963307678783E-04   0.282419E-01   0.675969E+00   0.149220E+03   0.510192E-17
   LPB:    7  -0.579334205180433E+00   0.399507920506559E-04   0.314494E-01   0.735266E+00   0.262633E+03   0.483282E-17
  Finished solving LPB equations
  A_corr:   -0.498940758757132     
 End minimization
 Ecorr=   1456.34193918646     
 A_corr= -0.498940758757132     
 Ecorr_band=  -1456.84087994521     
 End Solvation calculations
 167 F= -.13537623E+03 E0= -.13537847E+03  d E =0.295644E-04
quench:  g(F)=  0.000E+00 g(S)=  0.000E+00 dE (1.order)= 0.000E+00
 reached required accuracy - stopping structural energy minimisation
