 vasp.5.4.4.18Apr17-6-g9f103f2a35 (build Feb 06 2024 13:54:16) complex          
  
 POSCAR found type information on POSCAR  Pd N  O 
 02/POSCAR found :  3 types and      40 ions
 scaLAPACK will be used

 ----------------------------------------------------------------------------- 
|                                                                             |
|  ADVICE TO THIS USER RUNNING 'VASP/VAMP'   (HEAR YOUR MASTER'S VOICE ...):  |
|                                                                             |
|      You enforced a specific xc-type in the INCAR file,                     |
|      a different type was found on the POTCAR file                          |
|          I HOPE YOU KNOW, WHAT YOU ARE  DOING                               |
|                                                                             |
 ----------------------------------------------------------------------------- 

 LDA part: xc-table for Pade appr. of Perdew
 POSCAR found type information on POSCAR  Pd N  O 
 00/POSCAR found :  3 types and      40 ions
 POSCAR found type information on POSCAR  Pd N  O 
 06/POSCAR found :  3 types and      40 ions
 Jacobian:    21.0960049830057     
 POSCAR, INCAR and KPOINTS ok, starting setup
 FFT: planning ...
 WAVECAR not read
 entering main loop
       N       E                     dE             d eps       ncg     rms          rms(c)
DAV:   1     0.267417703502E+04    0.26742E+04   -0.17931E+05 11088   0.149E+03
DAV:   2    -0.886088618140E+01   -0.26830E+04   -0.25116E+04 12282   0.322E+02
DAV:   3    -0.183828715262E+03   -0.17497E+03   -0.15732E+03 13230   0.729E+01
DAV:   4    -0.190676572630E+03   -0.68479E+01   -0.66250E+01 12555   0.144E+01
DAV:   5    -0.190913356887E+03   -0.23678E+00   -0.23369E+00 14724   0.269E+00    0.359E+01
RMM:   6    -0.182894354521E+03    0.80190E+01   -0.36165E+01 11157   0.125E+01    0.208E+01
RMM:   7    -0.271714964608E+03   -0.88821E+02   -0.29558E+01 11135   0.844E+00    0.677E+01
RMM:   8    -0.188332310337E+03    0.83383E+02   -0.16844E+01 11114   0.644E+00    0.292E+01
RMM:   9    -0.184561341337E+03    0.37710E+01   -0.12060E+01 11116   0.627E+00    0.169E+01
RMM:  10    -0.190387804566E+03   -0.58265E+01   -0.71260E+00 11126   0.479E+00    0.224E+01
RMM:  11    -0.184917760659E+03    0.54700E+01   -0.42928E+00 11133   0.390E+00    0.171E+01
RMM:  12    -0.183041382279E+03    0.18764E+01   -0.18852E+00 11140   0.263E+00    0.123E+01
RMM:  13    -0.182388371330E+03    0.65301E+00   -0.92402E-01 11125   0.177E+00    0.846E+00
RMM:  14    -0.182232430343E+03    0.15594E+00   -0.51841E-01 11123   0.134E+00    0.968E+00
RMM:  15    -0.181779658279E+03    0.45277E+00   -0.29178E-01 11120   0.103E+00    0.623E+00
RMM:  16    -0.181513828171E+03    0.26583E+00   -0.11223E-01 11136   0.647E-01    0.247E+00
RMM:  17    -0.181492095141E+03    0.21733E-01   -0.13638E-02 11112   0.207E-01    0.230E+00
RMM:  18    -0.181493611620E+03   -0.15165E-02   -0.10482E-03 10247   0.499E-02    0.238E+00
RMM:  19    -0.181488344894E+03    0.52667E-02   -0.23794E-03 10941   0.916E-02    0.217E+00
RMM:  20    -0.181470899461E+03    0.17445E-01   -0.16286E-02 11114   0.244E-01    0.161E+00
RMM:  21    -0.181462979397E+03    0.79201E-02   -0.25753E-02 11117   0.286E-01    0.177E+00
RMM:  22    -0.181439119182E+03    0.23860E-01   -0.16446E-02 11134   0.229E-01    0.841E-01
RMM:  23    -0.181434699829E+03    0.44194E-02   -0.28973E-03 11009   0.987E-02    0.442E-01
RMM:  24    -0.181434176670E+03    0.52316E-03   -0.10179E-03 10953   0.606E-02    0.374E-01
RMM:  25    -0.181433452447E+03    0.72422E-03   -0.79556E-04 10905   0.546E-02    0.323E-01
RMM:  26    -0.181432696776E+03    0.75567E-03   -0.87997E-04 10779   0.553E-02    0.323E-01
RMM:  27    -0.181431572375E+03    0.11244E-02   -0.50288E-04  8877   0.415E-02    0.198E-01
RMM:  28    -0.181431383048E+03    0.18933E-03   -0.15326E-04  6276   0.241E-02    0.192E-01
RMM:  29    -0.181431043164E+03    0.33988E-03   -0.14157E-04  6278   0.227E-02    0.976E-02
RMM:  30    -0.181431060145E+03   -0.16981E-04   -0.87067E-05  6141   0.173E-02
   1 F= -.18143106E+03 E0= -.18141992E+03  d E =-.181431E+03
quench:  g(F)=  0.000E+00 g(S)=  0.000E+00 dE (1.order)= 0.000E+00
 bond charge predicted
       N       E                     dE             d eps       ncg     rms          rms(c)
DAV:   1    -0.181443465511E+03   -0.12422E-01   -0.10117E+00 11328   0.188E+00    0.357E-01
RMM:   2    -0.181481638211E+03   -0.38173E-01   -0.34874E-02 11229   0.289E-01    0.225E+00
RMM:   3    -0.181448396804E+03    0.33241E-01   -0.51665E-03 11176   0.124E-01    0.641E-01
RMM:   4    -0.181446708233E+03    0.16886E-02   -0.35168E-03 11110   0.114E-01    0.470E-01
RMM:   5    -0.181445226308E+03    0.14819E-02   -0.15935E-03 11108   0.770E-02    0.223E-01
RMM:   6    -0.181445248581E+03   -0.22273E-04   -0.89007E-04 10962   0.570E-02
   2 F= -.18144525E+03 E0= -.18143416E+03  d E =-.141884E-01
quench:  g(F)=  0.000E+00 g(S)=  0.000E+00 dE (1.order)= 0.000E+00
 bond charge predicted
       N       E                     dE             d eps       ncg     rms          rms(c)
DAV:   1    -0.181447815375E+03   -0.25891E-02   -0.17540E+00 11616   0.257E+00    0.513E-01
RMM:   2    -0.181471458635E+03   -0.23643E-01   -0.66188E-02 11170   0.404E-01    0.167E+00
RMM:   3    -0.181476947947E+03   -0.54893E-02   -0.92853E-03 11143   0.163E-01    0.191E+00
RMM:   4    -0.181454442833E+03    0.22505E-01   -0.81578E-03 11095   0.168E-01    0.689E-01
RMM:   5    -0.181450977414E+03    0.34654E-02   -0.34241E-03 11114   0.112E-01    0.299E-01
RMM:   6    -0.181450715432E+03    0.26198E-03   -0.14968E-03 11109   0.744E-02    0.237E-01
RMM:   7    -0.181450920975E+03   -0.20554E-03   -0.80335E-04 10829   0.552E-02    0.243E-01
RMM:   8    -0.181450674767E+03    0.24621E-03   -0.45847E-04  8689   0.423E-02    0.177E-01
RMM:   9    -0.181450583673E+03    0.91094E-04   -0.18164E-04  6196   0.280E-02
   3 F= -.18145058E+03 E0= -.18143943E+03  d E =-.533509E-02
quench:  g(F)=  0.000E+00 g(S)=  0.000E+00 dE (1.order)= 0.000E+00
 bond charge predicted
       N       E                     dE             d eps       ncg     rms          rms(c)
DAV:   1    -0.181451907959E+03   -0.12332E-02   -0.15728E-01 11700   0.664E-01    0.139E-01
RMM:   2    -0.181466821555E+03   -0.14914E-01   -0.90063E-03 11154   0.161E-01    0.140E+00
RMM:   3    -0.181453122849E+03    0.13699E-01   -0.16594E-03 11073   0.695E-02    0.236E-01
RMM:   4    -0.181452690346E+03    0.43250E-03   -0.57537E-04  9777   0.476E-02    0.165E-01
RMM:   5    -0.181452509289E+03    0.18106E-03   -0.23249E-04  6438   0.314E-02    0.844E-02
RMM:   6    -0.181452532501E+03   -0.23212E-04   -0.15630E-04  6048   0.273E-02
   4 F= -.18145253E+03 E0= -.18144130E+03  d E =-.194883E-02
quench:  g(F)=  0.000E+00 g(S)=  0.000E+00 dE (1.order)= 0.000E+00
 bond charge predicted
       N       E                     dE             d eps       ncg     rms          rms(c)
DAV:   1    -0.181452580173E+03   -0.70884E-04   -0.24741E-01 11718   0.942E-01    0.142E-01
RMM:   2    -0.181454690891E+03   -0.21107E-02   -0.10320E-02 11203   0.179E-01    0.411E-01
RMM:   3    -0.181456018853E+03   -0.13280E-02   -0.12751E-03 11145   0.620E-02    0.620E-01
RMM:   4    -0.181453439121E+03    0.25797E-02   -0.39583E-04  7941   0.369E-02    0.148E-01
RMM:   5    -0.181453368713E+03    0.70408E-04   -0.25917E-04  6411   0.343E-02
   5 F= -.18145337E+03 E0= -.18144209E+03  d E =-.836212E-03
quench:  g(F)=  0.000E+00 g(S)=  0.000E+00 dE (1.order)= 0.000E+00
 bond charge predicted
       N       E                     dE             d eps       ncg     rms          rms(c)
DAV:   1    -0.181453325230E+03    0.11389E-03   -0.98187E-02 11376   0.618E-01    0.122E-01
RMM:   2    -0.181454611370E+03   -0.12861E-02   -0.42886E-03 11187   0.118E-01    0.366E-01
RMM:   3    -0.181453673234E+03    0.93814E-03   -0.83051E-04 10961   0.558E-02    0.148E-01
RMM:   4    -0.181454698815E+03   -0.10256E-02   -0.19908E-04  6384   0.248E-02    0.413E-01
RMM:   5    -0.181453575865E+03    0.11230E-02   -0.17785E-04  6222   0.269E-02    0.980E-02
RMM:   6    -0.181453523288E+03    0.52577E-04   -0.89952E-05  5922   0.206E-02
   6 F= -.18145352E+03 E0= -.18144226E+03  d E =-.154575E-03
quench:  g(F)=  0.000E+00 g(S)=  0.000E+00 dE (1.order)= 0.000E+00
 bond charge predicted
       N       E                     dE             d eps       ncg     rms          rms(c)
DAV:   1    -0.181453572920E+03    0.29446E-05   -0.38149E-02 11556   0.372E-01    0.770E-02
RMM:   2    -0.181454588044E+03   -0.10151E-02   -0.20538E-03 11195   0.867E-02    0.351E-01
RMM:   3    -0.181454876842E+03   -0.28880E-03   -0.37811E-04  7585   0.354E-02    0.405E-01
RMM:   4    -0.181453702292E+03    0.11746E-02   -0.19369E-04  6215   0.274E-02    0.610E-02
RMM:   5    -0.181453683950E+03    0.18341E-04   -0.82742E-05  5766   0.190E-02
   7 F= -.18145368E+03 E0= -.18144240E+03  d E =-.160663E-03
quench:  g(F)=  0.000E+00 g(S)=  0.000E+00 dE (1.order)= 0.000E+00
 bond charge predicted
       N       E                     dE             d eps       ncg     rms          rms(c)
DAV:   1    -0.181453651216E+03    0.51076E-04   -0.26374E-02 11352   0.311E-01    0.537E-02
RMM:   2    -0.181455758380E+03   -0.21072E-02   -0.13058E-03 10650   0.654E-02    0.526E-01
RMM:   3    -0.181453925224E+03    0.18332E-02   -0.24273E-04  6528   0.284E-02    0.155E-01
RMM:   4    -0.181453750541E+03    0.17468E-03   -0.11071E-04  5925   0.222E-02    0.549E-02
RMM:   5    -0.181453739690E+03    0.10851E-04   -0.34706E-05  5697   0.127E-02
   8 F= -.18145374E+03 E0= -.18144246E+03  d E =-.557400E-04
quench:  g(F)=  0.000E+00 g(S)=  0.000E+00 dE (1.order)= 0.000E+00
 bond charge predicted
       N       E                     dE             d eps       ncg     rms          rms(c)
DAV:   1    -0.181453658370E+03    0.92172E-04   -0.42557E-02 11280   0.413E-01    0.538E-02
RMM:   2    -0.181454006970E+03   -0.34860E-03   -0.13865E-03 10262   0.699E-02    0.179E-01
RMM:   3    -0.181454078314E+03   -0.71344E-04   -0.16000E-04  6111   0.258E-02
   9 F= -.18145408E+03 E0= -.18144291E+03  d E =-.338624E-03
quench:  g(F)=  0.000E+00 g(S)=  0.000E+00 dE (1.order)= 0.000E+00
 bond charge predicted
       N       E                     dE             d eps       ncg     rms          rms(c)
DAV:   1    -0.181453635188E+03    0.37178E-03   -0.34258E-02 11220   0.347E-01    0.715E-02
RMM:   2    -0.181454841284E+03   -0.12061E-02   -0.20199E-03 10984   0.834E-02    0.383E-01
RMM:   3    -0.181454478267E+03    0.36302E-03   -0.29086E-04  6812   0.308E-02    0.316E-01
RMM:   4    -0.181453784048E+03    0.69422E-03   -0.15573E-04  6162   0.250E-02    0.668E-02
RMM:   5    -0.181453746275E+03    0.37773E-04   -0.54834E-05  5751   0.149E-02
  10 F= -.18145375E+03 E0= -.18144245E+03  d E =0.332039E-03
quench:  g(F)=  0.000E+00 g(S)=  0.000E+00 dE (1.order)= 0.000E+00
 bond charge predicted
       N       E                     dE             d eps       ncg     rms          rms(c)
DAV:   1    -0.181453786420E+03   -0.23727E-05   -0.20541E-02 11268   0.274E-01    0.723E-02
RMM:   2    -0.181455237429E+03   -0.14510E-02   -0.15616E-03 11170   0.775E-02    0.430E-01
RMM:   3    -0.181455083512E+03    0.15392E-03   -0.43721E-04  8448   0.376E-02    0.418E-01
RMM:   4    -0.181453849105E+03    0.12344E-02   -0.18237E-04  6232   0.265E-02    0.381E-02
RMM:   5    -0.181453840541E+03    0.85635E-05   -0.51135E-05  5713   0.148E-02
  11 F= -.18145384E+03 E0= -.18144254E+03  d E =-.942662E-04
quench:  g(F)=  0.000E+00 g(S)=  0.000E+00 dE (1.order)= 0.000E+00
 bond charge predicted
       N       E                     dE             d eps       ncg     rms          rms(c)
DAV:   1    -0.181453807686E+03    0.41419E-04   -0.17572E-02 11355   0.257E-01    0.407E-02
RMM:   2    -0.181454406579E+03   -0.59889E-03   -0.69057E-04  7843   0.505E-02    0.274E-01
RMM:   3    -0.181454081831E+03    0.32475E-03   -0.12973E-04  6000   0.233E-02    0.176E-01
RMM:   4    -0.181453861579E+03    0.22025E-03   -0.52237E-05  5760   0.151E-02    0.326E-02
RMM:   5    -0.181453857010E+03    0.45699E-05   -0.17243E-05  5616   0.898E-03
  12 F= -.18145386E+03 E0= -.18144256E+03  d E =-.164683E-04
quench:  g(F)=  0.000E+00 g(S)=  0.000E+00 dE (1.order)= 0.000E+00
 bond charge predicted
       N       E                     dE             d eps       ncg     rms          rms(c)
DAV:   1    -0.181453790403E+03    0.71177E-04   -0.34041E-02 11250   0.370E-01    0.447E-02
RMM:   2    -0.181454025337E+03   -0.23493E-03   -0.99401E-04  8566   0.598E-02    0.144E-01
RMM:   3    -0.181454105145E+03   -0.79808E-04   -0.11047E-04  5951   0.221E-02
  13 F= -.18145411E+03 E0= -.18144292E+03  d E =-.248135E-03
quench:  g(F)=  0.000E+00 g(S)=  0.000E+00 dE (1.order)= 0.000E+00
 bond charge predicted
       N       E                     dE             d eps       ncg     rms          rms(c)
DAV:   1    -0.181453739090E+03    0.28625E-03   -0.31302E-02 11223   0.331E-01    0.656E-02
RMM:   2    -0.181454291870E+03   -0.55278E-03   -0.17164E-03 10843   0.765E-02    0.241E-01
RMM:   3    -0.181454203492E+03    0.88378E-04   -0.24838E-04  6384   0.310E-02
  14 F= -.18145420E+03 E0= -.18144277E+03  d E =-.983469E-04
quench:  g(F)=  0.000E+00 g(S)=  0.000E+00 dE (1.order)= 0.000E+00
 bond charge predicted
       N       E                     dE             d eps       ncg     rms          rms(c)
DAV:   1    -0.181453881051E+03    0.41082E-03   -0.17195E-02 11289   0.273E-01    0.876E-02
RMM:   2    -0.181463754440E+03   -0.98734E-02   -0.23885E-03 11174   0.955E-02    0.117E+00
RMM:   3    -0.181454673583E+03    0.90809E-02   -0.10558E-03 10759   0.549E-02    0.291E-01
RMM:   4    -0.181453939517E+03    0.73407E-03   -0.24422E-04  6616   0.326E-02    0.700E-02
RMM:   5    -0.181453895097E+03    0.44421E-04   -0.60423E-05  5850   0.163E-02
  15 F= -.18145390E+03 E0= -.18144258E+03  d E =0.308395E-03
quench:  g(F)=  0.000E+00 g(S)=  0.000E+00 dE (1.order)= 0.000E+00
 bond charge predicted
       N       E                     dE             d eps       ncg     rms          rms(c)
DAV:   1    -0.181453898066E+03    0.41451E-04   -0.12322E-02 11283   0.216E-01    0.528E-02
RMM:   2    -0.181455571015E+03   -0.16729E-02   -0.85391E-04 10536   0.570E-02    0.462E-01
RMM:   3    -0.181454316515E+03    0.12545E-02   -0.22670E-04  6466   0.271E-02    0.236E-01
RMM:   4    -0.181453923129E+03    0.39339E-03   -0.13912E-04  6091   0.242E-02    0.273E-02
RMM:   5    -0.181453923205E+03   -0.75845E-07   -0.28645E-05  5660   0.110E-02
  16 F= -.18145392E+03 E0= -.18144262E+03  d E =-.281080E-04
quench:  g(F)=  0.000E+00 g(S)=  0.000E+00 dE (1.order)= 0.000E+00
 bond charge predicted
       N       E                     dE             d eps       ncg     rms          rms(c)
DAV:   1    -0.181453872120E+03    0.51009E-04   -0.26789E-02 11259   0.328E-01    0.389E-02
RMM:   2    -0.181454077409E+03   -0.20529E-03   -0.74315E-04  7787   0.526E-02    0.140E-01
RMM:   3    -0.181454062783E+03    0.14626E-04   -0.77933E-05  5881   0.193E-02
  17 F= -.18145406E+03 E0= -.18144269E+03  d E =-.139579E-03
quench:  g(F)=  0.000E+00 g(S)=  0.000E+00 dE (1.order)= 0.000E+00
 bond charge predicted
       N       E                     dE             d eps       ncg     rms          rms(c)
DAV:   1    -0.181453834741E+03    0.24267E-03   -0.32046E-02 11142   0.347E-01    0.732E-02
RMM:   2    -0.181458546720E+03   -0.47120E-02   -0.19431E-03 11084   0.840E-02    0.802E-01
RMM:   3    -0.181454368253E+03    0.41785E-02   -0.54556E-04  9342   0.405E-02    0.232E-01
RMM:   4    -0.181453933249E+03    0.43500E-03   -0.16081E-04  6202   0.267E-02    0.584E-02
RMM:   5    -0.181453909411E+03    0.23838E-04   -0.48931E-05  5753   0.149E-02
  18 F= -.18145391E+03 E0= -.18144257E+03  d E =0.153372E-03
quench:  g(F)=  0.000E+00 g(S)=  0.000E+00 dE (1.order)= 0.000E+00
 bond charge predicted
       N       E                     dE             d eps       ncg     rms          rms(c)
DAV:   1    -0.181453892197E+03    0.41052E-04   -0.22563E-02 11130   0.285E-01    0.572E-02
RMM:   2    -0.181454569074E+03   -0.67688E-03   -0.12053E-03 10613   0.662E-02    0.270E-01
RMM:   3    -0.181454572984E+03   -0.39104E-05   -0.20556E-04  6277   0.268E-02
  19 F= -.18145457E+03 E0= -.18144338E+03  d E =-.663573E-03
quench:  g(F)=  0.000E+00 g(S)=  0.000E+00 dE (1.order)= 0.000E+00
 bond charge predicted
       N       E                     dE             d eps       ncg     rms          rms(c)
DAV:   1    -0.181453952902E+03    0.61617E-03   -0.81969E-03 11382   0.202E-01    0.479E-02
RMM:   2    -0.181454271267E+03   -0.31837E-03   -0.71262E-04  8549   0.551E-02    0.195E-01
RMM:   3    -0.181454248956E+03    0.22311E-04   -0.15461E-04  6066   0.263E-02
  20 F= -.18145425E+03 E0= -.18144304E+03  d E =0.324028E-03
quench:  g(F)=  0.000E+00 g(S)=  0.000E+00 dE (1.order)= 0.000E+00
 bond charge predicted
       N       E                     dE             d eps       ncg     rms          rms(c)
DAV:   1    -0.181453987178E+03    0.28409E-03   -0.12038E-02 11280   0.240E-01    0.773E-02
RMM:   2    -0.181468229939E+03   -0.14243E-01   -0.21289E-03 11132   0.888E-02    0.141E+00
RMM:   3    -0.181454399522E+03    0.13830E-01   -0.11881E-03 10747   0.585E-02    0.149E-01
RMM:   4    -0.181453993852E+03    0.40567E-03   -0.16295E-04  6219   0.282E-02    0.487E-02
RMM:   5    -0.181453985931E+03    0.79209E-05   -0.33513E-05  5835   0.128E-02
  21 F= -.18145399E+03 E0= -.18144268E+03  d E =0.263025E-03
quench:  g(F)=  0.000E+00 g(S)=  0.000E+00 dE (1.order)= 0.000E+00
 bond charge predicted
       N       E                     dE             d eps       ncg     rms          rms(c)
DAV:   1    -0.181453951673E+03    0.42179E-04   -0.20595E-02 11226   0.281E-01    0.411E-02
RMM:   2    -0.181454385025E+03   -0.43335E-03   -0.71765E-04  7866   0.513E-02    0.237E-01
RMM:   3    -0.181454221393E+03    0.16363E-03   -0.11616E-04  5982   0.222E-02    0.172E-01
RMM:   4    -0.181454005471E+03    0.21592E-03   -0.53924E-05  5762   0.152E-02    0.342E-02
RMM:   5    -0.181454002564E+03    0.29065E-05   -0.18346E-05  5723   0.928E-03
  22 F= -.18145400E+03 E0= -.18144268E+03  d E =-.166334E-04
quench:  g(F)=  0.000E+00 g(S)=  0.000E+00 dE (1.order)= 0.000E+00
 bond charge predicted
       N       E                     dE             d eps       ncg     rms          rms(c)
DAV:   1    -0.181453929315E+03    0.76156E-04   -0.28486E-02 11241   0.331E-01    0.426E-02
RMM:   2    -0.181454238054E+03   -0.30874E-03   -0.95181E-04  8221   0.573E-02    0.172E-01
RMM:   3    -0.181454205055E+03    0.32999E-04   -0.10416E-04  5964   0.212E-02
  23 F= -.18145421E+03 E0= -.18144297E+03  d E =-.202490E-03
quench:  g(F)=  0.000E+00 g(S)=  0.000E+00 dE (1.order)= 0.000E+00
 bond charge predicted
       N       E                     dE             d eps       ncg     rms          rms(c)
DAV:   1    -0.181453987626E+03    0.25043E-03   -0.11943E-02 11271   0.201E-01    0.525E-02
RMM:   2    -0.181454503477E+03   -0.51585E-03   -0.95525E-04  9349   0.583E-02    0.238E-01
RMM:   3    -0.181454450205E+03    0.53272E-04   -0.18972E-04  6217   0.277E-02
  24 F= -.18145445E+03 E0= -.18144327E+03  d E =-.245150E-03
quench:  g(F)=  0.000E+00 g(S)=  0.000E+00 dE (1.order)= 0.000E+00
 bond charge predicted
       N       E                     dE             d eps       ncg     rms          rms(c)
DAV:   1    -0.181454046175E+03    0.45730E-03   -0.74540E-03 11193   0.201E-01    0.636E-02
RMM:   2    -0.181461223351E+03   -0.71772E-02   -0.13115E-03 11009   0.731E-02    0.100E+00
RMM:   3    -0.181454357368E+03    0.68660E-02   -0.64209E-04  9909   0.434E-02    0.156E-01
RMM:   4    -0.181454052927E+03    0.30444E-03   -0.12899E-04  6131   0.244E-02    0.421E-02
RMM:   5    -0.181454044464E+03    0.84632E-05   -0.27808E-05  5785   0.113E-02
  25 F= -.18145404E+03 E0= -.18144273E+03  d E =0.405741E-03
quench:  g(F)=  0.000E+00 g(S)=  0.000E+00 dE (1.order)= 0.000E+00
 bond charge predicted
       N       E                     dE             d eps       ncg     rms          rms(c)
DAV:   1    -0.181454038259E+03    0.14668E-04   -0.11530E-02 11214   0.212E-01    0.333E-02
RMM:   2    -0.181454216692E+03   -0.17843E-03   -0.38999E-04  6746   0.396E-02    0.151E-01
RMM:   3    -0.181454264068E+03   -0.47376E-04   -0.83305E-05  5904   0.200E-02
  26 F= -.18145426E+03 E0= -.18144305E+03  d E =-.219604E-03
quench:  g(F)=  0.000E+00 g(S)=  0.000E+00 dE (1.order)= 0.000E+00
 bond charge predicted
       N       E                     dE             d eps       ncg     rms          rms(c)
DAV:   1    -0.181454013422E+03    0.20327E-03   -0.22153E-02 11088   0.303E-01    0.397E-02
RMM:   2    -0.181454181612E+03   -0.16819E-03   -0.72511E-04  7772   0.543E-02    0.129E-01
RMM:   3    -0.181454227168E+03   -0.45556E-04   -0.90189E-05  5905   0.214E-02
  27 F= -.18145423E+03 E0= -.18144282E+03  d E =0.369001E-04
quench:  g(F)=  0.000E+00 g(S)=  0.000E+00 dE (1.order)= 0.000E+00
 bond charge predicted
       N       E                     dE             d eps       ncg     rms          rms(c)
DAV:   1    -0.181454036318E+03    0.14529E-03   -0.19548E-02 11148   0.275E-01    0.646E-02
RMM:   2    -0.181456577848E+03   -0.25415E-02   -0.13056E-03 10881   0.699E-02    0.593E-01
RMM:   3    -0.181454445019E+03    0.21328E-02   -0.32707E-04  7192   0.323E-02    0.214E-01
RMM:   4    -0.181454105476E+03    0.33954E-03   -0.14150E-04  6121   0.249E-02    0.603E-02
RMM:   5    -0.181454081138E+03    0.24338E-04   -0.40908E-05  5667   0.139E-02
  28 F= -.18145408E+03 E0= -.18144274E+03  d E =0.146030E-03
quench:  g(F)=  0.000E+00 g(S)=  0.000E+00 dE (1.order)= 0.000E+00
 bond charge predicted
       N       E                     dE             d eps       ncg     rms          rms(c)
DAV:   1    -0.181454083023E+03    0.22453E-04   -0.12645E-02 11265   0.215E-01    0.447E-02
RMM:   2    -0.181454548280E+03   -0.46526E-03   -0.67667E-04  8400   0.511E-02    0.229E-01
RMM:   3    -0.181454507139E+03    0.41141E-04   -0.16177E-04  6094   0.262E-02
  29 F= -.18145451E+03 E0= -.18144330E+03  d E =-.426001E-03
quench:  g(F)=  0.000E+00 g(S)=  0.000E+00 dE (1.order)= 0.000E+00
 bond charge predicted
       N       E                     dE             d eps       ncg     rms          rms(c)
DAV:   1    -0.181454097037E+03    0.45124E-03   -0.83701E-03 11232   0.194E-01    0.372E-02
RMM:   2    -0.181454240905E+03   -0.14387E-03   -0.49201E-04  7022   0.465E-02    0.124E-01
RMM:   3    -0.181454186670E+03    0.54235E-04   -0.87350E-05  5912   0.214E-02
  30 F= -.18145419E+03 E0= -.18144282E+03  d E =0.320468E-03
quench:  g(F)=  0.000E+00 g(S)=  0.000E+00 dE (1.order)= 0.000E+00
 bond charge predicted
       N       E                     dE             d eps       ncg     rms          rms(c)
DAV:   1    -0.181454141701E+03    0.99204E-04   -0.99373E-03 11184   0.205E-01    0.716E-02
RMM:   2    -0.181464451786E+03   -0.10310E-01   -0.16617E-03 11101   0.761E-02    0.120E+00
RMM:   3    -0.181454574048E+03    0.98777E-02   -0.95356E-04 10602   0.522E-02    0.192E-01
RMM:   4    -0.181454157399E+03    0.41665E-03   -0.13948E-04  6201   0.259E-02    0.483E-02
RMM:   5    -0.181454138883E+03    0.18516E-04   -0.31095E-05  5778   0.122E-02
  31 F= -.18145414E+03 E0= -.18144281E+03  d E =0.477873E-04
quench:  g(F)=  0.000E+00 g(S)=  0.000E+00 dE (1.order)= 0.000E+00
 bond charge predicted
       N       E                     dE             d eps       ncg     rms          rms(c)
DAV:   1    -0.181454127546E+03    0.29853E-04   -0.13442E-02 11178   0.223E-01    0.351E-02
RMM:   2    -0.181454625801E+03   -0.49825E-03   -0.53316E-04  7084   0.443E-02    0.243E-01
RMM:   3    -0.181454271905E+03    0.35390E-03   -0.88945E-05  5911   0.196E-02    0.128E-01
RMM:   4    -0.181454163947E+03    0.10796E-03   -0.47352E-05  5697   0.144E-02    0.270E-02
RMM:   5    -0.181454163272E+03    0.67470E-06   -0.13815E-05  5543   0.810E-03
  32 F= -.18145416E+03 E0= -.18144284E+03  d E =-.243889E-04
quench:  g(F)=  0.000E+00 g(S)=  0.000E+00 dE (1.order)= 0.000E+00
 bond charge predicted
       N       E                     dE             d eps       ncg     rms          rms(c)
DAV:   1    -0.181454127540E+03    0.36407E-04   -0.18676E-02 11130   0.268E-01    0.341E-02
RMM:   2    -0.181454312621E+03   -0.18508E-03   -0.62141E-04  7301   0.469E-02    0.134E-01
RMM:   3    -0.181454283413E+03    0.29208E-04   -0.64090E-05  5836   0.176E-02
  33 F= -.18145428E+03 E0= -.18144290E+03  d E =-.120141E-03
quench:  g(F)=  0.000E+00 g(S)=  0.000E+00 dE (1.order)= 0.000E+00
 bond charge predicted
       N       E                     dE             d eps       ncg     rms          rms(c)
DAV:   1    -0.181454156517E+03    0.15610E-03   -0.12482E-02 11301   0.212E-01    0.550E-02
RMM:   2    -0.181457380120E+03   -0.32236E-02   -0.10836E-03 10508   0.630E-02    0.667E-01
RMM:   3    -0.181454430304E+03    0.29498E-02   -0.33327E-04  7269   0.327E-02    0.163E-01
RMM:   4    -0.181454205174E+03    0.22513E-03   -0.10481E-04  6067   0.219E-02    0.453E-02
RMM:   5    -0.181454190263E+03    0.14911E-04   -0.28155E-05  5671   0.113E-02
  34 F= -.18145419E+03 E0= -.18144285E+03  d E =0.931497E-04
quench:  g(F)=  0.000E+00 g(S)=  0.000E+00 dE (1.order)= 0.000E+00
 bond charge predicted
       N       E                     dE             d eps       ncg     rms          rms(c)
DAV:   1    -0.181454201532E+03    0.36419E-05   -0.86162E-03 11172   0.180E-01    0.341E-02
RMM:   2    -0.181454439576E+03   -0.23804E-03   -0.40609E-04  6820   0.404E-02    0.162E-01
RMM:   3    -0.181454451437E+03   -0.11861E-04   -0.91813E-05  5935   0.205E-02
  35 F= -.18145445E+03 E0= -.18144321E+03  d E =-.261173E-03
quench:  g(F)=  0.000E+00 g(S)=  0.000E+00 dE (1.order)= 0.000E+00
 bond charge predicted
       N       E                     dE             d eps       ncg     rms          rms(c)
DAV:   1    -0.181454211800E+03    0.22778E-03   -0.95908E-03 11112   0.200E-01    0.338E-02
RMM:   2    -0.181454339083E+03   -0.12728E-03   -0.43790E-04  6727   0.431E-02    0.121E-01
RMM:   3    -0.181454387973E+03   -0.48890E-04   -0.72040E-05  5875   0.192E-02
  36 F= -.18145439E+03 E0= -.18144298E+03  d E =0.634635E-04
quench:  g(F)=  0.000E+00 g(S)=  0.000E+00 dE (1.order)= 0.000E+00
 bond charge predicted
       N       E                     dE             d eps       ncg     rms          rms(c)
DAV:   1    -0.181454232652E+03    0.10643E-03   -0.11706E-02 11229   0.221E-01    0.476E-02
RMM:   2    -0.181455031833E+03   -0.79918E-03   -0.73240E-04  9026   0.548E-02    0.324E-01
RMM:   3    -0.181454687465E+03    0.34437E-03   -0.18005E-04  6216   0.263E-02    0.246E-01
RMM:   4    -0.181454266184E+03    0.42128E-03   -0.75861E-05  5872   0.179E-02    0.377E-02
RMM:   5    -0.181454253751E+03    0.12434E-04   -0.20005E-05  5616   0.951E-03
  37 F= -.18145425E+03 E0= -.18144292E+03  d E =0.134223E-03
quench:  g(F)=  0.000E+00 g(S)=  0.000E+00 dE (1.order)= 0.000E+00
 bond charge predicted
       N       E                     dE             d eps       ncg     rms          rms(c)
DAV:   1    -0.181454248867E+03    0.17317E-04   -0.10115E-02 11262   0.187E-01    0.365E-02
RMM:   2    -0.181454704332E+03   -0.45546E-03   -0.51246E-04  7108   0.433E-02    0.239E-01
RMM:   3    -0.181454494514E+03    0.20982E-03   -0.10778E-04  5956   0.218E-02    0.175E-01
RMM:   4    -0.181454281402E+03    0.21311E-03   -0.45837E-05  5709   0.139E-02    0.258E-02
RMM:   5    -0.181454277134E+03    0.42671E-05   -0.12223E-05  5210   0.756E-03
  38 F= -.18145428E+03 E0= -.18144296E+03  d E =-.233839E-04
quench:  g(F)=  0.000E+00 g(S)=  0.000E+00 dE (1.order)= 0.000E+00
 bond charge predicted
       N       E                     dE             d eps       ncg     rms          rms(c)
DAV:   1    -0.181454266507E+03    0.14894E-04   -0.11702E-02 11184   0.211E-01    0.314E-02
RMM:   2    -0.181454411524E+03   -0.14502E-03   -0.43121E-04  6861   0.404E-02    0.125E-01
RMM:   3    -0.181454359868E+03    0.51656E-04   -0.74810E-05  5813   0.200E-02
  39 F= -.18145436E+03 E0= -.18144298E+03  d E =-.827337E-04
quench:  g(F)=  0.000E+00 g(S)=  0.000E+00 dE (1.order)= 0.000E+00
 bond charge predicted
       N       E                     dE             d eps       ncg     rms          rms(c)
DAV:   1    -0.181454287743E+03    0.12378E-03   -0.99116E-03 11196   0.191E-01    0.504E-02
RMM:   2    -0.181458955885E+03   -0.46681E-02   -0.97277E-04 10477   0.588E-02    0.806E-01
RMM:   3    -0.181454442440E+03    0.45134E-02   -0.40418E-04  7986   0.355E-02    0.945E-02
RMM:   4    -0.181454327127E+03    0.11531E-03   -0.74084E-05  6009   0.192E-02    0.497E-02
RMM:   5    -0.181454308189E+03    0.18938E-04   -0.22060E-05  5747   0.103E-02
  40 F= -.18145431E+03 E0= -.18144297E+03  d E =0.516794E-04
quench:  g(F)=  0.000E+00 g(S)=  0.000E+00 dE (1.order)= 0.000E+00
 bond charge predicted
       N       E                     dE             d eps       ncg     rms          rms(c)
DAV:   1    -0.181454316654E+03    0.10473E-04   -0.89260E-03 11154   0.182E-01    0.366E-02
RMM:   2    -0.181454518338E+03   -0.20168E-03   -0.43934E-04  7044   0.423E-02    0.158E-01
RMM:   3    -0.181454403782E+03    0.11456E-03   -0.11909E-04  5862   0.253E-02    0.981E-02
RMM:   4    -0.181454345090E+03    0.58692E-04   -0.19673E-05  5656   0.858E-03
  41 F= -.18145435E+03 E0= -.18144304E+03  d E =-.369013E-04
quench:  g(F)=  0.000E+00 g(S)=  0.000E+00 dE (1.order)= 0.000E+00
 bond charge predicted
       N       E                     dE             d eps       ncg     rms          rms(c)
DAV:   1    -0.181454330599E+03    0.73184E-04   -0.85585E-03 11226   0.175E-01    0.300E-02
RMM:   2    -0.181454506608E+03   -0.17601E-03   -0.39025E-04  6636   0.375E-02    0.138E-01
RMM:   3    -0.181454498306E+03    0.83016E-05   -0.62563E-05  5894   0.167E-02
  42 F= -.18145450E+03 E0= -.18144324E+03  d E =-.153216E-03
quench:  g(F)=  0.000E+00 g(S)=  0.000E+00 dE (1.order)= 0.000E+00
 bond charge predicted
       N       E                     dE             d eps       ncg     rms          rms(c)
DAV:   1    -0.181454340669E+03    0.16594E-03   -0.10490E-02 11088   0.208E-01    0.382E-02
RMM:   2    -0.181455034089E+03   -0.69342E-03   -0.55352E-04  7433   0.481E-02    0.310E-01
RMM:   3    -0.181454511508E+03    0.52258E-03   -0.11150E-04  5971   0.224E-02    0.139E-01
RMM:   4    -0.181454371429E+03    0.14008E-03   -0.50117E-05  5745   0.148E-02    0.356E-02
RMM:   5    -0.181454364556E+03    0.68727E-05   -0.14908E-05  5617   0.842E-03
  43 F= -.18145436E+03 E0= -.18144306E+03  d E =0.133750E-03
quench:  g(F)=  0.000E+00 g(S)=  0.000E+00 dE (1.order)= 0.000E+00
 bond charge predicted
       N       E                     dE             d eps       ncg     rms          rms(c)
DAV:   1    -0.181454361403E+03    0.10025E-04   -0.85170E-03 11169   0.171E-01    0.266E-02
RMM:   2    -0.181454434235E+03   -0.72832E-04   -0.34956E-04  6370   0.344E-02
  44 F= -.18145443E+03 E0= -.18144313E+03  d E =-.696794E-04
quench:  g(F)=  0.000E+00 g(S)=  0.000E+00 dE (1.order)= 0.000E+00
 reached required accuracy - stopping structural energy minimisation
