 vasp.5.4.4.18Apr17-6-g9f103f2a35 (build Feb 06 2024 13:54:16) complex          
  
 POSCAR found type information on POSCAR  Pd N  O 
 04/POSCAR found :  3 types and      40 ions
 scaLAPACK will be used

 ----------------------------------------------------------------------------- 
|                                                                             |
|  ADVICE TO THIS USER RUNNING 'VASP/VAMP'   (HEAR YOUR MASTER'S VOICE ...):  |
|                                                                             |
|      You enforced a specific xc-type in the INCAR file,                     |
|      a different type was found on the POTCAR file                          |
|          I HOPE YOU KNOW, WHAT YOU ARE  DOING                               |
|                                                                             |
 ----------------------------------------------------------------------------- 

 LDA part: xc-table for Pade appr. of Perdew
 POSCAR found type information on POSCAR  Pd N  O 
 00/POSCAR found :  3 types and      40 ions
 POSCAR found type information on POSCAR  Pd N  O 
 06/POSCAR found :  3 types and      40 ions
 Jacobian:    21.0960049830057     
 POSCAR, INCAR and KPOINTS ok, starting setup
 FFT: planning ...
 WAVECAR not read
 entering main loop
       N       E                     dE             d eps       ncg     rms          rms(c)
  Solvation turned off during non-self-consistent phase (first NELMDL steps)
DAV:   1     0.266842254467E+04    0.26684E+04   -0.17928E+05 11097   0.149E+03
DAV:   2    -0.901549708105E+01   -0.26774E+04   -0.25081E+04 12270   0.322E+02
DAV:   3    -0.184006432731E+03   -0.17499E+03   -0.15696E+03 13104   0.728E+01
DAV:   4    -0.191376387940E+03   -0.73700E+01   -0.70702E+01 12852   0.147E+01
DAV:   5    -0.191587489816E+03   -0.21110E+00   -0.20935E+00 12666   0.265E+00    0.376E+01
 Begin Solvation calculations
  rms_SCF =    2.99778875411243      tol =   0.299778875411243     
 Begin minimization
 Creating dielectric and ionic cavities
  area:      170.299577018692     
  volume:    798.443093260650     
  Acav:     8.940727793481340E-002
  Solving linear dielectric/ionic screening model
        iter                  A_solv                     rms
   LPB:       -0.608966175831310E+03   0.344278767318619E+03
   LPB:    0  -0.186592240353198E+01   0.771774584863154E+01  -0.614432E+01   0.000000E+00   0.321620E+02  -0.197613E+03
   LPB:    1  -0.547123347710112E+00   0.443567585171277E+01   0.154978E-01   0.000000E+00   0.121524E+03  -0.987154E-14
   LPB:    2  -0.335767822473940E+00   0.206846416434645E+01   0.140651E-01   0.176588E+00   0.103389E+03  -0.293224E-13
   LPB:    3  -0.221229676238409E+00   0.579267103670307E+00   0.234205E-01   0.325450E+00   0.121764E+03  -0.385207E-13
   LPB:    4  -0.170721702973879E+00   0.187103041621107E+00   0.329815E-01   0.313138E+00   0.101164E+03  -0.426498E-13
  Finished solving LPB equations
  A_corr:   -8.131442503906516E-002
 End minimization
 Ecorr=   2231.23750483018     
 A_corr= -8.131442503906516E-002
 Ecorr_band=  -2231.31881925522     
 End Solvation calculations
RMM:   6    -0.187741904010E+03    0.38456E+01   -0.43897E+01 11088   0.139E+01    0.300E+01
 Begin Solvation calculations
  rms_SCF =    2.99778875411243      tol =   0.299778875411243     
 Begin minimization
 Creating dielectric and ionic cavities
  area:      158.406906414504     
  volume:    801.775933914513     
  Acav:     8.316362586761467E-002
  Solving linear dielectric/ionic screening model
        iter                  A_solv                     rms
   LPB:       -0.244272235731357E+02   0.899193355717017E+02
   LPB:    0  -0.241670242925179E+02   0.894782736428566E+02   0.127513E+00   0.000000E+00   0.320057E+02   0.408114E+01
   LPB:    1  -0.245270395887200E+01   0.835581450218893E+01   0.876071E-02   0.000000E+00   0.706334E+02  -0.368493E-15
   LPB:    2  -0.737721692597052E+00   0.136263987328656E+01   0.157342E-01   0.439753E-01   0.131181E+03  -0.952009E-14
   LPB:    3  -0.510962283113923E+00   0.518862307936873E+00   0.221704E-01   0.938373E-01   0.254567E+03  -0.948861E-14
   LPB:    4  -0.449419436208547E+00   0.387701563943439E+00   0.278840E-01   0.215790E+00   0.306064E+03  -0.932310E-14
   LPB:    5  -0.422682477769460E+00   0.212057601600393E+00   0.315692E-01   0.383730E+00   0.129364E+03  -0.648516E-14
  Finished solving LPB equations
  A_corr:   -0.339518851901845     
 End minimization
 Ecorr=   2198.94578575891     
 A_corr= -0.339518851901845     
 Ecorr_band=  -2199.28530461082     
 End Solvation calculations
RMM:   7    -0.238427342820E+03   -0.50685E+02   -0.24881E+01 11101   0.865E+00    0.540E+01
 Begin Solvation calculations
  rms_SCF =    2.99778875411243      tol =   0.299778875411243     
 Begin minimization
 Creating dielectric and ionic cavities
  area:      163.982990857374     
  volume:    807.377448199897     
  Acav:     8.609107020012141E-002
  Solving linear dielectric/ionic screening model
        iter                  A_solv                     rms
   LPB:       -0.228712515457456E+02   0.867822438151671E+02
   LPB:    0  -0.225270878242771E+02   0.862883728675675E+02   0.147256E+00   0.000000E+00   0.317431E+02   0.467436E+01
   LPB:    1  -0.211200937873176E+01   0.804840899535726E+01   0.884089E-02   0.000000E+00   0.701518E+02   0.977574E-16
   LPB:    2  -0.466574382032064E+00   0.167666568391517E+01   0.157937E-01   0.451171E-01   0.133795E+03   0.235358E-14
   LPB:    3  -0.226367183360544E+00   0.607445714762295E+00   0.228596E-01   0.100860E+00   0.160844E+03   0.242998E-14
   LPB:    4  -0.166009050592795E+00   0.639361555999369E+00   0.253869E-01   0.226261E+00   0.356270E+03   0.357516E-14
   LPB:    5  -0.146398568632488E+00   0.391903845131769E+00   0.232462E-01   0.354822E+00   0.105142E+03   0.631232E-14
   LPB:    6  -0.137396136375187E+00   0.330972279182790E+00   0.246750E-01   0.432479E+00   0.361135E+03   0.836598E-14
   LPB:    7  -0.132203732404438E+00   0.105363240510859E+00   0.286103E-01   0.497444E+00   0.726854E+02   0.699032E-14
  Finished solving LPB equations
  A_corr:   -4.611266220431665E-002
 End minimization
 Ecorr=   2113.09904219947     
 A_corr= -4.611266220431665E-002
 Ecorr_band=  -2113.14515486168     
 End Solvation calculations
RMM:   8    -0.193894658438E+03    0.44533E+02   -0.20080E+01 11088   0.777E+00    0.318E+01
 Begin Solvation calculations
  rms_SCF =    2.99778875411243      tol =   0.299778875411243     
 Begin minimization
 Creating dielectric and ionic cavities
  area:      166.710197990116     
  volume:    800.019305884552     
  Acav:     8.752285394481082E-002
  Solving linear dielectric/ionic screening model
        iter                  A_solv                     rms
   LPB:       -0.101609191348910E+01   0.167024186117886E+02
   LPB:    0  -0.441939414068621E+00   0.773220923373349E+01  -0.189172E+00   0.000000E+00   0.320881E+02  -0.607016E+01
   LPB:    1  -0.195116909162923E+00   0.112768570493713E+01   0.100381E-01   0.000000E+00   0.567551E+02   0.441616E-15
   LPB:    2  -0.171388696460622E+00   0.587667345728837E+00   0.149419E-01   0.645839E-01   0.903013E+02  -0.126058E-13
   LPB:    3  -0.165519932338692E+00   0.350846149080958E+00   0.182505E-01   0.202494E+00   0.112298E+03  -0.103962E-13
   LPB:    4  -0.160300774199728E+00   0.168987582825368E+00   0.348559E-01   0.465642E+00   0.569305E+02  -0.964239E-14
  Finished solving LPB equations
  A_corr:   -7.277792025491706E-002
 End minimization
 Ecorr=   2129.67988865418     
 A_corr= -7.277792025491706E-002
 Ecorr_band=  -2129.75266657444     
 End Solvation calculations
RMM:   9    -0.188658433336E+03    0.52362E+01   -0.18412E+01 11094   0.796E+00    0.237E+01
 Begin Solvation calculations
  rms_SCF =    2.99778875411243      tol =   0.299778875411243     
 Begin minimization
 Creating dielectric and ionic cavities
  area:      162.565641458681     
  volume:    800.936946221315     
  Acav:     8.534696176580769E-002
  Solving linear dielectric/ionic screening model
        iter                  A_solv                     rms
   LPB:       -0.255067073844916E+01   0.271470742957426E+02
   LPB:    0  -0.205789795598213E+01   0.246439144806914E+02   0.175371E+00   0.000000E+00   0.320450E+02   0.561977E+01
   LPB:    1  -0.355114427347745E+00   0.223744281588496E+01   0.886768E-02   0.000000E+00   0.708897E+02   0.215891E-15
   LPB:    2  -0.212963883460069E+00   0.466681175231970E+00   0.154547E-01   0.479005E-01   0.158570E+03   0.327923E-14
   LPB:    3  -0.191180592465716E+00   0.262187591690038E+00   0.227829E-01   0.103950E+00   0.206125E+03   0.361339E-14
   LPB:    4  -0.184527480056089E+00   0.381874570808729E+00   0.248223E-01   0.280330E+00   0.353251E+03   0.512582E-14
   LPB:    5  -0.180686426337743E+00   0.171133735004074E+00   0.264474E-01   0.541856E+00   0.571629E+02   0.514947E-14
  Finished solving LPB equations
  A_corr:   -9.533946457193532E-002
 End minimization
 Ecorr=   2067.71900300191     
 A_corr= -9.533946457193532E-002
 Ecorr_band=  -2067.81434246648     
 End Solvation calculations
RMM:  10    -0.187775429209E+03    0.88300E+00   -0.95630E+00 11088   0.581E+00    0.209E+01
 Begin Solvation calculations
  rms_SCF =    2.99778875411243      tol =   0.299778875411243     
 Begin minimization
 Creating dielectric and ionic cavities
  area:      154.857635157614     
  volume:    793.903181325298     
  Acav:     8.130025845774723E-002
  Solving linear dielectric/ionic screening model
        iter                  A_solv                     rms
   LPB:       -0.465306010475696E+00   0.863723375501704E+01
   LPB:    0  -0.313264783736673E+00   0.354163800565008E+01  -0.969153E-01   0.000000E+00   0.323748E+02  -0.313761E+01
   LPB:    1  -0.225661171445135E+00   0.599977827428487E+00   0.121277E-01   0.000000E+00   0.561847E+02  -0.632399E-17
   LPB:    2  -0.212025234583892E+00   0.383623314658998E+00   0.176353E-01   0.107043E+00   0.258104E+03   0.168851E-13
   LPB:    3  -0.207304646484968E+00   0.482340469157523E+00   0.251260E-01   0.242980E+00   0.891969E+02   0.201324E-13
   LPB:    4  -0.204142792022143E+00   0.225851283284618E+00   0.221962E-01   0.758212E+00   0.762874E+02   0.204825E-13
  Finished solving LPB equations
  A_corr:   -0.122842533564396     
 End minimization
 Ecorr=   2069.68159490692     
 A_corr= -0.122842533564396     
 Ecorr_band=  -2069.80443744049     
 End Solvation calculations
RMM:  11    -0.183296487572E+03    0.44789E+01   -0.54958E+00 11094   0.450E+00    0.129E+01
 Begin Solvation calculations
  rms_SCF =    2.99778875411243      tol =   0.299778875411243     
 Begin minimization
 Creating dielectric and ionic cavities
  area:      153.574631201944     
  volume:    793.867690846747     
  Acav:     8.062668138102069E-002
  Solving linear dielectric/ionic screening model
        iter                  A_solv                     rms
   LPB:       -0.311194573376776E+00   0.533405995965245E+01
   LPB:    0  -0.252632761543763E+00   0.386157019210944E+01   0.601461E-01   0.000000E+00   0.323765E+02   0.194732E+01
   LPB:    1  -0.205444326893648E+00   0.286770978931710E+00   0.878201E-02   0.000000E+00   0.815485E+02   0.451521E-16
   LPB:    2  -0.199854904470265E+00   0.184726086608551E+00   0.196332E-01   0.529826E-01   0.322294E+03   0.114750E-14
   LPB:    3  -0.197222888315961E+00   0.165052701733582E+00   0.295591E-01   0.312767E+00   0.152419E+03   0.122725E-14
   LPB:    4  -0.195275461511284E+00   0.251081436334730E+00   0.309134E-01   0.707486E+00   0.293255E+03   0.187172E-14
  Finished solving LPB equations
  A_corr:   -0.114648780130264     
 End minimization
 Ecorr=   2045.13290838609     
 A_corr= -0.114648780130264     
 Ecorr_band=  -2045.24755716622     
 End Solvation calculations
RMM:  12    -0.182007206218E+03    0.12893E+01   -0.18394E+00 11092   0.261E+00    0.603E+00
 Begin Solvation calculations
  rms_SCF =    1.20152904715367      tol =   0.120152904715367     
 Begin minimization
 Creating dielectric and ionic cavities
  area:      147.659647407368     
  volume:    789.629186968279     
  Acav:     7.752131488886807E-002
  Solving linear dielectric/ionic screening model
        iter                  A_solv                     rms
   LPB:       -0.266547956242319E+00   0.265681784345708E+01
   LPB:    0  -0.265007535776616E+00   0.229346469017543E+01  -0.972504E-02   0.000000E+00   0.325752E+02  -0.316795E+00
   LPB:    1  -0.222663041266923E+00   0.777505644155127E+00   0.121654E-01   0.000000E+00   0.839515E+02  -0.197799E-16
   LPB:    2  -0.215414362200363E+00   0.222969231749682E+00   0.146660E-01   0.141996E+00   0.173066E+03  -0.364658E-14
   LPB:    3  -0.212764656624658E+00   0.227648171940856E+00   0.228913E-01   0.234195E+00   0.349144E+03  -0.412258E-14
   LPB:    4  -0.211275499361959E+00   0.157712798580010E+00   0.241609E-01   0.532478E+00   0.709067E+02  -0.394430E-14
   LPB:    5  -0.209570943763605E+00   0.127649416987795E+00   0.383415E-01   0.721296E+00   0.153985E+03  -0.110199E-14
   LPB:    6  -0.207999936480823E+00   0.565724924592827E-01   0.408354E-01   0.865364E+00   0.468369E+02   0.191999E-14
  Finished solving LPB equations
  A_corr:   -0.130478621591955     
 End minimization
 Ecorr=   2026.07159800130     
 A_corr= -0.130478621591955     
 Ecorr_band=  -2026.20207662289     
 End Solvation calculations
RMM:  13    -0.181832308073E+03    0.17490E+00   -0.58881E-01 11098   0.146E+00    0.509E+00
 Begin Solvation calculations
  rms_SCF =    1.20152904715367      tol =   0.120152904715367     
 Begin minimization
 Creating dielectric and ionic cavities
  area:      146.440407357857     
  volume:    787.148762191759     
  Acav:     7.688121386287508E-002
  Solving linear dielectric/ionic screening model
        iter                  A_solv                     rms
   LPB:       -0.223439406614455E+00   0.465234640721147E+00
   LPB:    0  -0.223096889511515E+00   0.585999058440646E+00   0.457761E-02   0.000000E+00   0.326915E+02   0.149649E+00
   LPB:    1  -0.214156770007363E+00   0.362797766761656E+00   0.148294E-01   0.000000E+00   0.186273E+03   0.266669E-19
   LPB:    2  -0.212872710753830E+00   0.142826282345460E+00   0.154735E-01   0.137651E+00   0.101323E+03   0.436176E-15
   LPB:    3  -0.212352283062782E+00   0.719315809596996E-01   0.197366E-01   0.317755E+00   0.300035E+03   0.162640E-14
   LPB:    4  -0.211972898956163E+00   0.974464841603013E-01   0.313103E-01   0.459519E+00   0.115256E+03   0.261001E-14
  Finished solving LPB equations
  A_corr:   -0.135091685093288     
 End minimization
 Ecorr=   2019.48406082387     
 A_corr= -0.135091685093288     
 Ecorr_band=  -2019.61915250896     
 End Solvation calculations
RMM:  14    -0.181696881054E+03    0.13543E+00   -0.29379E-01 11091   0.103E+00    0.315E+00
 Begin Solvation calculations
  rms_SCF =   0.895559493290164      tol =   8.955594932901637E-002
 Begin minimization
 Creating dielectric and ionic cavities
  area:      146.643147518210     
  volume:    784.407199405219     
  Acav:     7.698765244706032E-002
  Solving linear dielectric/ionic screening model
        iter                  A_solv                     rms
   LPB:       -0.234605062455863E+00   0.118509331129510E+01
   LPB:    0  -0.234175567626639E+00   0.125052814231912E+01   0.511593E-02   0.000000E+00   0.328200E+02   0.167905E+00
   LPB:    1  -0.221764189752233E+00   0.464907340416681E+00   0.110368E-01   0.000000E+00   0.121631E+03   0.115741E-16
   LPB:    2  -0.220018403517337E+00   0.711817231536509E-01   0.130060E-01   0.119363E+00   0.151263E+03  -0.507250E-16
   LPB:    3  -0.219485838301097E+00   0.768553678841526E-01   0.276129E-01   0.143685E+00   0.208118E+03  -0.243771E-15
   LPB:    4  -0.219101021298973E+00   0.907145670973992E-01   0.321388E-01   0.620818E+00   0.792205E+02  -0.256189E-15
   LPB:    5  -0.218701188781099E+00   0.828583492627230E-01   0.322212E-01   0.103636E+01   0.261348E+03  -0.780410E-15
  Finished solving LPB equations
  A_corr:   -0.141713536334039     
 End minimization
 Ecorr=   2012.11620868923     
 A_corr= -0.141713536334039     
 Ecorr_band=  -2012.25792222556     
 End Solvation calculations
RMM:  15    -0.181687597471E+03    0.92836E-02   -0.15384E-01 11092   0.743E-01    0.337E+00
 Begin Solvation calculations
  rms_SCF =   0.895559493290164      tol =   8.955594932901637E-002
 Begin minimization
 Creating dielectric and ionic cavities
  area:      147.090839530416     
  volume:    782.055427048104     
  Acav:     7.722269075346813E-002
  Solving linear dielectric/ionic screening model
        iter                  A_solv                     rms
   LPB:       -0.240327006895489E+00   0.111586828221763E+01
   LPB:    0  -0.239657593871341E+00   0.121773246688456E+01   0.637624E-02   0.000000E+00   0.329302E+02   0.209971E+00
   LPB:    1  -0.228211203287223E+00   0.434943018192966E+00   0.108973E-01   0.000000E+00   0.116484E+03  -0.101277E-16
   LPB:    2  -0.226643808628555E+00   0.681370779696246E-01   0.129999E-01   0.114786E+00   0.150485E+03  -0.311244E-15
   LPB:    3  -0.226332321883769E+00   0.697582439130636E-01   0.218200E-01   0.118399E+00   0.254312E+03  -0.411753E-15
   LPB:    4  -0.226110621281761E+00   0.717825598268255E-01   0.307959E-01   0.504301E+00   0.683813E+02  -0.484158E-15
  Finished solving LPB equations
  A_corr:   -0.148887930528293     
 End minimization
 Ecorr=   2004.49202674332     
 A_corr= -0.148887930528293     
 Ecorr_band=  -2004.64091467385     
 End Solvation calculations
RMM:  16    -0.181662238087E+03    0.25359E-01   -0.75712E-02 11098   0.535E-01    0.293E+00
 Begin Solvation calculations
  rms_SCF =   0.895559493290164      tol =   8.955594932901637E-002
 Begin minimization
 Creating dielectric and ionic cavities
  area:      147.566342152972     
  volume:    779.842812098087     
  Acav:     7.747232963031017E-002
  Solving linear dielectric/ionic screening model
        iter                  A_solv                     rms
   LPB:       -0.246048561781884E+00   0.663377457626833E+00
   LPB:    0  -0.245600009472214E+00   0.786993266138329E+00   0.521124E-02   0.000000E+00   0.330340E+02   0.172148E+00
   LPB:    1  -0.235401388558603E+00   0.438739084514430E+00   0.129566E-01   0.000000E+00   0.162523E+03  -0.125066E-17
   LPB:    2  -0.234209735214446E+00   0.886257632185723E-01   0.126025E-01   0.120128E+00   0.983115E+02   0.423331E-15
   LPB:    3  -0.233771308639241E+00   0.734513460621056E-01   0.235500E-01   0.196885E+00   0.228287E+03   0.511672E-15
   LPB:    4  -0.233471461271697E+00   0.866876008213051E-01   0.287621E-01   0.559982E+00   0.817808E+02   0.523927E-15
  Finished solving LPB equations
  A_corr:   -0.155999131641387     
 End minimization
 Ecorr=   1997.45646978523     
 A_corr= -0.155999131641387     
 Ecorr_band=  -1997.61246891687     
 End Solvation calculations
RMM:  17    -0.181630919962E+03    0.31318E-01   -0.36968E-02 11095   0.363E-01    0.209E+00
 Begin Solvation calculations
  rms_SCF =   0.895559493290164      tol =   8.955594932901637E-002
 Begin minimization
 Creating dielectric and ionic cavities
  area:      148.301152837178     
  volume:    777.097059247371     
  Acav:     7.785810523951835E-002
  Solving linear dielectric/ionic screening model
        iter                  A_solv                     rms
   LPB:       -0.263080674722570E+00   0.615799183496477E+00
   LPB:    0  -0.261656273037943E+00   0.832162646925248E+00   0.926843E-02   0.000000E+00   0.331627E+02   0.307366E+00
   LPB:    1  -0.244595977890217E+00   0.382518787452212E+00   0.146714E-01   0.000000E+00   0.180512E+03  -0.177148E-16
   LPB:    2  -0.242964794077800E+00   0.135325251061694E+00   0.149252E-01   0.939871E-01   0.969802E+02  -0.120061E-14
   LPB:    3  -0.242375389447687E+00   0.913014679021053E-01   0.221435E-01   0.243548E+00   0.172055E+03  -0.135321E-14
   LPB:    4  -0.241991570653925E+00   0.125573814304537E+00   0.256652E-01   0.561844E+00   0.111023E+03  -0.297768E-14
   LPB:    5  -0.241658777645976E+00   0.845850514448917E-01   0.246903E-01   0.901292E+00   0.213946E+03  -0.402448E-14
  Finished solving LPB equations
  A_corr:   -0.163800672406458     
 End minimization
 Ecorr=   1988.47982774104     
 A_corr= -0.163800672406458     
 Ecorr_band=  -1988.64362841344     
 End Solvation calculations
RMM:  18    -0.181606634415E+03    0.24286E-01   -0.26492E-02 11094   0.305E-01    0.127E+00
 Begin Solvation calculations
  rms_SCF =   0.346814830119608      tol =   3.468148301196079E-002
 Begin minimization
 Creating dielectric and ionic cavities
  area:      148.313083573272     
  volume:    776.012356912552     
  Acav:     7.786436887596802E-002
  Solving linear dielectric/ionic screening model
        iter                  A_solv                     rms
   LPB:       -0.250618868240603E+00   0.370996732174409E+00
   LPB:    0  -0.250482000424460E+00   0.463633193481160E+00   0.287083E-02   0.000000E+00   0.332135E+02   0.953506E-01
   LPB:    1  -0.246570980445149E+00   0.273015593269412E+00   0.133941E-01   0.000000E+00   0.156248E+03   0.564936E-17
   LPB:    2  -0.246039692287455E+00   0.646527851975006E-01   0.133910E-01   0.135875E+00   0.871324E+02  -0.465380E-15
   LPB:    3  -0.245868733442989E+00   0.705313595006246E-01   0.236694E-01   0.182049E+00   0.256318E+03  -0.723693E-15
   LPB:    4  -0.245652897123352E+00   0.774919966587944E-01   0.336690E-01   0.887543E+00   0.615089E+02  -0.685809E-15
   LPB:    5  -0.245367932815059E+00   0.496596405678734E-01   0.355800E-01   0.124937E+01   0.177599E+03  -0.452976E-15
   LPB:    6  -0.245179215833199E+00   0.181744335550319E-01   0.324247E-01   0.726693E+00   0.659201E+02  -0.525225E-15
  Finished solving LPB equations
  A_corr:   -0.167314846957231     
 End minimization
 Ecorr=   1982.30073085320     
 A_corr= -0.167314846957231     
 Ecorr_band=  -1982.46804570015     
 End Solvation calculations
RMM:  19    -0.181596110904E+03    0.10524E-01   -0.13733E-02 11097   0.219E-01    0.855E-01
 Begin Solvation calculations
  rms_SCF =   0.346814830119608      tol =   3.468148301196079E-002
 Begin minimization
 Creating dielectric and ionic cavities
  area:      148.530794107245     
  volume:    775.289730065902     
  Acav:     7.797866690630345E-002
  Solving linear dielectric/ionic screening model
        iter                  A_solv                     rms
   LPB:       -0.250279553891834E+00   0.389622116223948E+00
   LPB:    0  -0.250073785904893E+00   0.413355863202118E+00   0.351824E-02   0.000000E+00   0.332474E+02   0.116972E+00
   LPB:    1  -0.247260716432319E+00   0.102816376694057E+00   0.151405E-01   0.000000E+00   0.136017E+03   0.619969E-17
   LPB:    2  -0.246987365371057E+00   0.547044561705104E-01   0.148589E-01   0.990131E-01   0.192479E+03   0.323669E-15
   LPB:    3  -0.246928748552835E+00   0.312726454991864E-01   0.183396E-01   0.173739E+00   0.976537E+02   0.427993E-15
   LPB:    4  -0.246895949476067E+00   0.384689175982181E-01   0.264349E-01   0.388197E+00   0.241807E+03   0.605119E-15
   LPB:    5  -0.246861241509451E+00   0.346699965609222E-01   0.283618E-01   0.986307E+00   0.118093E+03   0.736913E-15
  Finished solving LPB equations
  A_corr:   -0.168882574603148     
 End minimization
 Ecorr=   1979.76307841366     
 A_corr= -0.168882574603148     
 Ecorr_band=  -1979.93196098827     
 End Solvation calculations
RMM:  20    -0.181591095557E+03    0.50153E-02   -0.49142E-03 11092   0.128E-01    0.460E-01
 Begin Solvation calculations
  rms_SCF =   0.112414968573775      tol =   1.124149685737747E-002
 Begin minimization
 Creating dielectric and ionic cavities
  area:      148.734774497906     
  volume:    774.556944879422     
  Acav:     7.808575661140044E-002
  Solving linear dielectric/ionic screening model
        iter                  A_solv                     rms
   LPB:       -0.254078447866830E+00   0.382164883367154E+00
   LPB:    0  -0.254066416016277E+00   0.407309899559215E+00   0.850311E-03   0.000000E+00   0.332818E+02   0.282999E-01
   LPB:    1  -0.250502617383788E+00   0.263989906851633E+00   0.137052E-01   0.000000E+00   0.194751E+03  -0.118169E-17
   LPB:    2  -0.250059634189733E+00   0.595735319481012E-01   0.129344E-01   0.131708E+00   0.743745E+02  -0.132822E-15
   LPB:    3  -0.249960997370462E+00   0.417536918875996E-01   0.184454E-01   0.156138E+00   0.305673E+03  -0.174439E-15
   LPB:    4  -0.249906016220211E+00   0.330071459276765E-01   0.236851E-01   0.434099E+00   0.103437E+03  -0.193921E-15
   LPB:    5  -0.249858845497027E+00   0.244909030959289E-01   0.304471E-01   0.667401E+00   0.177620E+03  -0.207685E-15
   LPB:    6  -0.249813638990966E+00   0.954017864449493E-02   0.396424E-01   0.736064E+00   0.835989E+02  -0.126020E-15
  Finished solving LPB equations
  A_corr:   -0.171727882379565     
 End minimization
 Ecorr=   1977.30189312551     
 A_corr= -0.171727882379565     
 Ecorr_band=  -1977.47362100789     
 End Solvation calculations
RMM:  21    -0.181589949054E+03    0.11465E-02   -0.26633E-03 11020   0.959E-02    0.379E-01
 Begin Solvation calculations
  rms_SCF =   0.112414968573775      tol =   1.124149685737747E-002
 Begin minimization
 Creating dielectric and ionic cavities
  area:      148.942350805290     
  volume:    773.912468464349     
  Acav:     7.819473417277749E-002
  Solving linear dielectric/ionic screening model
        iter                  A_solv                     rms
   LPB:       -0.256868638896162E+00   0.357286991517800E+00
   LPB:    0  -0.256860520850241E+00   0.376057795328929E+00   0.698137E-03   0.000000E+00   0.333120E+02   0.232563E-01
   LPB:    1  -0.253662865388497E+00   0.268970648331779E+00   0.132416E-01   0.000000E+00   0.227921E+03   0.295049E-18
   LPB:    2  -0.253244875354902E+00   0.546603457492761E-01   0.127137E-01   0.136145E+00   0.738690E+02  -0.301870E-15
   LPB:    3  -0.253160640418862E+00   0.303730431292682E-01   0.171382E-01   0.149497E+00   0.337164E+03  -0.244182E-15
   LPB:    4  -0.253124353174905E+00   0.269199005952449E-01   0.238190E-01   0.309958E+00   0.115813E+03  -0.279172E-15
   LPB:    5  -0.253091697139025E+00   0.231076373906137E-01   0.318255E-01   0.673532E+00   0.149614E+03  -0.351511E-15
   LPB:    6  -0.253054137293195E+00   0.907388598719866E-02   0.419985E-01   0.871569E+00   0.700304E+02  -0.490383E-15
  Finished solving LPB equations
  A_corr:   -0.174859403120417     
 End minimization
 Ecorr=   1975.25063020722     
 A_corr= -0.174859403120417     
 Ecorr_band=  -1975.42548961034     
 End Solvation calculations
RMM:  22    -0.181590122440E+03   -0.17339E-03   -0.14790E-03 11056   0.719E-02    0.425E-01
 Begin Solvation calculations
  rms_SCF =   0.112414968573775      tol =   1.124149685737747E-002
 Begin minimization
 Creating dielectric and ionic cavities
  area:      149.163111507421     
  volume:    773.413810724362     
  Acav:     7.831063354139620E-002
  Solving linear dielectric/ionic screening model
        iter                  A_solv                     rms
   LPB:       -0.259621149763033E+00   0.466395896598310E+00
   LPB:    0  -0.259615924229071E+00   0.476990065864999E+00   0.559922E-03   0.000000E+00   0.333354E+02   0.186652E-01
   LPB:    1  -0.256061488317725E+00   0.128696766966190E+00   0.149840E-01   0.000000E+00   0.130785E+03   0.915460E-19
   LPB:    2  -0.255727113980111E+00   0.495897311551989E-01   0.148531E-01   0.949012E-01   0.138268E+03   0.525506E-15
   LPB:    3  -0.255656406999116E+00   0.230670884947510E-01   0.202927E-01   0.154777E+00   0.115301E+03   0.501924E-15
   LPB:    4  -0.255620063954997E+00   0.134043686882377E-01   0.315269E-01   0.330840E+00   0.176358E+03   0.393119E-15
   LPB:    5  -0.255589855496017E+00   0.979081611396203E-02   0.422010E-01   0.620962E+00   0.114660E+03   0.337907E-15
  Finished solving LPB equations
  A_corr:   -0.177279221954620     
 End minimization
 Ecorr=   1973.67717779460     
 A_corr= -0.177279221954620     
 Ecorr_band=  -1973.85445701655     
 End Solvation calculations
RMM:  23    -0.181589682537E+03    0.43990E-03   -0.95168E-04 10838   0.545E-02    0.343E-01
 Begin Solvation calculations
  rms_SCF =   0.112414968573775      tol =   1.124149685737747E-002
 Begin minimization
 Creating dielectric and ionic cavities
  area:      149.480552382591     
  volume:    772.798990128986     
  Acav:     7.847729000086030E-002
  Solving linear dielectric/ionic screening model
        iter                  A_solv                     rms
   LPB:       -0.269609861926234E+00   0.743074805760886E+00
   LPB:    0  -0.269601041318774E+00   0.756000497543571E+00   0.727150E-03   0.000000E+00   0.333642E+02   0.242608E-01
   LPB:    1  -0.260846107226405E+00   0.202346167760756E+00   0.149820E-01   0.000000E+00   0.129573E+03   0.630148E-18
   LPB:    2  -0.260041333108154E+00   0.784341421985177E-01   0.149390E-01   0.921873E-01   0.130150E+03   0.911254E-15
   LPB:    3  -0.259857184151333E+00   0.431128813768190E-01   0.207414E-01   0.164808E+00   0.125470E+03   0.742904E-15
   LPB:    4  -0.259767224859559E+00   0.245256447545855E-01   0.289746E-01   0.349702E+00   0.134860E+03   0.856218E-15
   LPB:    5  -0.259716161078696E+00   0.468661387055499E-01   0.297739E-01   0.552394E+00   0.248899E+03   0.212364E-14
   LPB:    6  -0.259683878626330E+00   0.300247871241839E-01   0.199689E-01   0.942618E+00   0.776745E+02   0.293227E-14
   LPB:    7  -0.259651595896136E+00   0.109885825475767E-01   0.301912E-01   0.661419E+00   0.261842E+03   0.332178E-14
  Finished solving LPB equations
  A_corr:   -0.181174305895275     
 End minimization
 Ecorr=   1971.51521946041     
 A_corr= -0.181174305895275     
 Ecorr_band=  -1971.69639376630     
 End Solvation calculations
RMM:  24    -0.181589940166E+03   -0.25763E-03   -0.89839E-04 10344   0.522E-02    0.329E-01
 Begin Solvation calculations
  rms_SCF =   0.112414968573775      tol =   1.124149685737747E-002
 Begin minimization
 Creating dielectric and ionic cavities
  area:      149.652623700486     
  volume:    772.542521595994     
  Acav:     7.856762744275511E-002
  Solving linear dielectric/ionic screening model
        iter                  A_solv                     rms
   LPB:       -0.265580202019791E+00   0.491686243517103E+00
   LPB:    0  -0.265579861302804E+00   0.493945669720832E+00   0.142887E-03   0.000000E+00   0.333762E+02   0.476903E-02
   LPB:    1  -0.262430377549279E+00   0.103737752476833E+00   0.150024E-01   0.000000E+00   0.110485E+03  -0.119311E-21
   LPB:    2  -0.262150649820235E+00   0.516615570285797E-01   0.149943E-01   0.888649E-01   0.173715E+03  -0.393652E-16
   LPB:    3  -0.262087216420904E+00   0.260673041963003E-01   0.191366E-01   0.177683E+00   0.104897E+03   0.598056E-15
   LPB:    4  -0.262060835980081E+00   0.324540856514102E-01   0.244919E-01   0.324941E+00   0.245395E+03   0.848533E-16
   LPB:    5  -0.262042177281783E+00   0.276623415375709E-01   0.236531E-01   0.732376E+00   0.727141E+02  -0.187188E-15
   LPB:    6  -0.262018096913786E+00   0.111453165237616E-01   0.328837E-01   0.928301E+00   0.108708E+03  -0.350921E-15
  Finished solving LPB equations
  A_corr:   -0.183450469471031     
 End minimization
 Ecorr=   1970.32002503162     
 A_corr= -0.183450469471031     
 Ecorr_band=  -1970.50347550109     
 End Solvation calculations
RMM:  25    -0.181590256060E+03   -0.31589E-03   -0.45412E-04  8240   0.384E-02    0.314E-01
 Begin Solvation calculations
  rms_SCF =   0.112414968573775      tol =   1.124149685737747E-002
 Begin minimization
 Creating dielectric and ionic cavities
  area:      149.910871719676     
  volume:    772.302465058660     
  Acav:     7.870320765282987E-002
  Solving linear dielectric/ionic screening model
        iter                  A_solv                     rms
   LPB:       -0.276822372281449E+00   0.977291319588751E+00
   LPB:    0  -0.276812095305214E+00   0.966745499093252E+00  -0.784614E-03   0.000000E+00   0.333875E+02  -0.261963E-01
   LPB:    1  -0.267103190331310E+00   0.176404272561362E+00   0.148213E-01   0.000000E+00   0.926457E+02   0.155555E-17
   LPB:    2  -0.266283281642199E+00   0.110791281338813E+00   0.141237E-01   0.886200E-01   0.248199E+03  -0.256995E-16
   LPB:    3  -0.266102871205332E+00   0.503852283972896E-01   0.164220E-01   0.189242E+00   0.101691E+03  -0.226146E-15
   LPB:    4  -0.266025511718327E+00   0.494592056025309E-01   0.215943E-01   0.326091E+00   0.265791E+03  -0.333230E-15
   LPB:    5  -0.265978801914053E+00   0.295816778837681E-01   0.236170E-01   0.552090E+00   0.758272E+02  -0.342962E-15
   LPB:    6  -0.265940164660617E+00   0.115318313059242E-01   0.317609E-01   0.615077E+00   0.139266E+03  -0.731866E-16
   LPB:    7  -0.265911235079468E+00   0.607797608357256E-02   0.368871E-01   0.644696E+00   0.188410E+03   0.120645E-15
  Finished solving LPB equations
  A_corr:   -0.187208027426638     
 End minimization
 Ecorr=   1969.01158087415     
 A_corr= -0.187208027426638     
 Ecorr_band=  -1969.19878890158     
 End Solvation calculations
RMM:  26    -0.181590905444E+03   -0.64938E-03   -0.58501E-04  8824   0.417E-02    0.250E-01
 Begin Solvation calculations
  rms_SCF =   0.112414968573775      tol =   1.124149685737747E-002
 Begin minimization
 Creating dielectric and ionic cavities
  area:      150.124865674536     
  volume:    772.169466133366     
  Acav:     7.881555447913161E-002
  Solving linear dielectric/ionic screening model
        iter                  A_solv                     rms
   LPB:       -0.277834544069039E+00   0.879904207472204E+00
   LPB:    0  -0.277818034867837E+00   0.866232687734557E+00  -0.994365E-03   0.000000E+00   0.333937E+02  -0.332055E-01
   LPB:    1  -0.270505081912506E+00   0.159167736109837E+00   0.147413E-01   0.000000E+00   0.878120E+02   0.224823E-17
   LPB:    2  -0.269890976062707E+00   0.992037273539072E-01   0.138657E-01   0.892779E-01   0.253410E+03  -0.252379E-15
   LPB:    3  -0.269750106770224E+00   0.418930027647017E-01   0.162540E-01   0.195684E+00   0.105422E+03  -0.146411E-15
   LPB:    4  -0.269694680539197E+00   0.406009670512683E-01   0.211598E-01   0.302236E+00   0.256675E+03  -0.636770E-16
   LPB:    5  -0.269660251378462E+00   0.255582864012266E-01   0.247940E-01   0.530124E+00   0.762281E+02  -0.201682E-16
   LPB:    6  -0.269627867595835E+00   0.112106935848662E-01   0.345918E-01   0.674177E+00   0.122435E+03  -0.786981E-17
  Finished solving LPB equations
  A_corr:   -0.190812313116703     
 End minimization
 Ecorr=   1967.88772629762     
 A_corr= -0.190812313116703     
 Ecorr_band=  -1968.07853861073     
 End Solvation calculations
RMM:  27    -0.181591520799E+03   -0.61536E-03   -0.50474E-04  8425   0.374E-02    0.180E-01
 Begin Solvation calculations
  rms_SCF =   0.112414968573775      tol =   1.124149685737747E-002
 Begin minimization
 Creating dielectric and ionic cavities
  area:      150.297630508459     
  volume:    772.163254636968     
  Acav:     7.890625601694112E-002
  Solving linear dielectric/ionic screening model
        iter                  A_solv                     rms
   LPB:       -0.280028174513682E+00   0.881754643373844E+00
   LPB:    0  -0.279994508337614E+00   0.864538193126308E+00  -0.141997E-02   0.000000E+00   0.333940E+02  -0.474183E-01
   LPB:    1  -0.273784947815715E+00   0.163412904390007E+00   0.143933E-01   0.000000E+00   0.790921E+02   0.152524E-17
   LPB:    2  -0.273265496479262E+00   0.963800986760393E-01   0.130220E-01   0.924633E-01   0.278076E+03   0.189001E-16
   LPB:    3  -0.273143161040238E+00   0.316933361931224E-01   0.158997E-01   0.192883E+00   0.109433E+03   0.187943E-15
   LPB:    4  -0.273088048964877E+00   0.368723135151316E-01   0.252829E-01   0.283306E+00   0.219261E+03   0.171363E-15
   LPB:    5  -0.273050225783344E+00   0.288070069277616E-01   0.273387E-01   0.634690E+00   0.733180E+02   0.122807E-15
   LPB:    6  -0.273015749511949E+00   0.123207083174856E-01   0.322001E-01   0.773895E+00   0.108665E+03   0.165196E-15
   LPB:    7  -0.272989303451349E+00   0.570437576815124E-02   0.355908E-01   0.694002E+00   0.175323E+03  -0.192328E-15
  Finished solving LPB equations
  A_corr:   -0.194083047434408     
 End minimization
 Ecorr=   1967.07110740008     
 A_corr= -0.194083047434408     
 Ecorr_band=  -1967.26519044751     
 End Solvation calculations
RMM:  28    -0.181592436451E+03   -0.91565E-03   -0.32222E-04  7472   0.296E-02    0.232E-01
 Begin Solvation calculations
  rms_SCF =   0.112414968573775      tol =   1.124149685737747E-002
 Begin minimization
 Creating dielectric and ionic cavities
  area:      150.479442890422     
  volume:    772.199060966938     
  Acav:     7.900170751747176E-002
  Solving linear dielectric/ionic screening model
        iter                  A_solv                     rms
   LPB:       -0.286109688601948E+00   0.112293858231168E+01
   LPB:    0  -0.286070890002732E+00   0.110640122979917E+01  -0.152440E-02   0.000000E+00   0.333923E+02  -0.509033E-01
   LPB:    1  -0.277898164141453E+00   0.237277901390086E+00   0.137421E-01   0.000000E+00   0.697980E+02   0.189116E-17
   LPB:    2  -0.277126774832698E+00   0.988146820749723E-01   0.119216E-01   0.108799E+00   0.269551E+03   0.424595E-15
   LPB:    3  -0.276952836686419E+00   0.280026032374793E-01   0.167810E-01   0.160190E+00   0.140166E+03   0.487541E-15
   LPB:    4  -0.276898990306776E+00   0.317885094213300E-01   0.232772E-01   0.223177E+00   0.225026E+03   0.649348E-15
   LPB:    5  -0.276870574807251E+00   0.236615118659228E-01   0.255869E-01   0.480078E+00   0.852765E+02   0.478906E-15
   LPB:    6  -0.276845127773125E+00   0.114226645804821E-01   0.333496E-01   0.687082E+00   0.109410E+03   0.540611E-15
   LPB:    7  -0.276822683822620E+00   0.552331101788437E-02   0.375199E-01   0.783956E+00   0.133951E+03   0.320069E-15
  Finished solving LPB equations
  A_corr:   -0.197820976305148     
 End minimization
 Ecorr=   1966.01372634906     
 A_corr= -0.197820976305148     
 Ecorr_band=  -1966.21154732536     
 End Solvation calculations
RMM:  29    -0.181592866281E+03   -0.42983E-03   -0.35825E-04  7757   0.258E-02    0.126E-01
 Begin Solvation calculations
  rms_SCF =   0.112414968573775      tol =   1.124149685737747E-002
 Begin minimization
 Creating dielectric and ionic cavities
  area:      150.539863304926     
  volume:    772.241657509867     
  Acav:     7.903342823508606E-002
  Solving linear dielectric/ionic screening model
        iter                  A_solv                     rms
   LPB:       -0.280560813061871E+00   0.537495935208523E+00
   LPB:    0  -0.280541799872304E+00   0.525147446711604E+00  -0.106717E-02   0.000000E+00   0.333903E+02  -0.356330E-01
   LPB:    1  -0.278867974598103E+00   0.112137861293054E+00   0.133742E-01   0.000000E+00   0.669318E+02  -0.220449E-17
   LPB:    2  -0.278704244899315E+00   0.426046334944809E-01   0.117307E-01   0.111522E+00   0.268500E+03  -0.521627E-15
   LPB:    3  -0.278668152132077E+00   0.118187098656376E-01   0.172128E-01   0.150233E+00   0.144189E+03  -0.556217E-15
   LPB:    4  -0.278656072022155E+00   0.154610477342020E-01   0.259466E-01   0.222035E+00   0.184253E+03  -0.560161E-15
   LPB:    5  -0.278646006650603E+00   0.166039622634713E-01   0.330221E-01   0.654689E+00   0.776842E+02  -0.499316E-15
   LPB:    6  -0.278632463880471E+00   0.914890385420056E-02   0.388234E-01   0.114443E+01   0.680728E+02  -0.374803E-15
  Finished solving LPB equations
  A_corr:   -0.199599035645385     
 End minimization
 Ecorr=   1965.50769107413     
 A_corr= -0.199599035645385     
 Ecorr_band=  -1965.70729010978     
 End Solvation calculations
RMM:  30    -0.181593102155E+03   -0.23587E-03   -0.12937E-04  6466   0.170E-02    0.112E-01
 Begin Solvation calculations
  rms_SCF =   0.112414968573775      tol =   1.124149685737747E-002
 Begin minimization
 Creating dielectric and ionic cavities
  area:      150.644244495756     
  volume:    772.353182216234     
  Acav:     7.908822836027188E-002
  Solving linear dielectric/ionic screening model
        iter                  A_solv                     rms
   LPB:       -0.290464637137307E+00   0.119910569866803E+01
   LPB:    0  -0.290350949521985E+00   0.117184208435210E+01  -0.260973E-02   0.000000E+00   0.333851E+02  -0.871260E-01
   LPB:    1  -0.283228942996192E+00   0.244876903142637E+00   0.126388E-01   0.000000E+00   0.642550E+02   0.511621E-17
   LPB:    2  -0.282473458502167E+00   0.769967998750207E-01   0.114968E-01   0.116614E+00   0.265704E+03  -0.993670E-15
   LPB:    3  -0.282333876395667E+00   0.181364618465364E-01   0.173365E-01   0.122524E+00   0.155861E+03  -0.107830E-14
   LPB:    4  -0.282293753882198E+00   0.223700280592283E-01   0.260311E-01   0.191438E+00   0.208523E+03  -0.127956E-14
   LPB:    5  -0.282273801122815E+00   0.208652434480185E-01   0.267482E-01   0.483963E+00   0.100624E+03  -0.131399E-14
   LPB:    6  -0.282258812777863E+00   0.106510085119034E-01   0.286047E-01   0.702438E+00   0.969725E+02  -0.126104E-14
  Finished solving LPB equations
  A_corr:   -0.203170584417591     
 End minimization
 Ecorr=   1964.73816895408     
 A_corr= -0.203170584417591     
 Ecorr_band=  -1964.94133953850     
 End Solvation calculations
RMM:  31    -0.181593486495E+03   -0.38434E-03   -0.36805E-04  7767   0.229E-02    0.123E-01
 Begin Solvation calculations
  rms_SCF =   8.709584064349497E-002 tol =   8.709584064349497E-003
 Begin minimization
 Creating dielectric and ionic cavities
  area:      150.668647019337     
  volume:    772.414054074239     
  Acav:     7.910103968515207E-002
  Solving linear dielectric/ionic screening model
        iter                  A_solv                     rms
   LPB:       -0.284213545964530E+00   0.410887767650282E+00
   LPB:    0  -0.284198099086283E+00   0.402489358350291E+00  -0.962006E-03   0.000000E+00   0.333822E+02  -0.321139E-01
   LPB:    1  -0.283418449867178E+00   0.799509435784705E-01   0.121581E-01   0.000000E+00   0.647157E+02  -0.259703E-18
   LPB:    2  -0.283336556447857E+00   0.256353403027095E-01   0.114939E-01   0.111109E+00   0.254235E+03  -0.192783E-15
   LPB:    3  -0.283320282672638E+00   0.576634371355905E-02   0.186506E-01   0.122466E+00   0.129301E+03  -0.243025E-15
   LPB:    4  -0.283310195023023E+00   0.915327633277794E-02   0.433051E-01   0.266965E+00   0.127117E+03  -0.271858E-15
   LPB:    5  -0.283297523504248E+00   0.155334213292718E-01   0.444744E-01   0.122312E+01   0.687891E+02  -0.295452E-15
   LPB:    6  -0.283288547900204E+00   0.119651085316988E-01   0.269745E-01   0.116786E+01   0.653763E+02  -0.227255E-15
   LPB:    7  -0.283283118907701E+00   0.441034583765974E-02   0.255010E-01   0.639811E+00   0.176606E+03  -0.120555E-15
  Finished solving LPB equations
  A_corr:   -0.204182079222549     
 End minimization
 Ecorr=   1964.43089459188     
 A_corr= -0.204182079222549     
 Ecorr_band=  -1964.63507667110     
 End Solvation calculations
RMM:  32    -0.181593945908E+03   -0.45941E-03   -0.18656E-04  6765   0.187E-02    0.244E-01
 Begin Solvation calculations
  rms_SCF =   8.709584064349497E-002 tol =   8.709584064349497E-003
 Begin minimization
 Creating dielectric and ionic cavities
  area:      150.690714666721     
  volume:    772.433231445535     
  Acav:     7.911262520002847E-002
  Solving linear dielectric/ionic screening model
        iter                  A_solv                     rms
   LPB:       -0.283972105294936E+00   0.230618322681164E+00
   LPB:    0  -0.283970575164823E+00   0.228272821426660E+00  -0.302780E-03   0.000000E+00   0.333813E+02  -0.101072E-01
   LPB:    1  -0.283768425381259E+00   0.403775184634599E-01   0.110973E-01   0.000000E+00   0.624748E+02   0.661778E-18
   LPB:    2  -0.283743376148445E+00   0.925776335964973E-02   0.119430E-01   0.115139E+00   0.255907E+03  -0.500066E-16
   LPB:    3  -0.283739556695087E+00   0.243185368634309E-02   0.192219E-01   0.947382E-01   0.201574E+03  -0.472521E-16
   LPB:    4  -0.283738326052377E+00   0.385316698802666E-02   0.305712E-01   0.202588E+00   0.260919E+03  -0.784924E-16
  Finished solving LPB equations
  A_corr:   -0.204625700852349     
 End minimization
 Ecorr=   1964.26181910747     
 A_corr= -0.204625700852349     
 Ecorr_band=  -1964.46644480832     
 End Solvation calculations
RMM:  33    -0.181593427168E+03    0.51874E-03   -0.73574E-05  6227   0.138E-02    0.688E-02
 Begin Solvation calculations
  rms_SCF =   3.164150079148070E-002 tol =   3.164150079148070E-003
 Begin minimization
 Creating dielectric and ionic cavities
  area:      150.685327477341     
  volume:    772.521843936479     
  Acav:     7.910979692560420E-002
  Solving linear dielectric/ionic screening model
        iter                  A_solv                     rms
   LPB:       -0.286609775131385E+00   0.643635492778092E+00
   LPB:    0  -0.286567682194083E+00   0.630381965097432E+00  -0.158816E-02   0.000000E+00   0.333772E+02  -0.530084E-01
   LPB:    1  -0.285045697460401E+00   0.104868447585589E+00   0.108111E-01   0.000000E+00   0.651017E+02   0.136482E-18
   LPB:    2  -0.284883057820401E+00   0.266823695803991E-01   0.115836E-01   0.997341E-01   0.247940E+03  -0.418092E-16
   LPB:    3  -0.284860871667613E+00   0.498951610286857E-02   0.188781E-01   0.837029E-01   0.135859E+03  -0.791146E-16
   LPB:    4  -0.284854923905676E+00   0.416008380001574E-02   0.284014E-01   0.178193E+00   0.209917E+03  -0.177775E-15
   LPB:    5  -0.284851882146389E+00   0.506908162631750E-02   0.334518E-01   0.434202E+00   0.183323E+03  -0.174076E-15
   LPB:    6  -0.284849598484033E+00   0.684619355372270E-02   0.362990E-01   0.691881E+00   0.747966E+02  -0.186974E-15
   LPB:    7  -0.284847599451762E+00   0.525135715218568E-02   0.297487E-01   0.106811E+01   0.112253E+03  -0.235691E-15
   LPB:    8  -0.284845437751958E+00   0.240654281906479E-02   0.356341E-01   0.902770E+00   0.812919E+02  -0.345144E-15
  Finished solving LPB equations
  A_corr:   -0.205735640826353     
 End minimization
 Ecorr=   1963.93163671743     
 A_corr= -0.205735640826353     
 Ecorr_band=  -1964.13737235826     
 End Solvation calculations
RMM:  34    -0.181593636884E+03   -0.20972E-03   -0.69293E-05  6215   0.140E-02    0.893E-02
 Begin Solvation calculations
  rms_SCF =   3.164150079148070E-002 tol =   3.164150079148070E-003
 Begin minimization
 Creating dielectric and ionic cavities
  area:      150.663296518818     
  volume:    772.572773182510     
  Acav:     7.909823067237960E-002
  Solving linear dielectric/ionic screening model
        iter                  A_solv                     rms
   LPB:       -0.285562445175263E+00   0.354697463172128E+00
   LPB:    0  -0.285544854864906E+00   0.346862545698684E+00  -0.102670E-02   0.000000E+00   0.333748E+02  -0.342658E-01
   LPB:    1  -0.285111864809886E+00   0.462923584174617E-01   0.976570E-02   0.000000E+00   0.750428E+02   0.274204E-17
   LPB:    2  -0.285076657523962E+00   0.107137690745633E-01   0.114131E-01   0.695754E-01   0.267081E+03  -0.393689E-16
   LPB:    3  -0.285073113104835E+00   0.181982890005762E-02   0.195792E-01   0.586839E-01   0.112266E+03  -0.289699E-16
   LPB:    4  -0.285072300476224E+00   0.168650779732140E-02   0.263893E-01   0.170104E+00   0.406701E+03   0.127742E-16
  Finished solving LPB equations
  A_corr:   -0.205974069803844     
 End minimization
 Ecorr=   1963.91915072840     
 A_corr= -0.205974069803844     
 Ecorr_band=  -1964.12512479820     
 End Solvation calculations
RMM:  35    -0.181593815708E+03   -0.17882E-03   -0.34526E-05  6124   0.983E-03    0.461E-02
 Begin Solvation calculations
  rms_SCF =   3.164150079148070E-002 tol =   3.164150079148070E-003
 Begin minimization
 Creating dielectric and ionic cavities
  area:      150.652184223436     
  volume:    772.598038971658     
  Acav:     7.909239671730367E-002
  Solving linear dielectric/ionic screening model
        iter                  A_solv                     rms
   LPB:       -0.285766188514216E+00   0.325478139508607E+00
   LPB:    0  -0.285752429219549E+00   0.317274598367805E+00  -0.908054E-03   0.000000E+00   0.333736E+02  -0.303050E-01
   LPB:    1  -0.285411833668198E+00   0.402223789570546E-01   0.956276E-02   0.000000E+00   0.732697E+02   0.102387E-17
   LPB:    2  -0.285383873637454E+00   0.972090239982336E-02   0.116991E-01   0.671010E-01   0.235552E+03   0.829226E-16
   LPB:    3  -0.285381044976020E+00   0.181113974910978E-02   0.200120E-01   0.591434E-01   0.998306E+02   0.754705E-16
   LPB:    4  -0.285380153097263E+00   0.129735390775786E-02   0.320379E-01   0.196948E+00   0.146229E+03   0.290230E-16
  Finished solving LPB equations
  A_corr:   -0.206287756379959     
 End minimization
 Ecorr=   1963.80056736373     
 A_corr= -0.206287756379959     
 Ecorr_band=  -1964.00685512011     
 End Solvation calculations
RMM:  36    -0.181593992824E+03   -0.17712E-03   -0.26442E-05  5124   0.747E-03    0.834E-02
 Begin Solvation calculations
  rms_SCF =   3.164150079148070E-002 tol =   3.164150079148070E-003
 Begin minimization
 Creating dielectric and ionic cavities
  area:      150.641379974457     
  volume:    772.606124046284     
  Acav:     7.908672448659003E-002
  Solving linear dielectric/ionic screening model
        iter                  A_solv                     rms
   LPB:       -0.285428716626975E+00   0.125432426862294E+00
   LPB:    0  -0.285424929604047E+00   0.120397995451454E+00  -0.476392E-03   0.000000E+00   0.333732E+02  -0.158988E-01
   LPB:    1  -0.285366359353825E+00   0.154454412307326E-01   0.911577E-02   0.000000E+00   0.958480E+02  -0.423289E-18
   LPB:    2  -0.285362777769742E+00   0.265434275985396E-02   0.114442E-01   0.487087E-01   0.264304E+03  -0.143361E-16
   LPB:    3  -0.285362106338965E+00   0.171138866769935E-02   0.336616E-01   0.637347E-01   0.774834E+02  -0.452398E-16
   LPB:    4  -0.285361551608463E+00   0.287635492951520E-02   0.377420E-01   0.736869E+00   0.194490E+03  -0.530125E-16
  Finished solving LPB equations
  A_corr:   -0.206274827121873     
 End minimization
 Ecorr=   1963.72588238579     
 A_corr= -0.206274827121873     
 Ecorr_band=  -1963.93215721291     
 End Solvation calculations
RMM:  37    -0.181594090251E+03   -0.97427E-04   -0.17240E-05  4278   0.626E-03
 Begin Solvation calculations
  rms_SCF =   3.164150079148070E-002 tol =   3.164150079148070E-003
 Begin minimization
 Creating dielectric and ionic cavities
  area:      150.631953692709     
  volume:    772.602658543382     
  Acav:     7.908177568867240E-002
  Solving linear dielectric/ionic screening model
        iter                  A_solv                     rms
   LPB:       -0.285299137643773E+00   0.705814212577660E-01
   LPB:    0  -0.285296488209028E+00   0.635479142537481E-01  -0.398466E-03   0.000000E+00   0.333734E+02  -0.132982E-01
   LPB:    1  -0.285263667980052E+00   0.219891109082478E-01   0.966827E-02   0.000000E+00   0.165381E+03   0.679550E-18
   LPB:    2  -0.285260650848766E+00   0.274212270668704E-02   0.124013E-01   0.716697E-01   0.103693E+03  -0.210669E-16
   LPB:    3  -0.285259923731032E+00   0.157636945976282E-02   0.250359E-01   0.119375E+00   0.155196E+03   0.578693E-17
   LPB:    4  -0.285259496517914E+00   0.300420945290470E-02   0.389181E-01   0.377965E+00   0.613484E+03   0.114733E-16
  Finished solving LPB equations
  A_corr:   -0.206177720829241     
 End minimization
 Ecorr=   1963.70097708812     
 A_corr= -0.206177720829241     
 Ecorr_band=  -1963.90715480895     
 End Solvation calculations
   1 F= -.18159409E+03 E0= -.18158840E+03  d E =-.181594E+03
quench:  g(F)=  0.000E+00 g(S)=  0.000E+00 dE (1.order)= 0.000E+00
 bond charge predicted
       N       E                     dE             d eps       ncg     rms          rms(c)
 Begin Solvation calculations
  rms_SCF =   3.164150079148070E-002 tol =   3.164150079148070E-003
 Begin minimization
 Creating dielectric and ionic cavities
  area:      150.702488698702     
  volume:    772.661188727594     
  Acav:     7.911880656681838E-002
  Solving linear dielectric/ionic screening model
        iter                  A_solv                     rms
   LPB:       -0.292039837559457E+00   0.932070740340588E-02
   LPB:    0  -0.292039837212136E+00   0.944180711641166E-02   0.456245E-05   0.000000E+00   0.333707E+02   0.152252E-03
   LPB:    1  -0.286059405022771E+00   0.394483600175225E-02   0.156292E-01   0.000000E+00   0.438372E+06  -0.127057E-19
   LPB:    2  -0.285419093644961E+00   0.531611373703498E-02   0.271092E-01   0.617275E-01   0.969853E+05  -0.129412E-16
   LPB:    3  -0.285219623173182E+00   0.928228956052570E-02   0.321774E-01   0.262454E+00   0.111885E+05  -0.222547E-16
   LPB:    4  -0.285137897731551E+00   0.194129678504663E-01   0.339729E-01   0.388058E+00   0.166811E+04  -0.807674E-16
   LPB:    5  -0.285102744901080E+00   0.280664762774030E-01   0.287219E-01   0.508771E+00   0.227513E+03  -0.914605E-16
   LPB:    6  -0.285082413766415E+00   0.157707058212641E-01   0.228069E-01   0.728363E+00   0.191195E+03  -0.641835E-16
   LPB:    7  -0.285067145720541E+00   0.153457800389035E-01   0.312198E-01   0.548603E+00   0.464308E+03   0.192441E-15
   LPB:    8  -0.285059349075263E+00   0.207325001846527E-01   0.240023E-01   0.664205E+00   0.197555E+03   0.384985E-15
   LPB:    9  -0.285052833363092E+00   0.635390284479893E-02   0.216347E-01   0.927159E+00   0.256577E+03   0.482106E-15
   LPB:   10  -0.285047537735241E+00   0.146659969638718E-02   0.371422E-01   0.473412E+00   0.193911E+04   0.541337E-15
  Finished solving LPB equations
  A_corr:   -0.205928731168423     
 End minimization
 Ecorr=   1963.57847415979     
 A_corr= -0.205928731168423     
 Ecorr_band=  -1963.78440289096     
 End Solvation calculations
DAV:   1    -0.181599414519E+03   -0.54217E-02   -0.52446E-01 11421   0.122E+00    0.338E-01
 Begin Solvation calculations
  rms_SCF =   3.164150079148070E-002 tol =   3.164150079148070E-003
 Begin minimization
 Creating dielectric and ionic cavities
  area:      150.691571441879     
  volume:    772.179886361127     
  Acav:     7.911307500698637E-002
  Solving linear dielectric/ionic screening model
        iter                  A_solv                     rms
   LPB:       -0.313250544932726E+00   0.264433536895545E+01
   LPB:    0  -0.311333042616514E+00   0.250426163492144E+01  -0.107165E-01   0.000000E+00   0.333932E+02  -0.357859E+00
   LPB:    1  -0.293072304929530E+00   0.234394676617935E+00   0.885316E-02   0.000000E+00   0.735258E+02  -0.184101E-16
   LPB:    2  -0.291369263810456E+00   0.478626394192047E-01   0.142371E-01   0.579940E-01   0.223830E+03   0.402149E-15
   LPB:    3  -0.291121283317020E+00   0.466304150639453E-01   0.239026E-01   0.867301E-01   0.312506E+03   0.199737E-15
   LPB:    4  -0.291047156118072E+00   0.302762638483485E-01   0.215052E-01   0.332247E+00   0.137925E+03   0.726803E-16
   LPB:    5  -0.291009012882457E+00   0.144957763566876E-01   0.241482E-01   0.458247E+00   0.335715E+03  -0.909858E-16
   LPB:    6  -0.290988884416517E+00   0.742006909415277E-02   0.294901E-01   0.432117E+00   0.281647E+03  -0.106561E-15
   LPB:    7  -0.290977730237196E+00   0.437548656339467E-02   0.316003E-01   0.517145E+00   0.551948E+03  -0.131937E-15
   LPB:    8  -0.290971050439096E+00   0.211587766251205E-02   0.348483E-01   0.543045E+00   0.525086E+03  -0.105118E-15
  Finished solving LPB equations
  A_corr:   -0.211857975432110     
 End minimization
 Ecorr=   1964.75877444288     
 A_corr= -0.211857975432110     
 Ecorr_band=  -1964.97063241831     
 End Solvation calculations
RMM:   2    -0.181669013951E+03   -0.69599E-01   -0.31451E-02 11094   0.275E-01    0.308E+00
 Begin Solvation calculations
  rms_SCF =   3.164150079148070E-002 tol =   3.164150079148070E-003
 Begin minimization
 Creating dielectric and ionic cavities
  area:      152.553764877795     
  volume:    772.328534340465     
  Acav:     8.009072656084223E-002
  Solving linear dielectric/ionic screening model
        iter                  A_solv                     rms
   LPB:       -0.304681015462873E+00   0.219100458341992E+01
   LPB:    0  -0.304584802230803E+00   0.218468072982720E+01   0.240076E-02   0.000000E+00   0.333863E+02   0.801523E-01
   LPB:    1  -0.292090669334402E+00   0.200840919141191E+00   0.853918E-02   0.000000E+00   0.717927E+02   0.237758E-17
   LPB:    2  -0.291071939039977E+00   0.381146083298786E-01   0.151827E-01   0.458584E-01   0.145789E+03  -0.688160E-16
   LPB:    3  -0.290955522462897E+00   0.200185167628934E-01   0.219952E-01   0.788821E-01   0.182072E+03  -0.896749E-16
   LPB:    4  -0.290920108063423E+00   0.173389900165516E-01   0.267760E-01   0.249889E+00   0.245124E+03  -0.141730E-15
   LPB:    5  -0.290904732911955E+00   0.132497975503511E-01   0.237343E-01   0.489789E+00   0.214869E+03  -0.272165E-15
   LPB:    6  -0.290896328340703E+00   0.798902696651313E-02   0.256209E-01   0.506381E+00   0.230241E+03  -0.294277E-15
   LPB:    7  -0.290891234227086E+00   0.380229999640822E-02   0.297687E-01   0.521660E+00   0.325573E+03  -0.395887E-15
   LPB:    8  -0.290887791804667E+00   0.182739124404778E-02   0.361033E-01   0.557198E+00   0.852243E+03  -0.350508E-15
  Finished solving LPB equations
  A_corr:   -0.210797065243824     
 End minimization
 Ecorr=   1963.74719211816     
 A_corr= -0.210797065243824     
 Ecorr_band=  -1963.95798918340     
 End Solvation calculations
RMM:   3    -0.181604557452E+03    0.64456E-01   -0.80203E-03 11090   0.176E-01    0.679E-01
 Begin Solvation calculations
  rms_SCF =   3.164150079148070E-002 tol =   3.164150079148070E-003
 Begin minimization
 Creating dielectric and ionic cavities
  area:      150.979732877322     
  volume:    772.480993988214     
  Acav:     7.926435976059404E-002
  Solving linear dielectric/ionic screening model
        iter                  A_solv                     rms
   LPB:       -0.289795028299767E+00   0.363650580698005E+00
   LPB:    0  -0.289582284049610E+00   0.232123567351797E+00   0.357032E-02   0.000000E+00   0.333791E+02   0.119174E+00
   LPB:    1  -0.289365814081592E+00   0.402989126377642E-01   0.996258E-02   0.000000E+00   0.707014E+02   0.173959E-17
   LPB:    2  -0.289325351902567E+00   0.161391399568105E-01   0.161041E-01   0.115634E+00   0.182437E+03  -0.114172E-15
   LPB:    3  -0.289317540871795E+00   0.120938464232137E-01   0.189570E-01   0.163993E+00   0.177847E+03  -0.238216E-15
   LPB:    4  -0.289313189429399E+00   0.519227679545838E-02   0.243340E-01   0.433993E+00   0.204229E+03  -0.169185E-15
   LPB:    5  -0.289310949915153E+00   0.203033942169463E-02   0.278796E-01   0.449208E+00   0.645118E+03  -0.192508E-15
  Finished solving LPB equations
  A_corr:   -0.210046590154559     
 End minimization
 Ecorr=   1963.24882925984     
 A_corr= -0.210046590154559     
 Ecorr_band=  -1963.45887585000     
 End Solvation calculations
RMM:   4    -0.181600611735E+03    0.39457E-02   -0.28444E-03 11062   0.104E-01    0.359E-01
 Begin Solvation calculations
  rms_SCF =   3.164150079148070E-002 tol =   3.164150079148070E-003
 Begin minimization
 Creating dielectric and ionic cavities
  area:      150.685216355328     
  volume:    772.438210024713     
  Acav:     7.910973858654737E-002
  Solving linear dielectric/ionic screening model
        iter                  A_solv                     rms
   LPB:       -0.290496831031735E+00   0.202364893978947E+00
   LPB:    0  -0.290402546983166E+00   0.778686816617864E-01  -0.237675E-02   0.000000E+00   0.333811E+02  -0.793386E-01
   LPB:    1  -0.290342359953703E+00   0.195035743717706E-01   0.134626E-01   0.000000E+00   0.686191E+02  -0.582401E-17
   LPB:    2  -0.290333810644335E+00   0.104934516906302E-01   0.152584E-01   0.125327E+00   0.305090E+03  -0.527534E-16
   LPB:    3  -0.290330963718653E+00   0.100342101486641E-01   0.217225E-01   0.233909E+00   0.135351E+03  -0.507232E-16
   LPB:    4  -0.290329577162428E+00   0.511041171418393E-02   0.200260E-01   0.528293E+00   0.143628E+03  -0.578060E-16
   LPB:    5  -0.290328367959108E+00   0.183057780072911E-02   0.284190E-01   0.614537E+00   0.863421E+03  -0.814427E-16
  Finished solving LPB equations
  A_corr:   -0.211218629372561     
 End minimization
 Ecorr=   1963.48834053039     
 A_corr= -0.211218629372561     
 Ecorr_band=  -1963.69955915977     
 End Solvation calculations
RMM:   5    -0.181600019375E+03    0.59236E-03   -0.10256E-03 10911   0.654E-02    0.251E-01
 Begin Solvation calculations
  rms_SCF =   3.164150079148070E-002 tol =   3.164150079148070E-003
 Begin minimization
 Creating dielectric and ionic cavities
  area:      150.654964930964     
  volume:    772.452436674069     
  Acav:     7.909385658875608E-002
  Solving linear dielectric/ionic screening model
        iter                  A_solv                     rms
   LPB:       -0.292635286834651E+00   0.161691876398114E+00
   LPB:    0  -0.292615908805014E+00   0.122996145200976E+00  -0.107752E-02   0.000000E+00   0.333804E+02  -0.359680E-01
   LPB:    1  -0.292388428857484E+00   0.674796374907950E-01   0.140514E-01   0.000000E+00   0.128505E+03   0.256608E-17
   LPB:    2  -0.292361374447819E+00   0.123593510271893E-01   0.118070E-01   0.141538E+00   0.111326E+03   0.121204E-15
   LPB:    3  -0.292352191862675E+00   0.542625096685621E-02   0.220778E-01   0.181514E+00   0.401142E+03   0.134833E-15
   LPB:    4  -0.292348833035491E+00   0.604354341547954E-02   0.287016E-01   0.281367E+00   0.184060E+03   0.134506E-15
   LPB:    5  -0.292347303832495E+00   0.556645253970254E-02   0.231446E-01   0.564591E+00   0.270968E+03   0.167956E-15
   LPB:    6  -0.292346211668795E+00   0.215610730943595E-02   0.284482E-01   0.581055E+00   0.108984E+03   0.225116E-15
  Finished solving LPB equations
  A_corr:   -0.213252355080039     
 End minimization
 Ecorr=   1963.01449591277     
 A_corr= -0.213252355080039     
 Ecorr_band=  -1963.22774826785     
 End Solvation calculations
RMM:   6    -0.181599661002E+03    0.35837E-03   -0.56914E-04  9265   0.456E-02    0.169E-01
 Begin Solvation calculations
  rms_SCF =   3.164150079148070E-002 tol =   3.164150079148070E-003
 Begin minimization
 Creating dielectric and ionic cavities
  area:      150.651466146932     
  volume:    772.429307539460     
  Acav:     7.909201972713907E-002
  Solving linear dielectric/ionic screening model
        iter                  A_solv                     rms
   LPB:       -0.294591683533690E+00   0.230807337584238E+00
   LPB:    0  -0.294492792278411E+00   0.105186822976503E+00  -0.243411E-02   0.000000E+00   0.333815E+02  -0.812544E-01
   LPB:    1  -0.294287223925668E+00   0.302242950854891E-01   0.156233E-01   0.000000E+00   0.975703E+02  -0.302945E-17
   LPB:    2  -0.294269057809708E+00   0.139537863406117E-01   0.159564E-01   0.865255E-01   0.181280E+03   0.747245E-15
   LPB:    3  -0.294263484186745E+00   0.411893502480562E-02   0.206819E-01   0.236711E+00   0.119228E+03   0.901898E-15
   LPB:    4  -0.294260778777761E+00   0.410164975703225E-02   0.310617E-01   0.323193E+00   0.434766E+03   0.889019E-15
   LPB:    5  -0.294259465196524E+00   0.906636442599195E-02   0.265030E-01   0.569055E+00   0.187806E+03   0.861954E-15
   LPB:    6  -0.294258540659057E+00   0.402515066557589E-02   0.196440E-01   0.949582E+00   0.861854E+02   0.837660E-15
   LPB:    7  -0.294257747285091E+00   0.107105943706362E-02   0.323743E-01   0.520695E+00   0.263379E+03   0.820853E-15
  Finished solving LPB equations
  A_corr:   -0.215165727557952     
 End minimization
 Ecorr=   1962.79882575419     
 A_corr= -0.215165727557952     
 Ecorr_band=  -1963.01399148175     
 End Solvation calculations
RMM:   7    -0.181599522014E+03    0.13899E-03   -0.39264E-04  8008   0.401E-02    0.140E-01
 Begin Solvation calculations
  rms_SCF =   3.164150079148070E-002 tol =   3.164150079148070E-003
 Begin minimization
 Creating dielectric and ionic cavities
  area:      150.662760745454     
  volume:    772.469340940245     
  Acav:     7.909794939136326E-002
  Solving linear dielectric/ionic screening model
        iter                  A_solv                     rms
   LPB:       -0.296163262113008E+00   0.158168126908758E+00
   LPB:    0  -0.296137517171227E+00   0.105281820995320E+00  -0.124200E-02   0.000000E+00   0.333796E+02  -0.414574E-01
   LPB:    1  -0.295976077045064E+00   0.554482291031895E-01   0.140793E-01   0.000000E+00   0.111510E+03   0.176397E-17
   LPB:    2  -0.295958596721251E+00   0.104890095966598E-01   0.117654E-01   0.129572E+00   0.994515E+02  -0.254480E-15
   LPB:    3  -0.295953057197324E+00   0.524348876590187E-02   0.206633E-01   0.180438E+00   0.363370E+03  -0.270114E-15
   LPB:    4  -0.295951331913093E+00   0.488498240234768E-02   0.256411E-01   0.250987E+00   0.106996E+03  -0.270928E-15
   LPB:    5  -0.295950389804224E+00   0.437282817438491E-02   0.246046E-01   0.569064E+00   0.293424E+03  -0.275748E-15
   LPB:    6  -0.295949533495520E+00   0.154899922793182E-02   0.337763E-01   0.662115E+00   0.767566E+02  -0.299095E-15
  Finished solving LPB equations
  A_corr:   -0.216851584104156     
 End minimization
 Ecorr=   1962.33402540644     
 A_corr= -0.216851584104156     
 Ecorr_band=  -1962.55087699054     
 End Solvation calculations
RMM:   8    -0.181599453093E+03    0.68922E-04   -0.24935E-04  6506   0.325E-02
 Begin Solvation calculations
  rms_SCF =   3.164150079148070E-002 tol =   3.164150079148070E-003
 Begin minimization
 Creating dielectric and ionic cavities
  area:      150.676803911638     
  volume:    772.497040719089     
  Acav:     7.910532205361000E-002
  Solving linear dielectric/ionic screening model
        iter                  A_solv                     rms
   LPB:       -0.297097002057364E+00   0.103299286412487E+00
   LPB:    0  -0.297082240082950E+00   0.557303940155744E-01  -0.940491E-03   0.000000E+00   0.333784E+02  -0.313920E-01
   LPB:    1  -0.297024763061513E+00   0.144393670917560E-01   0.160399E-01   0.000000E+00   0.913867E+02  -0.527757E-18
   LPB:    2  -0.297020223566773E+00   0.762206591102223E-02   0.170680E-01   0.742221E-01   0.156671E+03   0.131120E-15
   LPB:    3  -0.297018978610990E+00   0.289495308926722E-02   0.197033E-01   0.237569E+00   0.934388E+02   0.837482E-16
   LPB:    4  -0.297018157767338E+00   0.370879099923125E-02   0.302089E-01   0.430042E+00   0.177920E+03   0.103655E-15
   LPB:    5  -0.297017572496814E+00   0.610901439297965E-02   0.262858E-01   0.819425E+00   0.133816E+03   0.111049E-15
   LPB:    6  -0.297017004431620E+00   0.246935611582534E-02   0.242211E-01   0.105334E+01   0.579142E+02   0.117051E-15
  Finished solving LPB equations
  A_corr:   -0.217911682378010     
 End minimization
 Ecorr=   1962.00091316968     
 A_corr= -0.217911682378010     
 Ecorr_band=  -1962.21882485206     
 End Solvation calculations
   2 F= -.18159945E+03 E0= -.18159395E+03  d E =-.536284E-02
quench:  g(F)=  0.000E+00 g(S)=  0.000E+00 dE (1.order)= 0.000E+00
 bond charge predicted
       N       E                     dE             d eps       ncg     rms          rms(c)
 Begin Solvation calculations
  rms_SCF =   3.164150079148070E-002 tol =   3.164150079148070E-003
 Begin minimization
 Creating dielectric and ionic cavities
  area:      150.664811124442     
  volume:    772.497820324793     
  Acav:     7.909902584033210E-002
  Solving linear dielectric/ionic screening model
        iter                  A_solv                     rms
   LPB:       -0.300216807709964E+00   0.579967484812266E-02
   LPB:    0  -0.300216807703452E+00   0.580438765496356E-02  -0.624650E-06   0.000000E+00   0.333783E+02  -0.208498E-04
   LPB:    1  -0.297567317966729E+00   0.338499155105206E-02   0.163035E-01   0.000000E+00   0.582371E+06   0.845794E-22
   LPB:    2  -0.297239630383413E+00   0.588783206624715E-02   0.276844E-01   0.728356E-01   0.732068E+05   0.502450E-17
   LPB:    3  -0.297133250103162E+00   0.150764142206677E-01   0.323963E-01   0.277422E+00   0.709136E+04   0.854192E-17
   LPB:    4  -0.297090616159315E+00   0.357867244970165E-01   0.308882E-01   0.420337E+00   0.505422E+03   0.769047E-17
   LPB:    5  -0.297072527494153E+00   0.244168676067596E-01   0.177505E-01   0.738303E+00   0.162777E+03  -0.273098E-16
   LPB:    6  -0.297056165015915E+00   0.780157998238094E-02   0.268585E-01   0.597819E+00   0.568271E+03   0.745660E-17
   LPB:    7  -0.297046516829128E+00   0.111600156998991E-01   0.339902E-01   0.465935E+00   0.452816E+03   0.473304E-16
   LPB:    8  -0.297041495862911E+00   0.103502190191748E-01   0.250021E-01   0.707488E+00   0.184586E+03   0.537773E-16
   LPB:    9  -0.297037549022706E+00   0.352613936380446E-02   0.277885E-01   0.707250E+00   0.265151E+03  -0.783590E-16
   LPB:   10  -0.297034752940539E+00   0.114280011876783E-02   0.376547E-01   0.522814E+00   0.263138E+04  -0.256161E-15
  Finished solving LPB equations
  A_corr:   -0.217935727100207     
 End minimization
 Ecorr=   1961.94485266999     
 A_corr= -0.217935727100207     
 Ecorr_band=  -1962.16278839709     
 End Solvation calculations
DAV:   1    -0.181601126189E+03   -0.16042E-02   -0.19211E-01 11364   0.827E-01    0.217E-01
 Begin Solvation calculations
  rms_SCF =   3.164150079148070E-002 tol =   3.164150079148070E-003
 Begin minimization
 Creating dielectric and ionic cavities
  area:      150.707008708278     
  volume:    772.311797620372     
  Acav:     7.912117957184618E-002
  Solving linear dielectric/ionic screening model
        iter                  A_solv                     rms
   LPB:       -0.303070537111544E+00   0.730348877098959E+00
   LPB:    0  -0.302425909773844E+00   0.526176483878193E+00  -0.621413E-02   0.000000E+00   0.333870E+02  -0.207471E+00
   LPB:    1  -0.301196767728288E+00   0.109474810528431E+00   0.101483E-01   0.000000E+00   0.775641E+02   0.300100E-17
   LPB:    2  -0.301001829780366E+00   0.266981206536200E-01   0.143779E-01   0.111942E+00   0.200424E+03  -0.842008E-15
   LPB:    3  -0.300957916890461E+00   0.237577306416886E-01   0.218660E-01   0.148123E+00   0.347257E+03  -0.997350E-15
   LPB:    4  -0.300942453051889E+00   0.139970917821917E-01   0.206740E-01   0.372451E+00   0.125690E+03  -0.103399E-14
   LPB:    5  -0.300933437954985E+00   0.574689514230766E-02   0.269095E-01   0.447891E+00   0.354598E+03  -0.105075E-14
   LPB:    6  -0.300928672141361E+00   0.241908248960677E-02   0.334636E-01   0.425110E+00   0.360764E+03  -0.112493E-14
  Finished solving LPB equations
  A_corr:   -0.221807492569515     
 End minimization
 Ecorr=   1962.28399350677     
 A_corr= -0.221807492569515     
 Ecorr_band=  -1962.50580099934     
 End Solvation calculations
RMM:   2    -0.181606645827E+03   -0.55196E-02   -0.98504E-03 11101   0.157E-01    0.836E-01
 Begin Solvation calculations
  rms_SCF =   3.164150079148070E-002 tol =   3.164150079148070E-003
 Begin minimization
 Creating dielectric and ionic cavities
  area:      151.023815024951     
  volume:    772.472252059103     
  Acav:     7.928750288809912E-002
  Solving linear dielectric/ionic screening model
        iter                  A_solv                     rms
   LPB:       -0.302189342408470E+00   0.869928086600552E+00
   LPB:    0  -0.301986905822245E+00   0.829494322750870E+00   0.348273E-02   0.000000E+00   0.333795E+02   0.116252E+00
   LPB:    1  -0.300116214491799E+00   0.739963647776439E-01   0.864825E-02   0.000000E+00   0.722162E+02   0.323202E-17
   LPB:    2  -0.299959218212018E+00   0.189977598713186E-01   0.147630E-01   0.491632E-01   0.175651E+03  -0.229036E-15
   LPB:    3  -0.299937666066666E+00   0.149934276568771E-01   0.226018E-01   0.896670E-01   0.150965E+03  -0.863089E-16
   LPB:    4  -0.299930759306687E+00   0.868800655100979E-02   0.213736E-01   0.338883E+00   0.173059E+03  -0.304589E-16
   LPB:    5  -0.299927418411436E+00   0.338416166738094E-02   0.237647E-01   0.435045E+00   0.316722E+03  -0.624179E-16
   LPB:    6  -0.299925693285764E+00   0.245057395841283E-02   0.305870E-01   0.401193E+00   0.650879E+03   0.343806E-17
  Finished solving LPB equations
  A_corr:   -0.220638190397665     
 End minimization
 Ecorr=   1961.46993384614     
 A_corr= -0.220638190397665     
 Ecorr_band=  -1961.69057203654     
 End Solvation calculations
RMM:   3    -0.181605485348E+03    0.11605E-02   -0.24672E-03 11072   0.914E-02    0.767E-01
 Begin Solvation calculations
  rms_SCF =   3.164150079148070E-002 tol =   3.164150079148070E-003
 Begin minimization
 Creating dielectric and ionic cavities
  area:      150.731418438348     
  volume:    772.505006225232     
  Acav:     7.913399468013267E-002
  Solving linear dielectric/ionic screening model
        iter                  A_solv                     rms
   LPB:       -0.300168576598494E+00   0.548466954081826E+00
   LPB:    0  -0.300159541713151E+00   0.545136378141743E+00   0.735777E-03   0.000000E+00   0.333780E+02   0.245588E-01
   LPB:    1  -0.299382636521168E+00   0.519197723403088E-01   0.852410E-02   0.000000E+00   0.718265E+02   0.456709E-18
   LPB:    2  -0.299314698210353E+00   0.784710461898890E-02   0.158250E-01   0.471032E-01   0.132513E+03  -0.736596E-16
   LPB:    3  -0.299306845244375E+00   0.274976520034202E-02   0.220053E-01   0.831258E-01   0.280195E+03  -0.110747E-15
   LPB:    4  -0.299304548550258E+00   0.205884547096760E-02   0.273787E-01   0.235063E+00   0.574085E+03  -0.124152E-15
  Finished solving LPB equations
  A_corr:   -0.220170553870126     
 End minimization
 Ecorr=   1961.48477865718     
 A_corr= -0.220170553870126     
 Ecorr_band=  -1961.70494921105     
 End Solvation calculations
RMM:   4    -0.181601845671E+03    0.36397E-02   -0.94484E-04 10747   0.624E-02    0.279E-01
 Begin Solvation calculations
  rms_SCF =   3.164150079148070E-002 tol =   3.164150079148070E-003
 Begin minimization
 Creating dielectric and ionic cavities
  area:      150.731317661952     
  volume:    772.495708317261     
  Acav:     7.913394177252477E-002
  Solving linear dielectric/ionic screening model
        iter                  A_solv                     rms
   LPB:       -0.299793381814261E+00   0.144454599396290E+00
   LPB:    0  -0.299772956593801E+00   0.112492745304090E+00  -0.110628E-02   0.000000E+00   0.333784E+02  -0.369259E-01
   LPB:    1  -0.299734319073118E+00   0.160136096858057E-01   0.946168E-02   0.000000E+00   0.624641E+02   0.244835E-17
   LPB:    2  -0.299728150100795E+00   0.436588514869671E-02   0.157172E-01   0.961164E-01   0.115904E+03   0.141851E-15
   LPB:    3  -0.299727345113740E+00   0.321652022626594E-02   0.182406E-01   0.112438E+00   0.255392E+03   0.146753E-15
   LPB:    4  -0.299726992982125E+00   0.204640971324028E-02   0.254715E-01   0.313256E+00   0.116168E+03   0.153287E-15
  Finished solving LPB equations
  A_corr:   -0.220593051209600     
 End minimization
 Ecorr=   1961.53122973467     
 A_corr= -0.220593051209600     
 Ecorr_band=  -1961.75182278588     
 End Solvation calculations
RMM:   5    -0.181601284485E+03    0.56119E-03   -0.35956E-04  7441   0.380E-02    0.102E-01
 Begin Solvation calculations
  rms_SCF =   3.164150079148070E-002 tol =   3.164150079148070E-003
 Begin minimization
 Creating dielectric and ionic cavities
  area:      150.725915738197     
  volume:    772.520080607990     
  Acav:     7.913110576255322E-002
  Solving linear dielectric/ionic screening model
        iter                  A_solv                     rms
   LPB:       -0.300426087854499E+00   0.462850647222125E-01
   LPB:    0  -0.300425414695958E+00   0.391362862547125E-01  -0.200839E-03   0.000000E+00   0.333773E+02  -0.670346E-02
   LPB:    1  -0.300404972322486E+00   0.242672296250616E-01   0.135448E-01   0.000000E+00   0.115551E+03  -0.271186E-19
   LPB:    2  -0.300401464092029E+00   0.377401015611610E-02   0.124463E-01   0.186761E+00   0.903682E+02  -0.117733E-15
   LPB:    3  -0.300400312482302E+00   0.211561087925682E-02   0.243457E-01   0.167817E+00   0.396862E+03  -0.143803E-15
   LPB:    4  -0.300399723069744E+00   0.160933171751400E-02   0.337196E-01   0.369533E+00   0.134177E+03  -0.156906E-15
  Finished solving LPB equations
  A_corr:   -0.221268617307191     
 End minimization
 Ecorr=   1961.26610793103     
 A_corr= -0.221268617307191     
 Ecorr_band=  -1961.48737654834     
 End Solvation calculations
RMM:   6    -0.181601246242E+03    0.38243E-04   -0.15570E-04  6064   0.257E-02
 Begin Solvation calculations
  rms_SCF =   3.164150079148070E-002 tol =   3.164150079148070E-003
 Begin minimization
 Creating dielectric and ionic cavities
  area:      150.735170509859     
  volume:    772.521328187617     
  Acav:     7.913596451767607E-002
  Solving linear dielectric/ionic screening model
        iter                  A_solv                     rms
   LPB:       -0.301197547149610E+00   0.973672387665850E-01
   LPB:    0  -0.301181731635852E+00   0.475881799634750E-01  -0.973490E-03   0.000000E+00   0.333772E+02  -0.324924E-01
   LPB:    1  -0.301153907492808E+00   0.212598253270233E-01   0.144307E-01   0.000000E+00   0.741042E+02   0.165934E-17
   LPB:    2  -0.301150330793074E+00   0.595958482790595E-02   0.132832E-01   0.139651E+00   0.107442E+03  -0.606107E-15
   LPB:    3  -0.301149137445242E+00   0.488702662966635E-02   0.208026E-01   0.213045E+00   0.334452E+03  -0.680271E-15
   LPB:    4  -0.301148400729870E+00   0.386011574846248E-02   0.250096E-01   0.513504E+00   0.731778E+02  -0.704388E-15
   LPB:    5  -0.301147820684106E+00   0.216425294490288E-02   0.274957E-01   0.716149E+00   0.254764E+03  -0.680070E-15
  Finished solving LPB equations
  A_corr:   -0.222011856166430     
 End minimization
 Ecorr=   1961.12940293565     
 A_corr= -0.222011856166430     
 Ecorr_band=  -1961.35141479182     
 End Solvation calculations
   3 F= -.18160125E+03 E0= -.18159573E+03  d E =-.179315E-02
quench:  g(F)=  0.000E+00 g(S)=  0.000E+00 dE (1.order)= 0.000E+00
 bond charge predicted
       N       E                     dE             d eps       ncg     rms          rms(c)
 Begin Solvation calculations
  rms_SCF =   3.164150079148070E-002 tol =   3.164150079148070E-003
 Begin minimization
 Creating dielectric and ionic cavities
  area:      150.757271449908     
  volume:    772.553479977966     
  Acav:     7.914756751120153E-002
  Solving linear dielectric/ionic screening model
        iter                  A_solv                     rms
   LPB:       -0.305291382308586E+00   0.683377462488504E-02
   LPB:    0  -0.305291382210626E+00   0.687541499755465E-02   0.242283E-05   0.000000E+00   0.333757E+02   0.808638E-04
   LPB:    1  -0.301617700591203E+00   0.234167464338666E-02   0.156181E-01   0.000000E+00   0.581654E+06   0.161725E-20
   LPB:    2  -0.301254894832869E+00   0.283571065405626E-02   0.265307E-01   0.581370E-01   0.176090E+06   0.811309E-17
   LPB:    3  -0.301144058048277E+00   0.534125311233372E-02   0.321267E-01   0.252285E+00   0.219736E+05   0.120313E-16
   LPB:    4  -0.301097018591244E+00   0.129674285954413E-01   0.349133E-01   0.390529E+00   0.286903E+04   0.435645E-16
   LPB:    5  -0.301075836694914E+00   0.241253575453103E-01   0.304813E-01   0.515775E+00   0.288882E+03   0.501762E-16
   LPB:    6  -0.301064600789014E+00   0.166971421401857E-01   0.204498E-01   0.790655E+00   0.177920E+03  -0.131906E-16
   LPB:    7  -0.301055599090861E+00   0.143608860703621E-01   0.270892E-01   0.604798E+00   0.363616E+03  -0.995601E-16
   LPB:    8  -0.301050468905439E+00   0.123204109715083E-01   0.227885E-01   0.677467E+00   0.160033E+03  -0.592525E-16
   LPB:    9  -0.301045993254988E+00   0.391212974010410E-02   0.269923E-01   0.736544E+00   0.364046E+03  -0.988638E-17
   LPB:   10  -0.301042694923587E+00   0.103868917236389E-02   0.384705E-01   0.517072E+00   0.143527E+04   0.125748E-15
  Finished solving LPB equations
  A_corr:   -0.221895127412386     
 End minimization
[...]
  Finished solving LPB equations
  A_corr:   -0.248536458544081     
 End minimization
 Ecorr=   1955.30476880310     
 A_corr= -0.248536458544081     
 Ecorr_band=  -1955.55330526165     
 End Solvation calculations
DAV:   1    -0.181597978627E+03    0.18236E-03   -0.66399E-03 11274   0.160E-01    0.235E-02
 Begin Solvation calculations
  rms_SCF =   4.024657689193378E-003 tol =   4.024657689193378E-004
 Begin minimization
 Creating dielectric and ionic cavities
  area:      151.129192607805     
  volume:    772.848582648458     
  Acav:     7.934282611909775E-002
  Solving linear dielectric/ionic screening model
        iter                  A_solv                     rms
   LPB:       -0.328055050552844E+00   0.227118217569245E-01
   LPB:    0  -0.328054480048581E+00   0.163108781496260E-01  -0.184935E-03   0.000000E+00   0.333619E+02  -0.616978E-02
   LPB:    1  -0.328052487859669E+00   0.651318031890237E-02   0.120187E-01   0.000000E+00   0.908256E+02   0.215616E-18
   LPB:    2  -0.328051999580854E+00   0.152369568881804E-02   0.148524E-01   0.198334E+00   0.208700E+03   0.137908E-16
   LPB:    3  -0.328051859634139E+00   0.135140702978805E-02   0.229491E-01   0.185492E+00   0.304275E+03   0.160902E-16
   LPB:    4  -0.328051801559601E+00   0.933154364228712E-03   0.224389E-01   0.424412E+00   0.154101E+03   0.122964E-16
   LPB:    5  -0.328051763868674E+00   0.463140340150492E-03   0.269590E-01   0.540193E+00   0.309811E+03   0.253341E-16
   LPB:    6  -0.328051736930548E+00   0.200898898203057E-03   0.370299E-01   0.520334E+00   0.476628E+03   0.302304E-16
  Finished solving LPB equations
  A_corr:   -0.248708910811450     
 End minimization
 Ecorr=   1955.30157990713     
 A_corr= -0.248708910811450     
 Ecorr_band=  -1955.55028881794     
 End Solvation calculations
RMM:   2    -0.181598014606E+03   -0.35978E-04   -0.16244E-04  5867   0.258E-02
 Begin Solvation calculations
  rms_SCF =   4.024657689193378E-003 tol =   4.024657689193378E-004
 Begin minimization
 Creating dielectric and ionic cavities
  area:      151.130080955334     
  volume:    772.853681848031     
  Acav:     7.934329250155048E-002
  Solving linear dielectric/ionic screening model
        iter                  A_solv                     rms
   LPB:       -0.327985958778896E+00   0.184061661146663E-01
   LPB:    0  -0.327985768242137E+00   0.162911906397448E-01   0.106876E-03   0.000000E+00   0.333616E+02   0.356556E-02
   LPB:    1  -0.327984849466005E+00   0.213516323068852E-02   0.948079E-02   0.000000E+00   0.749043E+02  -0.307479E-19
   LPB:    2  -0.327984699372112E+00   0.699443236121105E-03   0.160549E-01   0.964699E-01   0.290165E+03  -0.194973E-17
   LPB:    3  -0.327984654617917E+00   0.760897550202855E-03   0.265219E-01   0.180498E+00   0.279851E+03  -0.490805E-17
   LPB:    4  -0.327984637401263E+00   0.490813587373892E-03   0.215824E-01   0.472737E+00   0.160521E+03  -0.107239E-16
   LPB:    5  -0.327984626454389E+00   0.195122500236088E-03   0.275784E-01   0.497591E+00   0.339250E+03  -0.158472E-16
  Finished solving LPB equations
  A_corr:   -0.248641333952839     
 End minimization
 Ecorr=   1955.28668771758     
 A_corr= -0.248641333952839     
 Ecorr_band=  -1955.53532905154     
 End Solvation calculations
  59 F= -.18159801E+03 E0= -.18159275E+03  d E =0.944816E-04
quench:  g(F)=  0.000E+00 g(S)=  0.000E+00 dE (1.order)= 0.000E+00
 bond charge predicted
       N       E                     dE             d eps       ncg     rms          rms(c)
 Begin Solvation calculations
  rms_SCF =   4.024657689193378E-003 tol =   4.024657689193378E-004
 Begin minimization
 Creating dielectric and ionic cavities
  area:      151.134714658388     
  volume:    772.857447847280     
  Acav:     7.934572519565382E-002
  Solving linear dielectric/ionic screening model
        iter                  A_solv                     rms
   LPB:       -0.328111866074295E+00   0.122606815519053E-02
   LPB:    0  -0.328111866069804E+00   0.122715521657390E-02   0.518887E-06   0.000000E+00   0.333615E+02   0.173108E-04
   LPB:    1  -0.327976302085318E+00   0.427285712697013E-03   0.150250E-01   0.000000E+00   0.792374E+06  -0.160015E-20
   LPB:    2  -0.327965126481899E+00   0.191210934992375E-03   0.264931E-01   0.467527E-01   0.159633E+06   0.684216E-19
   LPB:    3  -0.327961582540706E+00   0.141623384816430E-03   0.329253E-01   0.255164E+00   0.981631E+05   0.272236E-18
   LPB:    4  -0.327959984727966E+00   0.161873447265353E-03   0.364003E-01   0.407816E+00   0.652367E+05   0.141761E-18
  Finished solving LPB equations
  A_corr:   -0.248614259532312     
 End minimization
 Ecorr=   1955.28885508233     
 A_corr= -0.248614259532312     
 Ecorr_band=  -1955.53746934186     
 End Solvation calculations
DAV:   1    -0.181597801917E+03    0.17671E-03   -0.97448E-03 11172   0.193E-01    0.337E-02
 Begin Solvation calculations
  rms_SCF =   4.024657689193378E-003 tol =   4.024657689193378E-004
 Begin minimization
 Creating dielectric and ionic cavities
  area:      151.135984586256     
  volume:    772.855763836064     
  Acav:     7.934639190778435E-002
  Solving linear dielectric/ionic screening model
        iter                  A_solv                     rms
   LPB:       -0.328010175765897E+00   0.799358710645314E-01
   LPB:    0  -0.328009759928376E+00   0.789953440047380E-01  -0.157890E-03   0.000000E+00   0.333615E+02  -0.526744E-02
   LPB:    1  -0.327992555990871E+00   0.684170700701930E-02   0.862399E-02   0.000000E+00   0.739965E+02   0.324756E-18
   LPB:    2  -0.327990803465449E+00   0.184226619994250E-02   0.165939E-01   0.529416E-01   0.183355E+03  -0.561099E-17
   LPB:    3  -0.327990283690944E+00   0.194956080792559E-02   0.305582E-01   0.161053E+00   0.270306E+03   0.611783E-17
   LPB:    4  -0.327989921297552E+00   0.228197669324171E-02   0.361193E-01   0.589867E+00   0.250091E+03   0.288708E-17
   LPB:    5  -0.327989632399560E+00   0.196336880050392E-02   0.294872E-01   0.976494E+00   0.321310E+03  -0.484454E-17
   LPB:    6  -0.327989392595995E+00   0.122284805454492E-02   0.302772E-01   0.808407E+00   0.332506E+03  -0.644445E-17
   LPB:    7  -0.327989249239501E+00   0.598566802622882E-03   0.290054E-01   0.624020E+00   0.635469E+03  -0.539091E-17
   LPB:    8  -0.327989164050682E+00   0.273983586685316E-03   0.346749E-01   0.497082E+00   0.116382E+04  -0.542627E-17
  Finished solving LPB equations
  A_corr:   -0.248642772142898     
 End minimization
 Ecorr=   1955.31480436395     
 A_corr= -0.248642772142898     
 Ecorr_band=  -1955.56344713609     
 End Solvation calculations
RMM:   2    -0.181597967844E+03   -0.16593E-03   -0.31147E-04  6466   0.359E-02    0.143E-01
 Begin Solvation calculations
  rms_SCF =   4.024657689193378E-003 tol =   4.024657689193378E-004
 Begin minimization
 Creating dielectric and ionic cavities
  area:      151.134547422732     
  volume:    772.860541946784     
  Acav:     7.934563739693447E-002
  Solving linear dielectric/ionic screening model
        iter                  A_solv                     rms
   LPB:       -0.328096562699351E+00   0.127680852910757E+00
   LPB:    0  -0.328096422296179E+00   0.127563283936930E+00   0.917449E-04   0.000000E+00   0.333613E+02   0.306073E-02
   LPB:    1  -0.328054109435552E+00   0.120554505326034E-01   0.853775E-02   0.000000E+00   0.713450E+02   0.197819E-18
   LPB:    2  -0.328050538566914E+00   0.224595610949797E-02   0.154893E-01   0.465171E-01   0.135472E+03   0.345596E-17
   LPB:    3  -0.328050139502551E+00   0.110230550676178E-02   0.215763E-01   0.802278E-01   0.182020E+03   0.323728E-17
   LPB:    4  -0.328050015407754E+00   0.936480475438494E-03   0.282073E-01   0.237862E+00   0.241562E+03  -0.103478E-16
   LPB:    5  -0.328049955636857E+00   0.879575584087395E-03   0.260773E-01   0.520997E+00   0.208841E+03  -0.197695E-16
   LPB:    6  -0.328049919027657E+00   0.592781259782279E-03   0.265150E-01   0.602382E+00   0.183316E+03  -0.306921E-16
   LPB:    7  -0.328049893110598E+00   0.338497342489030E-03   0.308508E-01   0.608445E+00   0.314549E+03  -0.312677E-16
  Finished solving LPB equations
  A_corr:   -0.248704255713664     
 End minimization
 Ecorr=   1955.25677119437     
 A_corr= -0.248704255713664     
 Ecorr_band=  -1955.50547545008     
 End Solvation calculations
RMM:   3    -0.181597883347E+03    0.84497E-04   -0.56924E-05  5800   0.171E-02
 Begin Solvation calculations
  rms_SCF =   4.024657689193378E-003 tol =   4.024657689193378E-004
 Begin minimization
 Creating dielectric and ionic cavities
  area:      151.133063692760     
  volume:    772.860664127155     
  Acav:     7.934485843869915E-002
  Solving linear dielectric/ionic screening model
        iter                  A_solv                     rms
   LPB:       -0.328044287461291E+00   0.627535693175611E-01
   LPB:    0  -0.328044260313699E+00   0.626544309865953E-01   0.403422E-04   0.000000E+00   0.333613E+02   0.134587E-02
   LPB:    1  -0.328033994132544E+00   0.579301007994928E-02   0.852829E-02   0.000000E+00   0.718515E+02   0.658392E-19
   LPB:    2  -0.328033155225473E+00   0.913247244412690E-03   0.153348E-01   0.454453E-01   0.141221E+03  -0.299971E-17
   LPB:    3  -0.328033052915754E+00   0.345391035681705E-03   0.228614E-01   0.818048E-01   0.247277E+03  -0.249038E-17
   LPB:    4  -0.328033013751568E+00   0.192786085765950E-03   0.308615E-01   0.283568E+00   0.458639E+03  -0.277350E-17
  Finished solving LPB equations
  A_corr:   -0.248688155312869     
 End minimization
 Ecorr=   1955.26387078190     
 A_corr= -0.248688155312869     
 Ecorr_band=  -1955.51255893722     
 End Solvation calculations
  60 F= -.18159788E+03 E0= -.18159253E+03  d E =0.131259E-03
quench:  g(F)=  0.000E+00 g(S)=  0.000E+00 dE (1.order)= 0.000E+00
 bond charge predicted
       N       E                     dE             d eps       ncg     rms          rms(c)
 Begin Solvation calculations
  rms_SCF =   4.024657689193378E-003 tol =   4.024657689193378E-004
 Begin minimization
 Creating dielectric and ionic cavities
  area:      151.132229552486     
  volume:    772.861551082349     
  Acav:     7.934442051505514E-002
  Solving linear dielectric/ionic screening model
        iter                  A_solv                     rms
   LPB:       -0.328148329533737E+00   0.104291480600945E-02
   LPB:    0  -0.328148329533702E+00   0.104304031090844E-02   0.460401E-07   0.000000E+00   0.333613E+02   0.153596E-05
   LPB:    1  -0.328045102813777E+00   0.353462195638876E-03   0.157067E-01   0.000000E+00   0.767323E+06   0.313912E-22
   LPB:    2  -0.328033444532363E+00   0.207211715212239E-03   0.277004E-01   0.640385E-01   0.221557E+06  -0.174867E-19
   LPB:    3  -0.328029592467776E+00   0.216517297332650E-03   0.329554E-01   0.277728E+00   0.120150E+06   0.270262E-18
   LPB:    4  -0.328027874154746E+00   0.564729328906659E-03   0.361195E-01   0.406998E+00   0.487247E+05   0.850064E-18
   LPB:    5  -0.328027001099987E+00   0.173613538454363E-02   0.372607E-01   0.492527E+00   0.433307E+04   0.292698E-17
   LPB:    6  -0.328026583349401E+00   0.410372969717487E-02   0.310766E-01   0.573711E+00   0.390583E+03   0.336039E-17
   LPB:    7  -0.328026361494157E+00   0.238272044993373E-02   0.180606E-01   0.913807E+00   0.171447E+03   0.173201E-17
   LPB:    8  -0.328026148926558E+00   0.978747007555215E-03   0.302016E-01   0.572966E+00   0.652211E+03   0.243125E-17
   LPB:    9  -0.328026019597008E+00   0.143798492868780E-02   0.340354E-01   0.539883E+00   0.400160E+03   0.308478E-17
   LPB:   10  -0.328025942968193E+00   0.118145687913381E-02   0.255570E-01   0.789072E+00   0.171713E+03   0.101480E-16
   LPB:   11  -0.328025881258153E+00   0.482476115172540E-03   0.292843E-01   0.702811E+00   0.347676E+03   0.134078E-16
   LPB:   12  -0.328025837990340E+00   0.294116905518971E-03   0.359210E-01   0.571605E+00   0.115761E+04   0.175388E-17
  Finished solving LPB equations
  A_corr:   -0.248681417475285     
 End minimization
 Ecorr=   1955.26608940142     
 A_corr= -0.248681417475285     
 Ecorr_band=  -1955.51477081889     
 End Solvation calculations
DAV:   1    -0.181597748371E+03    0.21947E-03   -0.72196E-03 11124   0.174E-01    0.506E-02
 Begin Solvation calculations
  rms_SCF =   4.024657689193378E-003 tol =   4.024657689193378E-004
 Begin minimization
 Creating dielectric and ionic cavities
  area:      151.134705454318     
  volume:    772.818985867273     
  Acav:     7.934572036351671E-002
  Solving linear dielectric/ionic screening model
        iter                  A_solv                     rms
   LPB:       -0.328700606552016E+00   0.105947290883276E+00
   LPB:    0  -0.328678130629252E+00   0.528170475753011E-01  -0.116075E-02   0.000000E+00   0.333633E+02  -0.387265E-01
   LPB:    1  -0.328660615815907E+00   0.146080713700780E-01   0.118843E-01   0.000000E+00   0.673878E+02  -0.131863E-17
   LPB:    2  -0.328656807760366E+00   0.610340828496852E-02   0.150649E-01   0.171516E+00   0.233393E+03  -0.452772E-16
   LPB:    3  -0.328656044613821E+00   0.447115955735569E-02   0.182487E-01   0.165440E+00   0.143633E+03  -0.556537E-16
   LPB:    4  -0.328655638933928E+00   0.118448372226908E-02   0.216286E-01   0.448516E+00   0.197653E+03  -0.677566E-16
   LPB:    5  -0.328655439476306E+00   0.543770742177257E-03   0.297910E-01   0.356953E+00   0.706910E+03  -0.667898E-16
   LPB:    6  -0.328655334236873E+00   0.363858404993891E-03   0.320118E-01   0.491025E+00   0.650004E+03  -0.697673E-16
  Finished solving LPB equations
  A_corr:   -0.249309613873356     
 End minimization
 Ecorr=   1955.39345730305     
 A_corr= -0.249309613873356     
 Ecorr_band=  -1955.64276691692     
 End Solvation calculations
RMM:   2    -0.181598136288E+03   -0.38792E-03   -0.48478E-04  7628   0.433E-02    0.228E-01
 Begin Solvation calculations
  rms_SCF =   4.024657689193378E-003 tol =   4.024657689193378E-004
 Begin minimization
 Creating dielectric and ionic cavities
  area:      151.142017921631     
  volume:    772.844119676908     
  Acav:     7.934955940885632E-002
  Solving linear dielectric/ionic screening model
        iter                  A_solv                     rms
   LPB:       -0.328398723908431E+00   0.171906010629219E+00
   LPB:    0  -0.328389526596668E+00   0.161588206399085E+00   0.742538E-03   0.000000E+00   0.333621E+02   0.247726E-01
   LPB:    1  -0.328320333356469E+00   0.167088399315419E-01   0.861616E-02   0.000000E+00   0.703392E+02  -0.172620E-17
   LPB:    2  -0.328313441582898E+00   0.271047223850877E-02   0.161735E-01   0.530612E-01   0.118877E+03   0.146670E-16
   LPB:    3  -0.328312679969982E+00   0.193752580546450E-02   0.203856E-01   0.876765E-01   0.344063E+03   0.680891E-16
   LPB:    4  -0.328312449594520E+00   0.190329524262912E-02   0.227783E-01   0.270710E+00   0.176035E+03   0.773934E-16
   LPB:    5  -0.328312357422959E+00   0.896776373250531E-03   0.219472E-01   0.415244E+00   0.132679E+03   0.852947E-16
   LPB:    6  -0.328312308984175E+00   0.351902871117914E-03   0.279398E-01   0.412812E+00   0.371204E+03   0.104424E-15
  Finished solving LPB equations
  A_corr:   -0.248962749575319     
 End minimization
 Ecorr=   1955.31361784515     
 A_corr= -0.248962749575319     
 Ecorr_band=  -1955.56258059473     
 End Solvation calculations
RMM:   3    -0.181597965513E+03    0.17078E-03   -0.16352E-04  6160   0.282E-02    0.171E-01
 Begin Solvation calculations
  rms_SCF =   4.024657689193378E-003 tol =   4.024657689193378E-004
 Begin minimization
 Creating dielectric and ionic cavities
  area:      151.142157835641     
  volume:    772.856490898625     
  Acav:     7.934963286371137E-002
  Solving linear dielectric/ionic screening model
        iter                  A_solv                     rms
   LPB:       -0.328324797613806E+00   0.131495334097955E+00
   LPB:    0  -0.328323807865051E+00   0.130326869277727E+00   0.243587E-03   0.000000E+00   0.333615E+02   0.812644E-02
   LPB:    1  -0.328279188026621E+00   0.118890239138314E-01   0.855822E-02   0.000000E+00   0.716829E+02   0.164286E-19
   LPB:    2  -0.328275555195578E+00   0.239763307539679E-02   0.150825E-01   0.461984E-01   0.149942E+03   0.103838E-16
   LPB:    3  -0.328275147750192E+00   0.140576474079745E-02   0.217227E-01   0.778725E-01   0.171148E+03   0.117155E-16
   LPB:    4  -0.328275041151856E+00   0.102486250242079E-02   0.234596E-01   0.242256E+00   0.206617E+03  -0.138594E-16
   LPB:    5  -0.328274999444603E+00   0.608653425447938E-03   0.219088E-01   0.418951E+00   0.232792E+03  -0.928574E-17
   LPB:    6  -0.328274976672968E+00   0.333100292531000E-03   0.274077E-01   0.436443E+00   0.267905E+03  -0.686193E-17
  Finished solving LPB equations
  A_corr:   -0.248925343809257     
 End minimization
 Ecorr=   1955.23865505477     
 A_corr= -0.248925343809257     
 Ecorr_band=  -1955.48758039858     
 End Solvation calculations
RMM:   4    -0.181597769752E+03    0.19576E-03   -0.44894E-05  5831   0.132E-02    0.537E-02
 Begin Solvation calculations
  rms_SCF =   4.024657689193378E-003 tol =   4.024657689193378E-004
 Begin minimization
 Creating dielectric and ionic cavities
  area:      151.135249010534     
  volume:    772.855025849990     
  Acav:     7.934600573053024E-002
  Solving linear dielectric/ionic screening model
        iter                  A_solv                     rms
   LPB:       -0.328269533643466E+00   0.161159537115820E-01
   LPB:    0  -0.328269143165839E+00   0.113720049730208E-01  -0.152999E-03   0.000000E+00   0.333616E+02  -0.510430E-02
   LPB:    1  -0.328268648648061E+00   0.137353824834370E-02   0.924905E-02   0.000000E+00   0.827040E+02  -0.268343E-18
   LPB:    2  -0.328268587409443E+00   0.730475977228586E-03   0.157266E-01   0.728290E-01   0.337718E+03  -0.260541E-17
   LPB:    3  -0.328268565146690E+00   0.665277732813349E-03   0.247876E-01   0.230651E+00   0.136875E+03  -0.610165E-18
   LPB:    4  -0.328268553790632E+00   0.319780250005489E-03   0.238959E-01   0.529127E+00   0.196963E+03  -0.253550E-17
  Finished solving LPB equations
  A_corr:   -0.248922548060102     
 End minimization
 Ecorr=   1955.27272793601     
 A_corr= -0.248922548060102     
 Ecorr_band=  -1955.52165048407     
 End Solvation calculations
RMM:   5    -0.181597751782E+03    0.17970E-04   -0.20476E-05  5649   0.102E-02
 Begin Solvation calculations
  rms_SCF =   4.024657689193378E-003 tol =   4.024657689193378E-004
 Begin minimization
 Creating dielectric and ionic cavities
  area:      151.132943099951     
  volume:    772.858604381079     
  Acav:     7.934479512747412E-002
  Solving linear dielectric/ionic screening model
        iter                  A_solv                     rms
   LPB:       -0.328323816627756E+00   0.682995178559881E-02
   LPB:    0  -0.328323767708105E+00   0.603871514355208E-02   0.541545E-04   0.000000E+00   0.333614E+02   0.180667E-02
   LPB:    1  -0.328323516809761E+00   0.210426755386640E-02   0.108947E-01   0.000000E+00   0.115699E+03  -0.655538E-19
   LPB:    2  -0.328323463852500E+00   0.355019428086200E-03   0.148047E-01   0.155325E+00   0.207694E+03  -0.795814E-19
   LPB:    3  -0.328323448742190E+00   0.381193583613966E-03   0.251476E-01   0.167978E+00   0.240422E+03  -0.708546E-18
   LPB:    4  -0.328323441390458E+00   0.432616200660480E-03   0.270031E-01   0.453106E+00   0.205693E+03  -0.701534E-18
   LPB:    5  -0.328323435485443E+00   0.240820024551142E-03   0.283846E-01   0.764121E+00   0.144204E+03   0.947132E-18
  Finished solving LPB equations
  A_corr:   -0.248978640357969     
 End minimization
 Ecorr=   1955.24143908066     
 A_corr= -0.248978640357969     
 Ecorr_band=  -1955.49041772102     
 End Solvation calculations
  61 F= -.18159775E+03 E0= -.18159243E+03  d E =0.131565E-03
quench:  g(F)=  0.000E+00 g(S)=  0.000E+00 dE (1.order)= 0.000E+00
 reached required accuracy - stopping structural energy minimisation
