 vasp.5.4.4.18Apr17-6-g9f103f2a35 (build Feb 06 2024 13:54:16) complex          
  
 POSCAR found type information on POSCAR  Cu N  O 
 02/POSCAR found :  3 types and      40 ions
 scaLAPACK will be used

 ----------------------------------------------------------------------------- 
|                                                                             |
|  ADVICE TO THIS USER RUNNING 'VASP/VAMP'   (HEAR YOUR MASTER'S VOICE ...):  |
|                                                                             |
|      You enforced a specific xc-type in the INCAR file,                     |
|      a different type was found on the POTCAR file                          |
|          I HOPE YOU KNOW, WHAT YOU ARE  DOING                               |
|                                                                             |
 ----------------------------------------------------------------------------- 

 LDA part: xc-table for Pade appr. of Perdew
 POSCAR found type information on POSCAR  Cu N  O 
 00/POSCAR found :  3 types and      40 ions
 POSCAR found type information on POSCAR  Cu N  O 
 06/POSCAR found :  3 types and      40 ions
 Jacobian:    19.9537150754471     
 POSCAR, INCAR and KPOINTS ok, starting setup
 FFT: planning ...
 WAVECAR not read
 entering main loop
       N       E                     dE             d eps       ncg     rms          rms(c)
  Solvation turned off during non-self-consistent phase (first NELMDL steps)
DAV:   1     0.427310191144E+04    0.42731E+04   -0.18061E+05 12096   0.212E+03
DAV:   2     0.635179679931E+03   -0.36379E+04   -0.35139E+04 12114   0.478E+02
DAV:   3    -0.258466147806E+02   -0.66103E+03   -0.61277E+03 13833   0.239E+02
DAV:   4    -0.146320609599E+03   -0.12047E+03   -0.10446E+03 21744   0.946E+01
DAV:   5    -0.161426476212E+03   -0.15106E+02   -0.14908E+02 18585   0.323E+01    0.430E+01
 Begin Solvation calculations
  rms_SCF =    2.70500698965242      tol =   0.270500698965242     
 Begin minimization
 Creating dielectric and ionic cavities
  area:      158.578646744788     
  volume:    654.634577210342     
  Acav:     8.325378954101351E-002
  Solving linear dielectric/ionic screening model
        iter                  A_solv                     rms
   LPB:       -0.346990826022595E+03   0.262927839336726E+03
   LPB:    0  -0.427533624119554E+01   0.120139616531058E+02  -0.493012E+01   0.000000E+00   0.282000E+02  -0.139029E+03
   LPB:    1  -0.751480442014156E+00   0.638532031918467E+01   0.140312E-01   0.000000E+00   0.213795E+03   0.920499E-14
   LPB:    2  -0.419178477781998E+00   0.232646708560098E+01   0.128257E-01   0.103164E+00   0.135039E+03  -0.188754E-13
   LPB:    3  -0.265811604288331E+00   0.695375830804820E+00   0.225825E-01   0.262125E+00   0.293995E+03  -0.228414E-13
   LPB:    4  -0.209988619690023E+00   0.718910258229274E+00   0.297156E-01   0.276611E+00   0.110346E+03  -0.287549E-13
   LPB:    5  -0.186750155690675E+00   0.769600846140448E+00   0.241226E-01   0.512808E+00   0.375882E+03  -0.289358E-13
   LPB:    6  -0.171453095113463E+00   0.226152438309155E+00   0.262082E-01   0.605880E+00   0.655064E+02  -0.308685E-13
  Finished solving LPB equations
  A_corr:   -8.819930557244990E-002
 End minimization
 Ecorr=   1952.45299063156     
 A_corr= -8.819930557244990E-002
 Ecorr_band=  -1952.54118993714     
 End Solvation calculations
RMM:   6    -0.147561767896E+03    0.13865E+02   -0.34488E+02 12312   0.934E+01    0.246E+01
 Begin Solvation calculations
  rms_SCF =    2.70500698965242      tol =   0.270500698965242     
 Begin minimization
 Creating dielectric and ionic cavities
  area:      161.974232904494     
  volume:    662.440468228590     
  Acav:     8.503647227485929E-002
  Solving linear dielectric/ionic screening model
        iter                  A_solv                     rms
   LPB:       -0.587587932439719E+00   0.798905906270542E+01
   LPB:    0  -0.370648378013107E+00   0.464801277077370E+01   0.124852E+00   0.000000E+00   0.278341E+02   0.347514E+01
   LPB:    1  -0.237645994061526E+00   0.156520928999594E+01   0.106811E-01   0.000000E+00   0.107636E+03   0.388499E-16
   LPB:    2  -0.204650285629330E+00   0.587143986081636E+00   0.187289E-01   0.141482E+00   0.666472E+02  -0.671260E-15
   LPB:    3  -0.196047928909717E+00   0.467510133733343E+00   0.211901E-01   0.230431E+00   0.465980E+02  -0.122316E-14
   LPB:    4  -0.189283519368637E+00   0.348648196060677E+00   0.288066E-01   0.578432E+00   0.258183E+03  -0.797780E-14
   LPB:    5  -0.182813388633498E+00   0.135858240579873E+00   0.387399E-01   0.711241E+00   0.324889E+02  -0.153693E-13
  Finished solving LPB equations
  A_corr:   -9.777691635863865E-002
 End minimization
 Ecorr=   1857.00361241902     
 A_corr= -9.777691635863865E-002
 Ecorr_band=  -1857.10138933538     
 End Solvation calculations
RMM:   7    -0.134278774128E+03    0.13283E+02   -0.59795E+01 12333   0.440E+01    0.462E+00
 Begin Solvation calculations
  rms_SCF =    1.47284539553077      tol =   0.147284539553077     
 Begin minimization
 Creating dielectric and ionic cavities
  area:      145.005168367546     
  volume:    662.995023740544     
  Acav:     7.612771339296180E-002
  Solving linear dielectric/ionic screening model
        iter                  A_solv                     rms
   LPB:       -0.803202793277734E+00   0.122320904806022E+02
   LPB:    0  -0.766387114671173E+00   0.122441911239507E+02   0.514572E-01   0.000000E+00   0.278081E+02   0.143092E+01
   LPB:    1  -0.303575635549636E+00   0.159835165588001E+01   0.963682E-02   0.000000E+00   0.657387E+02  -0.412694E-16
   LPB:    2  -0.251663086610143E+00   0.294440537359707E+00   0.143877E-01   0.751297E-01   0.156521E+03   0.226538E-14
   LPB:    3  -0.241285946987702E+00   0.136348549380086E+00   0.274419E-01   0.104805E+00   0.128428E+03   0.397802E-14
   LPB:    4  -0.235175075041682E+00   0.152405438183212E+00   0.396484E-01   0.407581E+00   0.106951E+03   0.402801E-14
   LPB:    5  -0.230169312688188E+00   0.129192266949813E+00   0.375591E-01   0.864725E+00   0.524172E+02   0.399364E-14
  Finished solving LPB equations
  A_corr:   -0.154041599295226     
 End minimization
 Ecorr=   1790.83221301536     
 A_corr= -0.154041599295226     
 Ecorr_band=  -1790.98625461466     
 End Solvation calculations
RMM:   8    -0.134224117371E+03    0.54657E-01   -0.19397E+00 12704   0.515E+00    0.366E+00
 Begin Solvation calculations
  rms_SCF =    1.47284539553077      tol =   0.147284539553077     
 Begin minimization
 Creating dielectric and ionic cavities
  area:      136.132769127254     
  volume:    661.145068923715     
  Acav:     7.146970379180860E-002
  Solving linear dielectric/ionic screening model
        iter                  A_solv                     rms
   LPB:       -0.621521153080156E+00   0.107990507998640E+02
   LPB:    0  -0.621158277903493E+00   0.107569876036744E+02  -0.510073E-02   0.000000E+00   0.278948E+02  -0.142284E+00
   LPB:    1  -0.316217116852657E+00   0.142600907886107E+01   0.929145E-02   0.000000E+00   0.599174E+02  -0.852038E-17
   LPB:    2  -0.265406901340954E+00   0.237180460081400E+00   0.187934E-01   0.823782E-01   0.840656E+02   0.629909E-14
   LPB:    3  -0.256765346572254E+00   0.177127561532285E+00   0.256266E-01   0.124726E+00   0.208050E+03   0.103036E-13
   LPB:    4  -0.252635754782042E+00   0.131478332943399E+00   0.331124E-01   0.369841E+00   0.852180E+02   0.111024E-13
  Finished solving LPB equations
  A_corr:   -0.181166050990233     
 End minimization
 Ecorr=   1762.85902442391     
 A_corr= -0.181166050990233     
 Ecorr_band=  -1763.04019047490     
 End Solvation calculations
RMM:   9    -0.134143760660E+03    0.80357E-01   -0.75452E-01 12465   0.358E+00    0.254E+00
 Begin Solvation calculations
  rms_SCF =    1.47284539553077      tol =   0.147284539553077     
 Begin minimization
 Creating dielectric and ionic cavities
  area:      132.881801834893     
  volume:    657.215956252257     
  Acav:     6.976294596331863E-002
  Solving linear dielectric/ionic screening model
        iter                  A_solv                     rms
   LPB:       -0.622128676077397E+00   0.943493841889417E+01
   LPB:    0  -0.622102094636055E+00   0.944815403475599E+01   0.137598E-02   0.000000E+00   0.280790E+02   0.386363E-01
   LPB:    1  -0.342453214007885E+00   0.121739629702255E+01   0.948684E-02   0.000000E+00   0.677846E+02  -0.976070E-18
   LPB:    2  -0.314263133238735E+00   0.216893872019701E+00   0.140759E-01   0.679406E-01   0.161530E+03   0.383493E-15
   LPB:    3  -0.306678317495408E+00   0.212958669706474E+00   0.327712E-01   0.115566E+00   0.160756E+03   0.359129E-14
   LPB:    4  -0.300841528612196E+00   0.275400810456163E+00   0.371423E-01   0.678973E+00   0.531101E+02   0.446547E-14
   LPB:    5  -0.296471169575762E+00   0.303141946021965E+00   0.295861E-01   0.939993E+00   0.214680E+03   0.544176E-14
   LPB:    6  -0.293489330063098E+00   0.148779742177895E+00   0.278506E-01   0.724802E+00   0.432716E+02   0.548528E-14
   LPB:    7  -0.291534763370585E+00   0.651471346984902E-01   0.307571E-01   0.593548E+00   0.214303E+03   0.719697E-14
  Finished solving LPB equations
  A_corr:   -0.221771817407267     
 End minimization
 Ecorr=   1715.61110912944     
 A_corr= -0.221771817407267     
 Ecorr_band=  -1715.83288094685     
 End Solvation calculations
RMM:  10    -0.134005397673E+03    0.13836E+00   -0.26046E-01 12694   0.215E+00    0.121E+00
 Begin Solvation calculations
  rms_SCF =    1.22401732915715      tol =   0.122401732915715     
 Begin minimization
 Creating dielectric and ionic cavities
  area:      133.201584276295     
  volume:    654.903369526887     
  Acav:     6.993083174505478E-002
  Solving linear dielectric/ionic screening model
        iter                  A_solv                     rms
   LPB:       -0.339329798807603E+00   0.211272396210319E+01
   LPB:    0  -0.337516489507067E+00   0.166531924900651E+01  -0.113429E-01   0.000000E+00   0.281874E+02  -0.319726E+00
   LPB:    1  -0.314960951082510E+00   0.516785946072934E+00   0.143961E-01   0.000000E+00   0.579051E+02  -0.697137E-17
   LPB:    2  -0.310970666955419E+00   0.244235552214001E+00   0.139736E-01   0.182258E+00   0.216469E+03  -0.990034E-15
   LPB:    3  -0.309869268004744E+00   0.176298664813589E+00   0.209696E-01   0.183933E+00   0.934971E+02  -0.139772E-14
   LPB:    4  -0.309230500149395E+00   0.112323854158200E+00   0.256788E-01   0.473602E+00   0.722254E+02  -0.147747E-14
  Finished solving LPB equations
  A_corr:   -0.239299668404340     
 End minimization
 Ecorr=   1705.02072702850     
 A_corr= -0.239299668404340     
 Ecorr_band=  -1705.26002669690     
 End Solvation calculations
RMM:  11    -0.133988036521E+03    0.17361E-01   -0.10366E-01 12592   0.132E+00    0.629E-01
 Begin Solvation calculations
  rms_SCF =   0.395672621511027      tol =   3.956726215110268E-002
 Begin minimization
 Creating dielectric and ionic cavities
  area:      134.534123071996     
  volume:    651.240226106129     
  Acav:     7.063041461279790E-002
  Solving linear dielectric/ionic screening model
        iter                  A_solv                     rms
   LPB:       -0.418206937059647E+00   0.238009952240440E+01
   LPB:    0  -0.417221620163807E+00   0.201332025612167E+01  -0.833597E-02   0.000000E+00   0.283591E+02  -0.236401E+00
   LPB:    1  -0.357224504818598E+00   0.105777222230722E+01   0.149740E-01   0.000000E+00   0.891762E+02   0.112825E-16
   LPB:    2  -0.349855506947224E+00   0.303851624210177E+00   0.141327E-01   0.130134E+00   0.722938E+02   0.567490E-14
   LPB:    3  -0.347091056724719E+00   0.198520088435112E+00   0.211459E-01   0.250726E+00   0.158910E+03   0.676743E-14
   LPB:    4  -0.345314941175620E+00   0.234862595823727E+00   0.278979E-01   0.486987E+00   0.572003E+02   0.759436E-14
   LPB:    5  -0.343730141889010E+00   0.162440371154791E+00   0.284921E-01   0.873675E+00   0.204807E+03   0.740542E-14
   LPB:    6  -0.342220040493992E+00   0.664854034811738E-01   0.368366E-01   0.737016E+00   0.601047E+02   0.695416E-14
   LPB:    7  -0.341110657260205E+00   0.358082673731079E-01   0.363627E-01   0.744217E+00   0.116360E+03   0.867286E-14
  Finished solving LPB equations
  A_corr:   -0.270480242647407     
 End minimization
 Ecorr=   1677.06517469956     
 A_corr= -0.270480242647407     
 Ecorr_band=  -1677.33565494221     
 End Solvation calculations
RMM:  12    -0.133984772720E+03    0.32638E-02   -0.41427E-02 13819   0.650E-01    0.304E-01
 Begin Solvation calculations
  rms_SCF =   0.395672621511027      tol =   3.956726215110268E-002
 Begin minimization
 Creating dielectric and ionic cavities
  area:      135.799990998344     
  volume:    648.812935016865     
  Acav:     7.129499527413045E-002
  Solving linear dielectric/ionic screening model
        iter                  A_solv                     rms
   LPB:       -0.419415575347198E+00   0.227365092067269E+01
   LPB:    0  -0.417836022718052E+00   0.180733767116233E+01  -0.105333E-01   0.000000E+00   0.284729E+02  -0.299915E+00
   LPB:    1  -0.375162329537287E+00   0.970700030508206E+00   0.145439E-01   0.000000E+00   0.848638E+02   0.196121E-16
   LPB:    2  -0.369128132786045E+00   0.216504836875960E+00   0.136253E-01   0.150936E+00   0.734312E+02   0.129162E-14
   LPB:    3  -0.367808860908426E+00   0.149376154531190E+00   0.178703E-01   0.166697E+00   0.266356E+03   0.276695E-14
   LPB:    4  -0.367313018714544E+00   0.104317397218147E+00   0.211125E-01   0.318128E+00   0.701931E+02   0.283986E-14
   LPB:    5  -0.366834356838939E+00   0.816364120180969E-01   0.335099E-01   0.608208E+00   0.230700E+03   0.314270E-14
   LPB:    6  -0.366183954689507E+00   0.394568556353613E-01   0.485435E-01   0.937983E+00   0.464060E+02   0.361317E-14
  Finished solving LPB equations
  A_corr:   -0.294888959415377     
 End minimization
 Ecorr=   1660.47137559359     
 A_corr= -0.294888959415377     
 Ecorr_band=  -1660.76626455301     
 End Solvation calculations
RMM:  13    -0.133987212525E+03   -0.24398E-02   -0.17255E-02 15066   0.307E-01    0.256E-01
 Begin Solvation calculations
  rms_SCF =   0.395672621511027      tol =   3.956726215110268E-002
 Begin minimization
 Creating dielectric and ionic cavities
  area:      136.455422231922     
  volume:    647.822241525885     
  Acav:     7.163909667175884E-002
  Solving linear dielectric/ionic screening model
        iter                  A_solv                     rms
   LPB:       -0.397688329653616E+00   0.136048609683947E+01
   LPB:    0  -0.396909265633837E+00   0.103499145749011E+01  -0.739148E-02   0.000000E+00   0.285194E+02  -0.210801E+00
   LPB:    1  -0.383058424606207E+00   0.488983837100101E+00   0.150866E-01   0.000000E+00   0.788303E+02   0.871599E-17
   LPB:    2  -0.381234215890158E+00   0.127275470993925E+00   0.139015E-01   0.142931E+00   0.772241E+02   0.742058E-14
   LPB:    3  -0.380858437993788E+00   0.915252608323754E-01   0.182276E-01   0.157105E+00   0.207804E+03   0.829784E-14
   LPB:    4  -0.380609263407244E+00   0.931544671236147E-01   0.277934E-01   0.434871E+00   0.541613E+02   0.830651E-14
   LPB:    5  -0.380266067933932E+00   0.703342145398195E-01   0.357321E-01   0.107132E+01   0.120475E+03   0.811034E-14
   LPB:    6  -0.379871675788641E+00   0.342424134816771E-01   0.379993E-01   0.108061E+01   0.426717E+02   0.710027E-14
  Finished solving LPB equations
  A_corr:   -0.308232579116883     
 End minimization
 Ecorr=   1650.00144162869     
 A_corr= -0.308232579116883     
 Ecorr_band=  -1650.30967420781     
 End Solvation calculations
RMM:  14    -0.133987500264E+03   -0.28774E-03   -0.52548E-03 13142   0.220E-01    0.200E-01
 Begin Solvation calculations
  rms_SCF =   0.395672621511027      tol =   3.956726215110268E-002
 Begin minimization
 Creating dielectric and ionic cavities
  area:      136.889006714748     
  volume:    647.292804769132     
  Acav:     7.186672852524294E-002
  Solving linear dielectric/ionic screening model
        iter                  A_solv                     rms
   LPB:       -0.400477550851986E+00   0.110263039755225E+01
   LPB:    0  -0.399938503037209E+00   0.853962152683886E+00  -0.614568E-02   0.000000E+00   0.285442E+02  -0.175423E+00
   LPB:    1  -0.391667796118458E+00   0.268707954135893E+00   0.158110E-01   0.000000E+00   0.674058E+02  -0.336750E-17
   LPB:    2  -0.390716809898014E+00   0.791440526032398E-01   0.144013E-01   0.126238E+00   0.114301E+03  -0.135156E-14
   LPB:    3  -0.390539669920792E+00   0.411367046439676E-01   0.205309E-01   0.130657E+00   0.121005E+03  -0.198690E-14
   LPB:    4  -0.390435998319348E+00   0.621608900476806E-01   0.319611E-01   0.375950E+00   0.875137E+02  -0.181147E-14
   LPB:    5  -0.390327545470055E+00   0.759409836523356E-01   0.291861E-01   0.114558E+01   0.110702E+03  -0.171216E-14
   LPB:    6  -0.390166199166586E+00   0.363976695567637E-01   0.332691E-01   0.130513E+01   0.381254E+02  -0.163899E-14
  Finished solving LPB equations
  A_corr:   -0.318299470641343     
 End minimization
 Ecorr=   1643.41336581738     
 A_corr= -0.318299470641343     
 Ecorr_band=  -1643.73166528802     
 End Solvation calculations
RMM:  15    -0.133988073695E+03   -0.57343E-03   -0.28076E-03 16758   0.867E-02    0.182E-01
 Begin Solvation calculations
  rms_SCF =   0.395672621511027      tol =   3.956726215110268E-002
 Begin minimization
 Creating dielectric and ionic cavities
  area:      138.041109991769     
  volume:    646.291409832255     
  Acav:     7.247158274567873E-002
  Solving linear dielectric/ionic screening model
        iter                  A_solv                     rms
   LPB:       -0.512511238184539E+00   0.358856354983310E+01
   LPB:    0  -0.505376318102976E+00   0.271809793309770E+01  -0.223405E-01   0.000000E+00   0.285912E+02  -0.638742E+00
   LPB:    1  -0.432702694301395E+00   0.765331463251137E+00   0.156184E-01   0.000000E+00   0.621389E+02   0.426853E-16
   LPB:    2  -0.424191430935389E+00   0.229216301897572E+00   0.145010E-01   0.126141E+00   0.120221E+03  -0.526711E-14
   LPB:    3  -0.422498959132822E+00   0.954206268029918E-01   0.213641E-01   0.134971E+00   0.118334E+03  -0.874241E-14
   LPB:    4  -0.421843841742467E+00   0.808396972357653E-01   0.278137E-01   0.297320E+00   0.154480E+03  -0.896329E-14
   LPB:    5  -0.421512972402912E+00   0.130401709390095E+00   0.266216E-01   0.527670E+00   0.180419E+03  -0.896970E-14
   LPB:    6  -0.421288494895706E+00   0.660164919573155E-01   0.206964E-01   0.872681E+00   0.682238E+02  -0.903305E-14
   LPB:    7  -0.421072406141646E+00   0.234997412586221E-01   0.327224E-01   0.608849E+00   0.165823E+03  -0.918446E-14
  Finished solving LPB equations
  A_corr:   -0.348600823395967     
 End minimization
 Ecorr=   1630.30822003589     
 A_corr= -0.348600823395967     
 Ecorr_band=  -1630.65682085929     
 End Solvation calculations
RMM:  16    -0.133991068336E+03   -0.29946E-02   -0.46243E-03 12251   0.137E-01    0.128E-01
 Begin Solvation calculations
  rms_SCF =   0.271965211588215      tol =   2.719652115882154E-002
 Begin minimization
 Creating dielectric and ionic cavities
  area:      138.513252150889     
  volume:    646.163082413885     
  Acav:     7.271945737921665E-002
  Solving linear dielectric/ionic screening model
        iter                  A_solv                     rms
   LPB:       -0.456648325257434E+00   0.179719251173811E+01
   LPB:    0  -0.454934823877364E+00   0.140445041188539E+01  -0.109470E-01   0.000000E+00   0.285972E+02  -0.313054E+00
   LPB:    1  -0.438107261406241E+00   0.322671374689645E+00   0.154556E-01   0.000000E+00   0.576033E+02  -0.113748E-16
   LPB:    2  -0.436187311025385E+00   0.121280466397990E+00   0.147199E-01   0.119799E+00   0.147484E+03   0.162748E-14
   LPB:    3  -0.435780554285931E+00   0.440274257484997E-01   0.209111E-01   0.149132E+00   0.924537E+02   0.229478E-14
   LPB:    4  -0.435597105174628E+00   0.774250074615488E-01   0.294081E-01   0.320694E+00   0.211217E+03   0.319638E-14
   LPB:    5  -0.435453068099270E+00   0.951362049192186E-01   0.268156E-01   0.861070E+00   0.594882E+02   0.359339E-14
   LPB:    6  -0.435280184867873E+00   0.391870011592819E-01   0.285452E-01   0.112754E+01   0.748032E+02   0.395488E-14
   LPB:    7  -0.435130940947319E+00   0.158557897955505E-01   0.343022E-01   0.718379E+00   0.869289E+02   0.477432E-14
  Finished solving LPB equations
  A_corr:   -0.362411483568102     
 End minimization
 Ecorr=   1623.14013652082     
 A_corr= -0.362411483568102     
 Ecorr_band=  -1623.50254800439     
 End Solvation calculations
RMM:  17    -0.133992885261E+03   -0.18169E-02   -0.12565E-03 12270   0.101E-01    0.133E-01
 Begin Solvation calculations
  rms_SCF =   0.271965211588215      tol =   2.719652115882154E-002
 Begin minimization
 Creating dielectric and ionic cavities
  area:      139.047790627021     
  volume:    646.163909406061     
  Acav:     7.300009007918588E-002
  Solving linear dielectric/ionic screening model
        iter                  A_solv                     rms
   LPB:       -0.492151953838212E+00   0.260352141601760E+01
   LPB:    0  -0.488769782890206E+00   0.211359518227165E+01  -0.153798E-01   0.000000E+00   0.285971E+02  -0.439819E+00
   LPB:    1  -0.458369546715527E+00   0.440345114995801E+00   0.149167E-01   0.000000E+00   0.520419E+02   0.237854E-16
   LPB:    2  -0.454906409485861E+00   0.197186370054002E+00   0.137604E-01   0.123491E+00   0.212127E+03   0.258805E-14
   LPB:    3  -0.454244839617241E+00   0.999840634043720E-01   0.169013E-01   0.155532E+00   0.105053E+03   0.337515E-14
   LPB:    4  -0.454023188372718E+00   0.845234888487496E-01   0.194453E-01   0.291205E+00   0.120046E+03   0.370474E-14
   LPB:    5  -0.453884773114368E+00   0.436365321325158E-01   0.252774E-01   0.480392E+00   0.969028E+02   0.381770E-14
   LPB:    6  -0.453761706342534E+00   0.184010310353976E-01   0.364960E-01   0.615807E+00   0.924637E+02   0.381951E-14
  Finished solving LPB equations
  A_corr:   -0.380761616263348     
 End minimization
 Ecorr=   1616.76195239777     
 A_corr= -0.380761616263348     
 Ecorr_band=  -1617.14271401403     
 End Solvation calculations
RMM:  18    -0.133994398346E+03   -0.15131E-02   -0.20834E-03 12259   0.697E-02    0.825E-02
 Begin Solvation calculations
  rms_SCF =   0.209035087406298      tol =   2.090350874062982E-002
 Begin minimization
 Creating dielectric and ionic cavities
  area:      139.197474908606     
  volume:    646.388964280423     
  Acav:     7.307867432701792E-002
  Solving linear dielectric/ionic screening model
        iter                  A_solv                     rms
   LPB:       -0.472903570875497E+00   0.148815263043135E+01
   LPB:    0  -0.472098655239727E+00   0.130004916022591E+01  -0.750428E-02   0.000000E+00   0.285866E+02  -0.214522E+00
   LPB:    1  -0.463228230723782E+00   0.258487640299181E+00   0.136251E-01   0.000000E+00   0.512702E+02  -0.624410E-17
   LPB:    2  -0.462221959583066E+00   0.118290532385517E+00   0.129740E-01   0.119134E+00   0.217573E+03  -0.134622E-14
   LPB:    3  -0.462003821146353E+00   0.457152288648383E-01   0.167415E-01   0.167995E+00   0.102586E+03  -0.172716E-14
   LPB:    4  -0.461899556414410E+00   0.579939779965922E-01   0.290150E-01   0.275790E+00   0.735010E+02  -0.187300E-14
   LPB:    5  -0.461794711703574E+00   0.461571533282028E-01   0.325620E-01   0.896024E+00   0.781666E+02  -0.205155E-14
   LPB:    6  -0.461684570178114E+00   0.189651886999872E-01   0.351271E-01   0.973807E+00   0.580196E+02  -0.256674E-14
  Finished solving LPB equations
  A_corr:   -0.388605895851096     
 End minimization
 Ecorr=   1612.84668277833     
 A_corr= -0.388605895851096     
 Ecorr_band=  -1613.23528867418     
 End Solvation calculations
RMM:  19    -0.133995272596E+03   -0.87425E-03   -0.50343E-04 12235   0.789E-02    0.871E-02
 Begin Solvation calculations
  rms_SCF =   0.209035087406298      tol =   2.090350874062982E-002
 Begin minimization
 Creating dielectric and ionic cavities
  area:      139.346796197095     
  volume:    646.587962977733     
  Acav:     7.315706800347485E-002
  Solving linear dielectric/ionic screening model
        iter                  A_solv                     rms
   LPB:       -0.490759771781287E+00   0.209459468931330E+01
   LPB:    0  -0.489399386771585E+00   0.188182245495881E+01  -0.975744E-02   0.000000E+00   0.285773E+02  -0.278841E+00
   LPB:    1  -0.474240704729933E+00   0.375396391107905E+00   0.125727E-01   0.000000E+00   0.504146E+02  -0.107242E-16
   LPB:    2  -0.472337894741287E+00   0.127899005622145E+00   0.125142E-01   0.126113E+00   0.202815E+03  -0.385367E-15
   LPB:    3  -0.471998018076668E+00   0.462840784998125E-01   0.168988E-01   0.132274E+00   0.129963E+03  -0.505053E-15
   LPB:    4  -0.471899393999585E+00   0.485236705508951E-01   0.248722E-01   0.197154E+00   0.844872E+02  -0.610126E-15
   LPB:    5  -0.471829540561940E+00   0.367436924488464E-01   0.290310E-01   0.606815E+00   0.964109E+02  -0.578018E-15
   LPB:    6  -0.471754491973646E+00   0.166621953695455E-01   0.372662E-01   0.836955E+00   0.621153E+02  -0.612566E-15
  Finished solving LPB equations
  A_corr:   -0.398597423970171     
 End minimization
 Ecorr=   1609.28962162927     
 A_corr= -0.398597423970171     
 Ecorr_band=  -1609.68821905324     
 End Solvation calculations
RMM:  20    -0.133995605591E+03   -0.33299E-03   -0.64138E-04 12238   0.490E-02    0.456E-02
 Begin Solvation calculations
  rms_SCF =   0.115499335447133      tol =   1.154993354471328E-002
 Begin minimization
 Creating dielectric and ionic cavities
  area:      139.360980275433     
  volume:    646.687756511454     
  Acav:     7.316451464460214E-002
  Solving linear dielectric/ionic screening model
        iter                  A_solv                     rms
   LPB:       -0.486514838712766E+00   0.161372659154850E+01
   LPB:    0  -0.485958783079161E+00   0.151058283022533E+01  -0.623878E-02   0.000000E+00   0.285726E+02  -0.178258E+00
   LPB:    1  -0.477882012044927E+00   0.252098351136536E+00   0.111400E-01   0.000000E+00   0.547563E+02  -0.121041E-16
   LPB:    2  -0.476971609257273E+00   0.776995718610881E-01   0.123371E-01   0.101781E+00   0.192704E+03   0.926751E-15
   LPB:    3  -0.476824695118802E+00   0.254918338495716E-01   0.181393E-01   0.109754E+00   0.116346E+03   0.107148E-14
   LPB:    4  -0.476780105738236E+00   0.326177376912604E-01   0.296288E-01   0.185812E+00   0.710929E+02   0.108104E-14
   LPB:    5  -0.476734818072170E+00   0.338316005704237E-01   0.355516E-01   0.846454E+00   0.863548E+02   0.119163E-14
   LPB:    6  -0.476680861861970E+00   0.175263589273642E-01   0.357126E-01   0.118604E+01   0.458908E+02   0.130260E-14
   LPB:    7  -0.476637714608095E+00   0.726975595572535E-02   0.337915E-01   0.845134E+00   0.105888E+03   0.122357E-14
  Finished solving LPB equations
  A_corr:   -0.403473199963493     
 End minimization
 Ecorr=   1606.76798044715     
 A_corr= -0.403473199963493     
 Ecorr_band=  -1607.17145364711     
 End Solvation calculations
RMM:  21    -0.133995714766E+03   -0.10918E-03   -0.22672E-04 12046   0.370E-02    0.284E-02
 Begin Solvation calculations
  rms_SCF =   6.804989643497535E-002 tol =   6.804989643497535E-003
 Begin minimization
 Creating dielectric and ionic cavities
  area:      139.324932902171     
  volume:    646.704465046779     
  Acav:     7.314558977363998E-002
  Solving linear dielectric/ionic screening model
        iter                  A_solv                     rms
   LPB:       -0.478385708635345E+00   0.645067285339294E+00
   LPB:    0  -0.478346457478590E+00   0.627810763732297E+00  -0.165757E-02   0.000000E+00   0.285718E+02  -0.473598E-01
   LPB:    1  -0.477102328688576E+00   0.763834858513939E-01   0.982686E-02   0.000000E+00   0.642024E+02  -0.210425E-17
   LPB:    2  -0.477002493619712E+00   0.169293475410231E-01   0.119561E-01   0.659544E-01   0.256847E+03  -0.218384E-15
   LPB:    3  -0.476988479422159E+00   0.779181217427686E-02   0.222587E-01   0.754004E-01   0.162236E+03  -0.216346E-15
   LPB:    4  -0.476982307097033E+00   0.127092017119856E-01   0.348069E-01   0.281654E+00   0.138435E+03  -0.241385E-15
   LPB:    5  -0.476972500505259E+00   0.170166035812218E-01   0.470647E-01   0.117500E+01   0.198641E+03  -0.136352E-15
   LPB:    6  -0.476962039157930E+00   0.852673530405268E-02   0.306188E-01   0.163975E+01   0.149139E+03  -0.329805E-16
   LPB:    7  -0.476954052821401E+00   0.510706885240615E-02   0.338804E-01   0.689921E+00   0.194794E+03   0.245912E-15
  Finished solving LPB equations
  A_corr:   -0.403808463047761     
 End minimization
 Ecorr=   1606.36040773291     
 A_corr= -0.403808463047761     
 Ecorr_band=  -1606.76421619596     
 End Solvation calculations
RMM:  22    -0.133995757791E+03   -0.43025E-04   -0.74744E-05  9917   0.253E-02    0.145E-02
 Begin Solvation calculations
  rms_SCF =   1.503251198555821E-002 tol =   1.503251198555821E-003
 Begin minimization
 Creating dielectric and ionic cavities
  area:      139.311320845565     
  volume:    646.691065752551     
  Acav:     7.313844344392169E-002
  Solving linear dielectric/ionic screening model
        iter                  A_solv                     rms
   LPB:       -0.476755895449402E+00   0.162285602134437E+00
   LPB:    0  -0.476755135549442E+00   0.160313522260071E+00  -0.230632E-03   0.000000E+00   0.285724E+02  -0.658972E-02
   LPB:    1  -0.476663817963914E+00   0.179152278585178E-01   0.925235E-02   0.000000E+00   0.814346E+02  -0.373968E-18
   LPB:    2  -0.476658197507946E+00   0.302087297808128E-02   0.121767E-01   0.467668E-01   0.357429E+03  -0.107364E-15
   LPB:    3  -0.476655631615692E+00   0.465459352066301E-02   0.479027E-01   0.116048E+00   0.305834E+03  -0.114901E-15
   LPB:    4  -0.476653607164636E+00   0.651388154334331E-02   0.345296E-01   0.109455E+01   0.782803E+02  -0.119413E-15
   LPB:    5  -0.476651972093772E+00   0.522081328327441E-02   0.310924E-01   0.896947E+00   0.117145E+03  -0.145036E-15
   LPB:    6  -0.476650622687887E+00   0.407641947854347E-02   0.316563E-01   0.810588E+00   0.102099E+03  -0.446373E-16
   LPB:    7  -0.476647851226564E+00   0.288556254728070E-02   0.602195E-01   0.107966E+01   0.247747E+03   0.732568E-16
   LPB:    8  -0.476644303069615E+00   0.219156994051283E-02   0.489094E-01   0.157630E+01   0.115599E+03   0.279783E-15
   LPB:    9  -0.476641877945153E+00   0.269903393785770E-02   0.361298E-01   0.925248E+00   0.289396E+03   0.525294E-15
   LPB:   10  -0.476640357551236E+00   0.147361952893477E-02   0.364938E-01   0.620680E+00   0.536560E+03   0.708917E-15
  Finished solving LPB equations
  A_corr:   -0.403501914107315     
 End minimization
 Ecorr=   1605.87858301572     
 A_corr= -0.403501914107315     
 Ecorr_band=  -1606.28208492983     
 End Solvation calculations
RMM:  23    -0.133995805039E+03   -0.47248E-04   -0.41564E-05  7923   0.204E-02    0.119E-02
 Begin Solvation calculations
  rms_SCF =   1.503251198555821E-002 tol =   1.503251198555821E-003
 Begin minimization
 Creating dielectric and ionic cavities
  area:      139.326332579563     
  volume:    646.626898577765     
  Acav:     7.314632460427062E-002
  Solving linear dielectric/ionic screening model
        iter                  A_solv                     rms
   LPB:       -0.477728399034978E+00   0.348510488673158E+00
   LPB:    0  -0.477707801052244E+00   0.327085083626869E+00  -0.120069E-02   0.000000E+00   0.285754E+02  -0.343102E-01
   LPB:    1  -0.477397949409427E+00   0.363928339837911E-01   0.925228E-02   0.000000E+00   0.640010E+02   0.491037E-18
   LPB:    2  -0.477376460801593E+00   0.961545431486891E-02   0.127044E-01   0.505066E-01   0.152749E+03  -0.207941E-15
   LPB:    3  -0.477373625041081E+00   0.434660608532561E-02   0.190929E-01   0.878101E-01   0.125024E+03  -0.211020E-15
   LPB:    4  -0.477372916987540E+00   0.440912763626663E-02   0.245637E-01   0.194077E+00   0.822759E+02  -0.207003E-15
   LPB:    5  -0.477372382217150E+00   0.207450083796834E-02   0.282176E-01   0.657470E+00   0.265217E+03  -0.186544E-15
   LPB:    6  -0.477371835742351E+00   0.143460739215360E-02   0.409955E-01   0.703373E+00   0.559084E+03  -0.170424E-15
  Finished solving LPB equations
  A_corr:   -0.404225511138080     
 End minimization
 Ecorr=   1605.53494252422     
 A_corr= -0.404225511138080     
 Ecorr_band=  -1605.93916803536     
 End Solvation calculations
RMM:  24    -0.133995855365E+03   -0.50326E-04   -0.20202E-05  7246   0.137E-02    0.611E-03
 Begin Solvation calculations
  rms_SCF =   9.505182573343684E-003 tol =   9.505182573343685E-004
 Begin minimization
 Creating dielectric and ionic cavities
  area:      139.330537809303     
  volume:    646.605235980422     
  Acav:     7.314853234988421E-002
  Solving linear dielectric/ionic screening model
        iter                  A_solv                     rms
   LPB:       -0.477411104337588E+00   0.856185389997074E-01
   LPB:    0  -0.477408426237652E+00   0.734835235427752E-01  -0.432937E-03   0.000000E+00   0.285764E+02  -0.123718E-01
   LPB:    1  -0.477383454386024E+00   0.137505421184330E-01   0.925830E-02   0.000000E+00   0.929491E+02  -0.652177E-18
   LPB:    2  -0.477381829430924E+00   0.308308506434068E-02   0.131676E-01   0.457526E-01   0.118611E+03  -0.964885E-16
   LPB:    3  -0.477381196846514E+00   0.219356936232081E-02   0.287106E-01   0.178542E+00   0.159088E+03  -0.916689E-16
   LPB:    4  -0.477380842389788E+00   0.310843787009442E-02   0.286424E-01   0.561664E+00   0.132504E+03  -0.900402E-16
   LPB:    5  -0.477380405024270E+00   0.248212913420113E-02   0.364294E-01   0.970150E+00   0.112424E+03  -0.787867E-16
   LPB:    6  -0.477379725799747E+00   0.207972940203183E-02   0.548653E-01   0.103115E+01   0.118585E+03  -0.670739E-16
   LPB:    7  -0.477378907367739E+00   0.126683599116064E-02   0.506940E-01   0.130410E+01   0.206111E+03  -0.583632E-16
   LPB:    8  -0.477378152508396E+00   0.115433405799099E-02   0.443330E-01   0.105466E+01   0.253801E+03  -0.447826E-16
   LPB:    9  -0.477377538931269E+00   0.983973391905542E-03   0.405978E-01   0.887620E+00   0.321502E+03  -0.306136E-16
   LPB:   10  -0.477377020691321E+00   0.779027975117673E-03   0.420752E-01   0.814964E+00   0.802673E+03  -0.214239E-16
  Finished solving LPB equations
  A_corr:   -0.404228488341436     
 End minimization
 Ecorr=   1605.52775642162     
 A_corr= -0.404228488341436     
 Ecorr_band=  -1605.93198490996     
 End Solvation calculations
RMM:  25    -0.133995886223E+03   -0.30858E-04   -0.11941E-05  7076   0.121E-02    0.100E-02
 Begin Solvation calculations
  rms_SCF =   9.505182573343684E-003 tol =   9.505182573343685E-004
 Begin minimization
 Creating dielectric and ionic cavities
  area:      139.330026065924     
  volume:    646.599646237730     
  Acav:     7.314826368461011E-002
  Solving linear dielectric/ionic screening model
        iter                  A_solv                     rms
   LPB:       -0.477115393746269E+00   0.461537287540030E-01
   LPB:    0  -0.477115385772295E+00   0.462132497777483E-01   0.236236E-04   0.000000E+00   0.285767E+02   0.675085E-03
   LPB:    1  -0.477101420707961E+00   0.123169056575743E-01   0.150134E-01   0.000000E+00   0.577793E+02  -0.139808E-19
   LPB:    2  -0.477099897019481E+00   0.503299272800205E-02   0.129450E-01   0.126541E+00   0.161866E+03  -0.865721E-18
   LPB:    3  -0.477099335240841E+00   0.196975937711885E-02   0.199340E-01   0.239428E+00   0.113319E+03   0.292019E-16
   LPB:    4  -0.477099056730882E+00   0.196204078375799E-02   0.322113E-01   0.306804E+00   0.237614E+03   0.362817E-16
   LPB:    5  -0.477098909847164E+00   0.163112468315772E-02   0.255068E-01   0.666017E+00   0.166660E+03   0.327274E-16
   LPB:    6  -0.477098771609005E+00   0.109033739486391E-02   0.339697E-01   0.706673E+00   0.319053E+03   0.351923E-16
   LPB:    7  -0.477098549789727E+00   0.102335345145858E-02   0.536993E-01   0.101507E+01   0.608991E+03   0.450608E-16
   LPB:    8  -0.477098211753781E+00   0.832313803685050E-03   0.499995E-01   0.163669E+01   0.579832E+03   0.473234E-16
  Finished solving LPB equations
  A_corr:   -0.403949948069171     
 End minimization
 Ecorr=   1605.53997164292     
 A_corr= -0.403949948069171     
 Ecorr_band=  -1605.94392159099     
 End Solvation calculations
RMM:  26    -0.133995894309E+03   -0.80857E-05   -0.62944E-06  7005   0.888E-03
 Begin Solvation calculations
  rms_SCF =   9.505182573343684E-003 tol =   9.505182573343685E-004
 Begin minimization
 Creating dielectric and ionic cavities
  area:      139.349932891421     
  volume:    646.579517346420     
  Acav:     7.315871476799601E-002
  Solving linear dielectric/ionic screening model
        iter                  A_solv                     rms
   LPB:       -0.477324693131198E+00   0.100351043860726E+00
   LPB:    0  -0.477318533912634E+00   0.700052576270845E-01  -0.656545E-03   0.000000E+00   0.285776E+02  -0.187625E-01
   LPB:    1  -0.477285868020142E+00   0.139038924573657E-01   0.117066E-01   0.000000E+00   0.624106E+02   0.135828E-17
   LPB:    2  -0.477283165887672E+00   0.285542265773966E-02   0.154223E-01   0.627905E-01   0.125022E+03  -0.204378E-15
   LPB:    3  -0.477282488829043E+00   0.198686902344153E-02   0.237575E-01   0.162656E+00   0.311250E+03  -0.205440E-15
   LPB:    4  -0.477282297226089E+00   0.255687714941154E-02   0.221148E-01   0.304014E+00   0.165180E+03  -0.216274E-15
   LPB:    5  -0.477282188179091E+00   0.184970622377525E-02   0.207134E-01   0.607634E+00   0.183039E+03  -0.216642E-15
   LPB:    6  -0.477282057097754E+00   0.104435363877483E-02   0.361143E-01   0.689445E+00   0.119307E+03  -0.216954E-15
   LPB:    7  -0.477281897766104E+00   0.671405299701597E-03   0.450526E-01   0.974362E+00   0.174531E+03  -0.217059E-15
  Finished solving LPB equations
  A_corr:   -0.404123182998108     
 End minimization
 Ecorr=   1605.25251856304     
 A_corr= -0.404123182998108     
 Ecorr_band=  -1605.65664174604     
 End Solvation calculations
   1 F= -.13399589E+03 E0= -.13399733E+03  d E =-.133996E+03
quench:  g(F)=  0.000E+00 g(S)=  0.000E+00 dE (1.order)= 0.000E+00
 bond charge predicted
       N       E                     dE             d eps       ncg     rms          rms(c)
 Begin Solvation calculations
  rms_SCF =   9.505182573343684E-003 tol =   9.505182573343685E-004
 Begin minimization
 Creating dielectric and ionic cavities
  area:      139.358125141436     
  volume:    646.581360127190     
  Acav:     7.316301569925369E-002
  Solving linear dielectric/ionic screening model
        iter                  A_solv                     rms
   LPB:       -0.477380189475758E+00   0.117200503905448E-02
   LPB:    0  -0.477380189474266E+00   0.117220110110415E-02   0.323143E-06   0.000000E+00   0.285776E+02   0.923464E-05
   LPB:    1  -0.477276354244362E+00   0.569136346696542E-03   0.157940E-01   0.000000E+00   0.605830E+06  -0.180576E-21
   LPB:    2  -0.477265011422049E+00   0.540576161385745E-03   0.273655E-01   0.630473E-01   0.834875E+05  -0.115090E-18
   LPB:    3  -0.477261211222505E+00   0.126372084530368E-02   0.330789E-01   0.277164E+00   0.286686E+05  -0.432174E-18
   LPB:    4  -0.477259529339111E+00   0.316505486029693E-02   0.354052E-01   0.413498E+00   0.205271E+04   0.164570E-17
   LPB:    5  -0.477258781262464E+00   0.611894322088608E-02   0.288742E-01   0.545390E+00   0.257931E+03   0.472438E-17
   LPB:    6  -0.477258342249201E+00   0.304633686705417E-02   0.189548E-01   0.893966E+00   0.163836E+03   0.122581E-16
   LPB:    7  -0.477257948770104E+00   0.184260506318728E-02   0.317130E-01   0.535706E+00   0.599605E+03   0.243104E-16
   LPB:    8  -0.477257707615365E+00   0.255536224986710E-02   0.307335E-01   0.632412E+00   0.193428E+03   0.350074E-16
   LPB:    9  -0.477257523425719E+00   0.148548699174332E-02   0.262694E-01   0.893575E+00   0.194026E+03   0.466190E-16
   LPB:   10  -0.477257345755007E+00   0.646060766652835E-03   0.379057E-01   0.668491E+00   0.444635E+03   0.394883E-16
  Finished solving LPB equations
  A_corr:   -0.404094330055753     
 End minimization
 Ecorr=   1605.24448155374     
 A_corr= -0.404094330055753     
 Ecorr_band=  -1605.64857588379     
 End Solvation calculations
DAV:   1    -0.133995909117E+03   -0.22894E-04   -0.74581E-03 16479   0.283E-01    0.276E-02
 Begin Solvation calculations
  rms_SCF =   9.505182573343684E-003 tol =   9.505182573343685E-004
 Begin minimization
 Creating dielectric and ionic cavities
  area:      139.342972801901     
  volume:    646.571086608245     
  Acav:     7.315506072099796E-002
  Solving linear dielectric/ionic screening model
        iter                  A_solv                     rms
   LPB:       -0.478298419341407E+00   0.328508152635998E+00
   LPB:    0  -0.478291826565086E+00   0.322847548820416E+00  -0.679255E-03   0.000000E+00   0.285780E+02  -0.194118E-01
   LPB:    1  -0.478043053896784E+00   0.342962172537603E-01   0.880688E-02   0.000000E+00   0.609611E+02   0.141732E-18
   LPB:    2  -0.478016595950083E+00   0.543132638540130E-02   0.169907E-01   0.551269E-01   0.986129E+02   0.932098E-17
   LPB:    3  -0.478013377118171E+00   0.286717000429939E-02   0.214951E-01   0.961645E-01   0.250332E+03   0.267391E-16
   LPB:    4  -0.478012447205184E+00   0.345195894165702E-02   0.254916E-01   0.243605E+00   0.185174E+03   0.424406E-16
   LPB:    5  -0.478012069525169E+00   0.265671762821783E-02   0.238444E-01   0.434203E+00   0.111864E+03   0.536501E-16
   LPB:    6  -0.478011852873539E+00   0.125482703518357E-02   0.263527E-01   0.519038E+00   0.153763E+03   0.723804E-16
   LPB:    7  -0.478011706894038E+00   0.533563816267014E-03   0.323106E-01   0.549555E+00   0.309535E+03   0.705568E-16
  Finished solving LPB equations
  A_corr:   -0.404856646173040     
 End minimization
 Ecorr=   1605.12728729086     
 A_corr= -0.404856646173040     
 Ecorr_band=  -1605.53214393703     
 End Solvation calculations
RMM:   2    -0.133996069865E+03   -0.16075E-03   -0.57452E-04 14124   0.585E-02    0.532E-02
 Begin Solvation calculations
  rms_SCF =   9.505182573343684E-003 tol =   9.505182573343685E-004
 Begin minimization
 Creating dielectric and ionic cavities
  area:      139.350244747168     
  volume:    646.575530630558     
  Acav:     7.315887849226321E-002
  Solving linear dielectric/ionic screening model
        iter                  A_solv                     rms
   LPB:       -0.477822662131970E+00   0.199364741977071E+00
   LPB:    0  -0.477822332350454E+00   0.199071923560534E+00   0.151919E-03   0.000000E+00   0.285778E+02   0.434153E-02
   LPB:    1  -0.477728506194995E+00   0.199663735627919E-01   0.880517E-02   0.000000E+00   0.610505E+02  -0.321575E-18
   LPB:    2  -0.477719528433492E+00   0.407299460531746E-02   0.161805E-01   0.520704E-01   0.112712E+03   0.466975E-17
   LPB:    3  -0.477718333299676E+00   0.156039370054605E-02   0.220192E-01   0.978223E-01   0.153006E+03   0.259910E-17
   LPB:    4  -0.477717983790209E+00   0.872230023017580E-03   0.283770E-01   0.226923E+00   0.314299E+03  -0.284364E-16
  Finished solving LPB equations
  A_corr:   -0.404559105297946     
 End minimization
 Ecorr=   1605.13124840906     
 A_corr= -0.404559105297946     
 Ecorr_band=  -1605.53580751435     
 End Solvation calculations
RMM:   3    -0.133995934407E+03    0.13546E-03   -0.82211E-05 11291   0.369E-02    0.158E-02
 Begin Solvation calculations
  rms_SCF =   9.505182573343684E-003 tol =   9.505182573343685E-004
 Begin minimization
 Creating dielectric and ionic cavities
  area:      139.352237826760     
  volume:    646.575792008422     
  Acav:     7.315992485904907E-002
  Solving linear dielectric/ionic screening model
        iter                  A_solv                     rms
   LPB:       -0.477759031837502E+00   0.393418643872079E-01
   LPB:    0  -0.477758773604041E+00   0.367889417319033E-01  -0.134433E-03   0.000000E+00   0.285778E+02  -0.384181E-02
   LPB:    1  -0.477754211261451E+00   0.554770806785714E-02   0.103188E-01   0.000000E+00   0.597027E+02   0.248455E-18
   LPB:    2  -0.477753606148345E+00   0.171815002346511E-02   0.137477E-01   0.995518E-01   0.232613E+03  -0.823582E-16
   LPB:    3  -0.477753416863426E+00   0.197347099940186E-02   0.293988E-01   0.146278E+00   0.135935E+03  -0.975238E-16
   LPB:    4  -0.477753307593641E+00   0.134097564132832E-02   0.255533E-01   0.664151E+00   0.990210E+02  -0.952177E-16
   LPB:    5  -0.477753225108451E+00   0.604279311361267E-03   0.285539E-01   0.675549E+00   0.295926E+03  -0.991460E-16
  Finished solving LPB equations
  A_corr:   -0.404593300249402     
 End minimization
 Ecorr=   1605.07901135083     
 A_corr= -0.404593300249402     
 Ecorr_band=  -1605.48360465108     
 End Solvation calculations
RMM:   4    -0.133995932136E+03    0.22713E-05   -0.12550E-05  6935   0.147E-02
 Begin Solvation calculations
  rms_SCF =   9.505182573343684E-003 tol =   9.505182573343685E-004
 Begin minimization
 Creating dielectric and ionic cavities
  area:      139.354353377842     
  volume:    646.574651027855     
  Acav:     7.316103552336697E-002
  Solving linear dielectric/ionic screening model
        iter                  A_solv                     rms
   LPB:       -0.477975140576196E+00   0.694054265775807E-01
   LPB:    0  -0.477972554831907E+00   0.541745717818205E-01  -0.425395E-03   0.000000E+00   0.285779E+02  -0.121569E-01
   LPB:    1  -0.477956468410916E+00   0.115622502120491E-01   0.118319E-01   0.000000E+00   0.622481E+02  -0.423758E-19
   LPB:    2  -0.477954715777771E+00   0.359231952980308E-02   0.128897E-01   0.100010E+00   0.282622E+03   0.263344E-16
   LPB:    3  -0.477954336004083E+00   0.295986971483079E-02   0.195637E-01   0.142766E+00   0.206287E+03   0.264298E-16
   LPB:    4  -0.477954170508260E+00   0.148526565134622E-02   0.208764E-01   0.408372E+00   0.111432E+03   0.285091E-16
   LPB:    5  -0.477954046423911E+00   0.730101464904147E-03   0.321040E-01   0.487559E+00   0.253888E+03   0.418570E-16
  Finished solving LPB equations
  A_corr:   -0.404793010900544     
 End minimization
 Ecorr=   1604.94529203065     
 A_corr= -0.404793010900544     
 Ecorr_band=  -1605.35008504155     
 End Solvation calculations
   2 F= -.13399593E+03 E0= -.13399737E+03  d E =-.378273E-04
quench:  g(F)=  0.000E+00 g(S)=  0.000E+00 dE (1.order)= 0.000E+00
 bond charge predicted
       N       E                     dE             d eps       ncg     rms          rms(c)
 Begin Solvation calculations
  rms_SCF =   9.505182573343684E-003 tol =   9.505182573343685E-004
 Begin minimization
 Creating dielectric and ionic cavities
  area:      139.357337852283     
  volume:    646.575150923327     
  Acav:     7.316260237244875E-002
  Solving linear dielectric/ionic screening model
        iter                  A_solv                     rms
   LPB:       -0.478062662195744E+00   0.114744489379825E-02
   LPB:    0  -0.478062662195711E+00   0.114791453418198E-02   0.479700E-07   0.000000E+00   0.285779E+02   0.137088E-05
   LPB:    1  -0.477971079921094E+00   0.465729928417417E-03   0.156936E-01   0.000000E+00   0.549831E+06  -0.630027E-22
   LPB:    2  -0.477961842240130E+00   0.652107554258467E-03   0.267794E-01   0.591117E-01   0.124464E+06   0.909544E-18
   LPB:    3  -0.477958844536963E+00   0.136646834592374E-02   0.328814E-01   0.264288E+00   0.114751E+05   0.111764E-17
   LPB:    4  -0.477957552420202E+00   0.341558902743144E-02   0.346964E-01   0.408487E+00   0.145054E+04   0.847907E-18
   LPB:    5  -0.477956999375838E+00   0.533849948001878E-02   0.260447E-01   0.570195E+00   0.178371E+03  -0.301627E-17
   LPB:    6  -0.477956624796690E+00   0.243573861416463E-02   0.203522E-01   0.866744E+00   0.192635E+03  -0.237771E-16
   LPB:    7  -0.477956331159380E+00   0.238295320902271E-02   0.312301E-01   0.510866E+00   0.478744E+03  -0.467487E-16
   LPB:    8  -0.477956156302849E+00   0.215538588903901E-02   0.254276E-01   0.731374E+00   0.129792E+03  -0.652630E-16
   LPB:    9  -0.477955995997164E+00   0.849290010857878E-03   0.299276E-01   0.778932E+00   0.369406E+03  -0.823010E-16
  Finished solving LPB equations
  A_corr:   -0.404793393624716     
 End minimization
 Ecorr=   1604.92209886464     
 A_corr= -0.404793393624716     
 Ecorr_band=  -1605.32689225827     
 End Solvation calculations
DAV:   1    -0.133995864714E+03    0.69693E-04   -0.52892E-03 13104   0.149E-01    0.220E-02
 Begin Solvation calculations
  rms_SCF =   4.348930045364138E-003 tol =   4.348930045364138E-004
 Begin minimization
 Creating dielectric and ionic cavities
  area:      139.359874454198     
  volume:    646.574328830626     
  Acav:     7.316393408845381E-002
  Solving linear dielectric/ionic screening model
        iter                  A_solv                     rms
   LPB:       -0.478075803757077E+00   0.369409899914727E-01
   LPB:    0  -0.478075223910477E+00   0.306780553922676E-01  -0.201445E-03   0.000000E+00   0.285779E+02  -0.575687E-02
   LPB:    1  -0.478072428346287E+00   0.359976779533107E-02   0.895977E-02   0.000000E+00   0.619300E+02   0.199657E-18
   LPB:    2  -0.478072170524341E+00   0.200367070521806E-02   0.171759E-01   0.481091E-01   0.734920E+02   0.386713E-16
   LPB:    3  -0.478072082512361E+00   0.133993379635347E-02   0.213352E-01   0.274819E+00   0.136812E+03   0.166890E-16
   LPB:    4  -0.478072006043121E+00   0.742290153181255E-03   0.339592E-01   0.545863E+00   0.220822E+03   0.942406E-17
   LPB:    5  -0.478071928051822E+00   0.432820093924672E-03   0.380770E-01   0.909608E+00   0.946634E+03   0.286202E-17
  Finished solving LPB equations
  A_corr:   -0.404907993963368     
 End minimization
 Ecorr=   1604.85537589878     
 A_corr= -0.404907993963368     
 Ecorr_band=  -1605.26028389274     
 End Solvation calculations
RMM:   2    -0.133995895252E+03   -0.30538E-04   -0.30170E-04 13465   0.364E-02    0.130E-02
 Begin Solvation calculations
  rms_SCF =   4.348930045364138E-003 tol =   4.348930045364138E-004
 Begin minimization
 Creating dielectric and ionic cavities
  area:      139.361131096513     
  volume:    646.575793517294     
  Acav:     7.316459382566956E-002
  Solving linear dielectric/ionic screening model
        iter                  A_solv                     rms
   LPB:       -0.478068413686592E+00   0.386693317259713E-01
   LPB:    0  -0.478068350623867E+00   0.378222388489311E-01  -0.664334E-04   0.000000E+00   0.285778E+02  -0.189852E-02
   LPB:    1  -0.478064584035381E+00   0.395934617065814E-02   0.925778E-02   0.000000E+00   0.596012E+02   0.116735E-18
   LPB:    2  -0.478064192663871E+00   0.149156484405313E-02   0.148651E-01   0.647112E-01   0.155788E+03  -0.275759E-18
   LPB:    3  -0.478064104683735E+00   0.118697405557795E-02   0.241359E-01   0.138452E+00   0.989942E+02   0.294370E-17
   LPB:    4  -0.478064063574678E+00   0.758495091432191E-03   0.251752E-01   0.447966E+00   0.149831E+03   0.619404E-17
   LPB:    5  -0.478064017940574E+00   0.558678073500218E-03   0.378118E-01   0.739090E+00   0.415329E+03   0.203866E-16
   LPB:    6  -0.478063947052278E+00   0.584547608767072E-03   0.541940E-01   0.108383E+01   0.219919E+03   0.450429E-16
   LPB:    7  -0.478063827791956E+00   0.571814154939755E-03   0.546881E-01   0.166717E+01   0.365400E+03   0.806316E-16
   LPB:    8  -0.478063661671761E+00   0.430795986166368E-03   0.513863E-01   0.148242E+01   0.343971E+03   0.131319E-15
  Finished solving LPB equations
  A_corr:   -0.404899067846092     
 End minimization
 Ecorr=   1604.77963083670     
 A_corr= -0.404899067846092     
 Ecorr_band=  -1605.18452990455     
 End Solvation calculations
RMM:   3    -0.133995890641E+03    0.46106E-05   -0.18861E-05  6771   0.145E-02
 Begin Solvation calculations
  rms_SCF =   4.348930045364138E-003 tol =   4.348930045364138E-004
 Begin minimization
 Creating dielectric and ionic cavities
  area:      139.360871131430     
  volume:    646.575075389340     
  Acav:     7.316445734400066E-002
  Solving linear dielectric/ionic screening model
        iter                  A_solv                     rms
   LPB:       -0.478141076850503E+00   0.292707630594125E-01
   LPB:    0  -0.478140889969866E+00   0.270217127749665E-01  -0.114362E-03   0.000000E+00   0.285779E+02  -0.326823E-02
   LPB:    1  -0.478139034886631E+00   0.294719344296747E-02   0.880029E-02   0.000000E+00   0.615092E+02   0.151398E-18
   LPB:    2  -0.478138824655330E+00   0.108965117626007E-02   0.185379E-01   0.537984E-01   0.801630E+02  -0.118917E-16
   LPB:    3  -0.478138768480863E+00   0.108909211667903E-02   0.248409E-01   0.199405E+00   0.139138E+03   0.833625E-17
   LPB:    4  -0.478138712021092E+00   0.106215169292625E-02   0.338242E-01   0.738140E+00   0.175854E+03   0.110176E-16
   LPB:    5  -0.478138666759448E+00   0.347582162999661E-03   0.294237E-01   0.921556E+00   0.145975E+03   0.278972E-16
  Finished solving LPB equations
  A_corr:   -0.404974209415447     
 End minimization
 Ecorr=   1604.75956682514     
 A_corr= -0.404974209415447     
 Ecorr_band=  -1605.16454103456     
 End Solvation calculations
   3 F= -.13399589E+03 E0= -.13399733E+03  d E =0.414949E-04
quench:  g(F)=  0.000E+00 g(S)=  0.000E+00 dE (1.order)= 0.000E+00
 bond charge predicted
       N       E                     dE             d eps       ncg     rms          rms(c)
 Begin Solvation calculations
  rms_SCF =   4.348930045364138E-003 tol =   4.348930045364138E-004
 Begin minimization
 Creating dielectric and ionic cavities
  area:      139.370850811437     
  volume:    646.578375633577     
  Acav:     7.316969667600443E-002
  Solving linear dielectric/ionic screening model
        iter                  A_solv                     rms
   LPB:       -0.478374385196587E+00   0.157129154894679E-02
   LPB:    0  -0.478374385193390E+00   0.157445656249620E-02   0.473026E-06   0.000000E+00   0.285777E+02   0.135180E-04
   LPB:    1  -0.478147449793230E+00   0.642600103939209E-03   0.157561E-01   0.000000E+00   0.724895E+06  -0.489524E-21
   LPB:    2  -0.478123367627561E+00   0.487909918904106E-03   0.269886E-01   0.619528E-01   0.134251E+06  -0.416859E-18
   LPB:    3  -0.478115564295252E+00   0.859661179927293E-03   0.328459E-01   0.266247E+00   0.507062E+05   0.132043E-17
   LPB:    4  -0.478112188193627E+00   0.185177356457286E-02   0.356429E-01   0.398698E+00   0.669708E+04   0.974265E-18
   LPB:    5  -0.478110552652584E+00   0.403004640979218E-02   0.353872E-01   0.487947E+00   0.813800E+03   0.142729E-18
   LPB:    6  -0.478109788517950E+00   0.515008333040947E-02   0.264748E-01   0.624485E+00   0.169496E+03   0.313114E-17
   LPB:    7  -0.478109265614368E+00   0.290609222762584E-02   0.232619E-01   0.778824E+00   0.206724E+03   0.688533E-17
   LPB:    8  -0.478108913025504E+00   0.362315545490635E-02   0.286980E-01   0.546562E+00   0.281142E+03  -0.192724E-16
   LPB:    9  -0.478108704461121E+00   0.221469296691098E-02   0.207610E-01   0.817665E+00   0.146952E+03  -0.403422E-16
   LPB:   10  -0.478108511556780E+00   0.624329503289227E-03   0.312232E-01   0.614997E+00   0.474553E+03  -0.540030E-16
   LPB:   11  -0.478108368566899E+00   0.225059668724924E-03   0.409755E-01   0.564827E+00   0.319436E+04  -0.517610E-16
  Finished solving LPB equations
  A_corr:   -0.404938671890895     
 End minimization
 Ecorr=   1604.76539304413     
 A_corr= -0.404938671890895     
 Ecorr_band=  -1605.17033171602     
 End Solvation calculations
DAV:   1    -0.133995756897E+03    0.13835E-03   -0.13801E-02 12906   0.233E-01    0.356E-02
 Begin Solvation calculations
  rms_SCF =   3.201967645799769E-003 tol =   3.201967645799769E-004
 Begin minimization
 Creating dielectric and ionic cavities
  area:      139.373166952222     
  volume:    646.577941341553     
  Acav:     7.317091264991631E-002
  Solving linear dielectric/ionic screening model
        iter                  A_solv                     rms
   LPB:       -0.478150735972452E+00   0.249651148711215E-01
   LPB:    0  -0.478150551209325E+00   0.217280486941995E-01  -0.113713E-03   0.000000E+00   0.285777E+02  -0.324965E-02
   LPB:    1  -0.478148800087481E+00   0.319889546520672E-02   0.105408E-01   0.000000E+00   0.575391E+02  -0.140361E-18
   LPB:    2  -0.478148559459311E+00   0.158571479611720E-02   0.149540E-01   0.968606E-01   0.262000E+03   0.682347E-16
   LPB:    3  -0.478148472062234E+00   0.156029599902038E-02   0.236236E-01   0.229912E+00   0.135493E+03   0.784181E-16
   LPB:    4  -0.478148419646083E+00   0.813233714300105E-03   0.251215E-01   0.563986E+00   0.146351E+03   0.853831E-16
   LPB:    5  -0.478148365538098E+00   0.362938457302218E-03   0.367641E-01   0.705373E+00   0.756419E+03   0.941995E-16
   LPB:    6  -0.478148312653883E+00   0.314159696764474E-03   0.443924E-01   0.809432E+00   0.947381E+03   0.101074E-15
  Finished solving LPB equations
  A_corr:   -0.404977400003967     
 End minimization
 Ecorr=   1604.71492422017     
 A_corr= -0.404977400003967     
 Ecorr_band=  -1605.11990162018     
 End Solvation calculations
RMM:   2    -0.133995816616E+03   -0.59719E-04   -0.61320E-04 17246   0.555E-02    0.191E-02
 Begin Solvation calculations
  rms_SCF =   3.201967645799769E-003 tol =   3.201967645799769E-004
 Begin minimization
 Creating dielectric and ionic cavities
  area:      139.369850792038     
  volume:    646.576481206343     
  Acav:     7.316917166581972E-002
  Solving linear dielectric/ionic screening model
        iter                  A_solv                     rms
   LPB:       -0.478292609194127E+00   0.350196721865614E-01
   LPB:    0  -0.478292034935253E+00   0.290778800201045E-01  -0.200472E-03   0.000000E+00   0.285778E+02  -0.572906E-02
   LPB:    1  -0.478288994342906E+00   0.503958177769382E-02   0.100733E-01   0.000000E+00   0.610351E+02  -0.350580E-18
   LPB:    2  -0.478288462398894E+00   0.179999233028363E-02   0.158127E-01   0.111448E+00   0.145560E+03   0.129136E-16
   LPB:    3  -0.478288378640117E+00   0.142465187098919E-02   0.199753E-01   0.124646E+00   0.134593E+03   0.101199E-16
   LPB:    4  -0.478288335096671E+00   0.528925486705195E-03   0.229790E-01   0.451912E+00   0.125490E+03   0.123939E-16
   LPB:    5  -0.478288303078973E+00   0.250862504702330E-03   0.366840E-01   0.460598E+00   0.594070E+03   0.103722E-16
  Finished solving LPB equations
  A_corr:   -0.405119131413154     
 End minimization
 Ecorr=   1604.66449503291     
 A_corr= -0.405119131413154     
 Ecorr_band=  -1605.06961416432     
 End Solvation calculations
RMM:   3    -0.133995811973E+03    0.46432E-05   -0.26943E-05  7461   0.186E-02
 Begin Solvation calculations
  rms_SCF =   3.201967645799769E-003 tol =   3.201967645799769E-004
 Begin minimization
 Creating dielectric and ionic cavities
  area:      139.368640015987     
  volume:    646.576228656177     
  Acav:     7.316853600839308E-002
  Solving linear dielectric/ionic screening model
        iter                  A_solv                     rms
   LPB:       -0.478353484901503E+00   0.176129142522361E-01
   LPB:    0  -0.478353289227245E+00   0.124209325269840E-01  -0.117022E-03   0.000000E+00   0.285778E+02  -0.334423E-02
   LPB:    1  -0.478352192160272E+00   0.269911829639454E-02   0.123757E-01   0.000000E+00   0.626230E+02  -0.164066E-18
   LPB:    2  -0.478352070783771E+00   0.829175713329473E-03   0.144790E-01   0.945654E-01   0.292393E+03  -0.366780E-16
   LPB:    3  -0.478352038996857E+00   0.105198722451029E-02   0.227063E-01   0.166996E+00   0.288973E+03  -0.388698E-16
   LPB:    4  -0.478352015578851E+00   0.895772299613904E-03   0.241909E-01   0.691507E+00   0.107964E+03  -0.394024E-16
   LPB:    5  -0.478351984858634E+00   0.579055932799281E-03   0.371257E-01   0.854776E+00   0.203188E+03  -0.405606E-16
   LPB:    6  -0.478351948960911E+00   0.303185095323724E-03   0.462266E-01   0.938480E+00   0.328561E+03  -0.423403E-16
  Finished solving LPB equations
  A_corr:   -0.405183412952518     
 End minimization
 Ecorr=   1604.60590886562     
 A_corr= -0.405183412952518     
 Ecorr_band=  -1605.01109227857     
 End Solvation calculations
   4 F= -.13399581E+03 E0= -.13399726E+03  d E =0.786686E-04
quench:  g(F)=  0.000E+00 g(S)=  0.000E+00 dE (1.order)= 0.000E+00
 bond charge predicted
       N       E                     dE             d eps       ncg     rms          rms(c)
 Begin Solvation calculations
  rms_SCF =   3.201967645799769E-003 tol =   3.201967645799769E-004
 Begin minimization
 Creating dielectric and ionic cavities
  area:      139.375374125066     
  volume:    646.579939165297     
  Acav:     7.317207141565955E-002
  Solving linear dielectric/ionic screening model
        iter                  A_solv                     rms
   LPB:       -0.478755500173515E+00   0.187666110840903E-02
   LPB:    0  -0.478755500171612E+00   0.187569600468861E-02   0.364978E-06   0.000000E+00   0.285776E+02   0.104302E-04
   LPB:    1  -0.478400767828644E+00   0.676826756711701E-03   0.157398E-01   0.000000E+00   0.813939E+06  -0.220934E-21
   LPB:    2  -0.478364221910117E+00   0.471594699356855E-03   0.268644E-01   0.603617E-01   0.204104E+06   0.154421E-18
   LPB:    3  -0.478352354968003E+00   0.898651330316543E-03   0.328935E-01   0.265195E+00   0.809654E+05  -0.141468E-18
   LPB:    4  -0.478347239893522E+00   0.231455041038579E-02   0.356184E-01   0.398061E+00   0.106787E+05  -0.546106E-18
   LPB:    5  -0.478344790489952E+00   0.617812275382294E-02   0.352630E-01   0.483685E+00   0.940428E+03  -0.271910E-17
   LPB:    6  -0.478343739437108E+00   0.772069592649625E-02   0.229021E-01   0.660705E+00   0.155555E+03  -0.249853E-17
   LPB:    7  -0.478342890337575E+00   0.273545562759692E-02   0.219952E-01   0.841165E+00   0.259163E+03  -0.325236E-17
   LPB:    8  -0.478342279462717E+00   0.295067524700300E-02   0.335587E-01   0.471539E+00   0.525370E+03  -0.615104E-18
   LPB:    9  -0.478341940967756E+00   0.294751494762098E-02   0.261089E-01   0.712222E+00   0.154089E+03  -0.955078E-18
   LPB:   10  -0.478341672606605E+00   0.116994905595536E-02   0.275389E-01   0.751639E+00   0.256531E+03   0.129307E-17
   LPB:   11  -0.478341464769238E+00   0.444630253837088E-03   0.384391E-01   0.554853E+00   0.995255E+03   0.130491E-17
   LPB:   12  -0.478341324902693E+00   0.372195100242527E-03   0.405440E-01   0.638024E+00   0.295954E+04  -0.203072E-16
   LPB:   13  -0.478341229057464E+00   0.426172357681418E-03   0.398163E-01   0.697786E+00   0.161856E+04  -0.215844E-16
   LPB:   14  -0.478341159962896E+00   0.419712834748623E-03   0.381997E-01   0.751405E+00   0.129094E+04  -0.228570E-16
   LPB:   15  -0.478341104810412E+00   0.302593000350522E-03   0.384737E-01   0.792534E+00   0.126312E+04  -0.241436E-16
  Finished solving LPB equations
  A_corr:   -0.405169033394753     
 End minimization
 Ecorr=   1604.59705459778     
 A_corr= -0.405169033394753     
 Ecorr_band=  -1605.00222363117     
 End Solvation calculations
DAV:   1    -0.133995609936E+03    0.20668E-03   -0.21192E-02 12618   0.273E-01    0.487E-02
 Begin Solvation calculations
  rms_SCF =   3.092529923078146E-003 tol =   3.092529923078146E-004
 Begin minimization
 Creating dielectric and ionic cavities
  area:      139.381714935998     
  volume:    646.582913224811     
  Acav:     7.317540034139890E-002
  Solving linear dielectric/ionic screening model
        iter                  A_solv                     rms
   LPB:       -0.478305069961956E+00   0.173668843112552E-01
   LPB:    0  -0.478305069110771E+00   0.174236851217917E-01   0.771818E-05   0.000000E+00   0.285775E+02   0.220566E-03
   LPB:    1  -0.478300274889310E+00   0.116873191483284E-01   0.143801E-01   0.000000E+00   0.148631E+03   0.148536E-19
   LPB:    2  -0.478299264631704E+00   0.243704792646255E-02   0.136415E-01   0.222134E+00   0.144328E+03  -0.137425E-18
   LPB:    3  -0.478298872833782E+00   0.156151687895417E-02   0.253294E-01   0.208866E+00   0.582506E+03   0.407156E-18
   LPB:    4  -0.478298722861732E+00   0.177469017353087E-02   0.256260E-01   0.378349E+00   0.186688E+03   0.490765E-18
   LPB:    5  -0.478298640118255E+00   0.111379987761094E-02   0.248448E-01   0.569074E+00   0.136222E+03   0.860783E-17
   LPB:    6  -0.478298581890475E+00   0.519496561820136E-03   0.302716E-01   0.577559E+00   0.331629E+03   0.225701E-16
   LPB:    7  -0.478298538359948E+00   0.280164425920267E-03   0.367970E-01   0.615016E+00   0.808291E+03   0.462218E-16
  Finished solving LPB equations
  A_corr:   -0.405123138018549     
 End minimization
 Ecorr=   1604.58492163126     
 A_corr= -0.405123138018549     
 Ecorr_band=  -1604.99004476928     
 End Solvation calculations
RMM:   2    -0.133995722249E+03   -0.11231E-03   -0.13025E-03 17060   0.707E-02    0.302E-02
 Begin Solvation calculations
  rms_SCF =   2.171963137570553E-003 tol =   2.171963137570553E-004
 Begin minimization
 Creating dielectric and ionic cavities
  area:      139.379248266829     
  volume:    646.582328905279     
  Acav:     7.317410534008524E-002
  Solving linear dielectric/ionic screening model
        iter                  A_solv                     rms
   LPB:       -0.478278814160326E+00   0.826566805069030E-02
   LPB:    0  -0.478278807612509E+00   0.764883821804162E-02  -0.214068E-04   0.000000E+00   0.285775E+02  -0.611752E-03
   LPB:    1  -0.478278401915636E+00   0.248071734879903E-02   0.125607E-01   0.000000E+00   0.727207E+02  -0.304010E-19
   LPB:    2  -0.478278294472972E+00   0.104748554856545E-02   0.175568E-01   0.189472E+00   0.337499E+03  -0.174280E-16
   LPB:    3  -0.478278256824176E+00   0.107942808610616E-02   0.211668E-01   0.290646E+00   0.166823E+03  -0.184127E-16
   LPB:    4  -0.478278231260797E+00   0.700128275353526E-03   0.257070E-01   0.559076E+00   0.141759E+03  -0.172098E-16
   LPB:    5  -0.478278206510282E+00   0.337807100366761E-03   0.347573E-01   0.716096E+00   0.428440E+03  -0.118138E-16
   LPB:    6  -0.478278179728580E+00   0.202135098657385E-03   0.428379E-01   0.877955E+00   0.102456E+04  -0.565894E-17
  Finished solving LPB equations
  A_corr:   -0.405104074388495     
 End minimization
 Ecorr=   1604.56300401550     
 A_corr= -0.405104074388495     
 Ecorr_band=  -1604.96810808989     
 End Solvation calculations
RMM:   3    -0.133995693301E+03    0.28947E-04   -0.50907E-05  8298   0.171E-02    0.193E-02
 Begin Solvation calculations
  rms_SCF =   2.171963137570553E-003 tol =   2.171963137570553E-004
 Begin minimization
 Creating dielectric and ionic cavities
  area:      139.376608782292     
  volume:    646.581038382775     
  Acav:     7.317271961070344E-002
  Solving linear dielectric/ionic screening model
        iter                  A_solv                     rms
   LPB:       -0.478284375266622E+00   0.352636118265765E-01
   LPB:    0  -0.478284293623637E+00   0.341877981769631E-01  -0.755895E-04   0.000000E+00   0.285776E+02  -0.216017E-02
   LPB:    1  -0.478280358684569E+00   0.434278415360608E-02   0.951590E-02   0.000000E+00   0.712016E+02  -0.192703E-18
   LPB:    2  -0.478279712070927E+00   0.137786735320977E-02   0.171224E-01   0.913257E-01   0.368035E+03   0.239859E-16
   LPB:    3  -0.478279562795867E+00   0.136415257923737E-02   0.226197E-01   0.174751E+00   0.315177E+03   0.276935E-16
   LPB:    4  -0.478279505438973E+00   0.113447226312646E-02   0.232539E-01   0.373757E+00   0.136720E+03   0.261003E-16
   LPB:    5  -0.478279465402461E+00   0.458133465901086E-03   0.285207E-01   0.569123E+00   0.185119E+03   0.192956E-16
   LPB:    6  -0.478279434451426E+00   0.252765024404038E-03   0.378265E-01   0.582885E+00   0.835729E+03   0.138917E-16
   LPB:    7  -0.478279407507197E+00   0.240719429162530E-03   0.416453E-01   0.790716E+00   0.787185E+03   0.724448E-17
   LPB:    8  -0.478279379963100E+00   0.184034316691880E-03   0.444509E-01   0.957741E+00   0.882407E+03   0.903009E-18
  Finished solving LPB equations
  A_corr:   -0.405106660352396     
 End minimization
 Ecorr=   1604.53842047867     
 A_corr= -0.405106660352396     
 Ecorr_band=  -1604.94352713903     
 End Solvation calculations
RMM:   4    -0.133995696711E+03   -0.34097E-05   -0.27733E-05  7309   0.262E-02
 Begin Solvation calculations
  rms_SCF =   2.171963137570553E-003 tol =   2.171963137570553E-004
 Begin minimization
 Creating dielectric and ionic cavities
  area:      139.377180856312     
  volume:    646.581270520440     
  Acav:     7.317301994956367E-002
  Solving linear dielectric/ionic screening model
        iter                  A_solv                     rms
   LPB:       -0.478188641000859E+00   0.238946940465663E-01
   LPB:    0  -0.478188604926498E+00   0.239070508578768E-01   0.502460E-04   0.000000E+00   0.285776E+02   0.143591E-02
   LPB:    1  -0.478186495370769E+00   0.483834873462086E-02   0.106330E-01   0.000000E+00   0.650679E+02  -0.855074E-20
   LPB:    2  -0.478186027427946E+00   0.111743228485487E-02   0.157801E-01   0.149469E+00   0.235393E+03  -0.546205E-17
   LPB:    3  -0.478185940889948E+00   0.114622308900943E-02   0.239796E-01   0.121697E+00   0.138838E+03  -0.102008E-16
   LPB:    4  -0.478185911056040E+00   0.683445765847040E-03   0.222257E-01   0.371955E+00   0.118004E+03  -0.368656E-17
   LPB:    5  -0.478185892707160E+00   0.343973917864689E-03   0.280110E-01   0.488006E+00   0.252973E+03  -0.673367E-17
   LPB:    6  -0.478185874702045E+00   0.271103333494241E-03   0.394620E-01   0.696525E+00   0.524236E+03  -0.783542E-17
   LPB:    7  -0.478185852580108E+00   0.216256069088927E-03   0.469704E-01   0.103224E+01   0.319138E+03  -0.916276E-17
  Finished solving LPB equations
  A_corr:   -0.405012832630544     
 End minimization
 Ecorr=   1604.52362388986     
 A_corr= -0.405012832630544     
 Ecorr_band=  -1604.92863672249     
 End Solvation calculations
   5 F= -.13399570E+03 E0= -.13399715E+03  d E =0.115261E-03
quench:  g(F)=  0.000E+00 g(S)=  0.000E+00 dE (1.order)= 0.000E+00
 bond charge predicted
       N       E                     dE             d eps       ncg     rms          rms(c)
 Begin Solvation calculations
  rms_SCF =   2.171963137570553E-003 tol =   2.171963137570553E-004
 Begin minimization
 Creating dielectric and ionic cavities
  area:      139.391738914085     
  volume:    646.585481286644     
  Acav:     7.318066292989453E-002
  Solving linear dielectric/ionic screening model
        iter                  A_solv                     rms
   LPB:       -0.478504086441459E+00   0.189437226924216E-02
   LPB:    0  -0.478504086435189E+00   0.189796685492973E-02   0.662406E-06   0.000000E+00   0.285774E+02   0.189298E-04
   LPB:    1  -0.478193008833446E+00   0.721279845563449E-03   0.157652E-01   0.000000E+00   0.683544E+06   0.144672E-20
   LPB:    2  -0.478159378974378E+00   0.500010233670229E-03   0.272141E-01   0.626271E-01   0.149393E+06  -0.127671E-17
   LPB:    3  -0.478148290447960E+00   0.774644059769497E-03   0.329608E-01   0.272236E+00   0.617233E+05   0.722852E-18
   LPB:    4  -0.478143417238330E+00   0.163314746433346E-02   0.358662E-01   0.403882E+00   0.112820E+05   0.140543E-17
   LPB:    5  -0.478141000180982E+00   0.348227214700307E-02   0.364921E-01   0.487481E+00   0.133138E+04   0.519081E-17
   LPB:    6  -0.478139820237664E+00   0.534532001588760E-02   0.305363E-01   0.583387E+00   0.228849E+03   0.166991E-16
   LPB:    7  -0.478139117305308E+00   0.293206336788965E-02   0.237179E-01   0.766996E+00   0.154377E+03  -0.920051E-17
   LPB:    8  -0.478138566669473E+00   0.137773620557873E-02   0.328360E-01   0.565817E+00   0.565690E+03  -0.356875E-16
   LPB:    9  -0.478138237774575E+00   0.296480289867864E-02   0.348720E-01   0.562427E+00   0.582023E+03  -0.244485E-16
   LPB:   10  -0.478138075595118E+00   0.287096995511491E-02   0.208484E-01   0.824792E+00   0.151161E+03  -0.211065E-16
   LPB:   11  -0.478137914499949E+00   0.808285993932574E-03   0.261928E-01   0.790635E+00   0.359446E+03  -0.193138E-16
   LPB:   12  -0.478137797295252E+00   0.363972607009002E-03   0.382321E-01   0.498445E+00   0.197725E+04  -0.176302E-16
   LPB:   13  -0.478137719688726E+00   0.364161339446673E-03   0.389616E-01   0.649747E+00   0.214746E+04  -0.170447E-16
   LPB:   14  -0.478137666261638E+00   0.350613268646702E-03   0.373479E-01   0.718181E+00   0.145407E+04  -0.163048E-16
   LPB:   15  -0.478137626394732E+00   0.239402503152147E-03   0.368283E-01   0.756720E+00   0.154469E+04  -0.157158E-16
   LPB:   16  -0.478137594888289E+00   0.139509859856474E-03   0.405263E-01   0.718178E+00   0.275379E+04  -0.154149E-16
  Finished solving LPB equations
  A_corr:   -0.404956931958394     
 End minimization
 Ecorr=   1604.52253717757     
 A_corr= -0.404956931958394     
 Ecorr_band=  -1604.92749410953     
 End Solvation calculations
DAV:   1    -0.133995520691E+03    0.17261E-03   -0.21139E-02 12996   0.285E-01    0.403E-02
 Begin Solvation calculations
  rms_SCF =   2.171963137570553E-003 tol =   2.171963137570553E-004
 Begin minimization
 Creating dielectric and ionic cavities
  area:      139.384245115721     
  volume:    646.575191220656     
  Acav:     7.317672868575348E-002
  Solving linear dielectric/ionic screening model
        iter                  A_solv                     rms
   LPB:       -0.478363884232757E+00   0.355542645751913E-01
   LPB:    0  -0.478362988526883E+00   0.278961592026046E-01  -0.250370E-03   0.000000E+00   0.285779E+02  -0.715505E-02
   LPB:    1  -0.478356784681628E+00   0.112773392212950E-01   0.128780E-01   0.000000E+00   0.844283E+02  -0.198340E-18
   LPB:    2  -0.478355435156702E+00   0.258873098207769E-02   0.137856E-01   0.203209E+00   0.221492E+03   0.140522E-15
   LPB:    3  -0.478355074977376E+00   0.237521726623839E-02   0.253621E-01   0.145071E+00   0.264410E+03   0.170382E-15
   LPB:    4  -0.478354950503153E+00   0.144860096193593E-02   0.205558E-01   0.426394E+00   0.121307E+03   0.170154E-15
   LPB:    5  -0.478354872563036E+00   0.503597464821763E-03   0.269656E-01   0.477316E+00   0.320671E+03   0.173840E-15
   LPB:    6  -0.478354826641967E+00   0.221358015892867E-03   0.351214E-01   0.452364E+00   0.551118E+03   0.167564E-15
   LPB:    7  -0.478354796956300E+00   0.216011354943490E-03   0.376727E-01   0.602672E+00   0.106406E+04   0.158708E-15
  Finished solving LPB equations
  A_corr:   -0.405178068270547     
 End minimization
 Ecorr=   1604.49041038724     
 A_corr= -0.405178068270547     
 Ecorr_band=  -1604.89558845551     
 End Solvation calculations
RMM:   2    -0.133995628376E+03   -0.10768E-03   -0.11247E-03 17584   0.715E-02    0.276E-02
 Begin Solvation calculations
  rms_SCF =   2.171963137570553E-003 tol =   2.171963137570553E-004
 Begin minimization
 Creating dielectric and ionic cavities
  area:      139.384100829716     
  volume:    646.575912403219     
  Acav:     7.317665293560115E-002
  Solving linear dielectric/ionic screening model
        iter                  A_solv                     rms
   LPB:       -0.478403843811523E+00   0.409598202189100E-01
   LPB:    0  -0.478403755899397E+00   0.401940340329510E-01  -0.784377E-04   0.000000E+00   0.285778E+02  -0.224158E-02
   LPB:    1  -0.478398250296139E+00   0.599733626310511E-02   0.986766E-02   0.000000E+00   0.691017E+02  -0.859196E-19
   LPB:    2  -0.478397446056007E+00   0.126326254101751E-02   0.147002E-01   0.980556E-01   0.303041E+03  -0.179713E-16
   LPB:    3  -0.478397297907125E+00   0.963929349462139E-03   0.238118E-01   0.113722E+00   0.324845E+03  -0.153402E-16
   LPB:    4  -0.478397253173198E+00   0.773312745603986E-03   0.248437E-01   0.289411E+00   0.158643E+03  -0.174204E-16
   LPB:    5  -0.478397227081621E+00   0.609770631426367E-03   0.265335E-01   0.546117E+00   0.260830E+03  -0.215179E-16
   LPB:    6  -0.478397204682849E+00   0.402713517046882E-03   0.334536E-01   0.680886E+00   0.179413E+03  -0.199722E-16
   LPB:    7  -0.478397185468147E+00   0.231961223057296E-03   0.374991E-01   0.765301E+00   0.473470E+03  -0.194492E-16
   LPB:    8  -0.478397168764116E+00   0.148793826147076E-03   0.402785E-01   0.809346E+00   0.558251E+03  -0.207679E-16
  Finished solving LPB equations
  A_corr:   -0.405220515828515     
 End minimization
 Ecorr=   1604.45749349913     
 A_corr= -0.405220515828515     
 Ecorr_band=  -1604.86271401496     
 End Solvation calculations
RMM:   3    -0.133995616656E+03    0.11720E-04   -0.79938E-05  9657   0.273E-02    0.200E-02
 Begin Solvation calculations
  rms_SCF =   2.171963137570553E-003 tol =   2.171963137570553E-004
 Begin minimization
 Creating dielectric and ionic cavities
  area:      139.379472339950     
  volume:    646.574073078178     
  Acav:     7.317422297847374E-002
  Solving linear dielectric/ionic screening model
        iter                  A_solv                     rms
   LPB:       -0.478596850897559E+00   0.433173388291780E-01
   LPB:    0  -0.478596415744768E+00   0.402377769432799E-01  -0.174510E-03   0.000000E+00   0.285779E+02  -0.498713E-02
   LPB:    1  -0.478589897744019E+00   0.885035554520018E-02   0.106310E-01   0.000000E+00   0.682422E+02  -0.138417E-18
   LPB:    2  -0.478588534926043E+00   0.126847649283667E-02   0.150959E-01   0.147244E+00   0.211068E+03  -0.545017E-16
   LPB:    3  -0.478588321145757E+00   0.118560670391513E-02   0.258753E-01   0.915176E-01   0.387181E+03  -0.567341E-16
   LPB:    4  -0.478588261807726E+00   0.107886607250843E-02   0.219452E-01   0.327273E+00   0.132115E+03  -0.561498E-16
   LPB:    5  -0.478588228841832E+00   0.508962694996877E-03   0.244544E-01   0.498557E+00   0.194633E+03  -0.624270E-16
   LPB:    6  -0.478588207581288E+00   0.311181207507991E-03   0.337892E-01   0.466755E+00   0.268301E+03  -0.679262E-16
   LPB:    7  -0.478588192096340E+00   0.238103312767199E-03   0.365670E-01   0.673014E+00   0.317862E+03  -0.729654E-16
   LPB:    8  -0.478588178267602E+00   0.144544829299324E-03   0.411764E-01   0.793076E+00   0.503767E+03  -0.757412E-16
  Finished solving LPB equations
  A_corr:   -0.405413955289128     
 End minimization
 Ecorr=   1604.40959889958     
 A_corr= -0.405413955289128     
 Ecorr_band=  -1604.81501285487     
 End Solvation calculations
RMM:   4    -0.133995613964E+03    0.26912E-05   -0.32015E-05  7548   0.268E-02
 Begin Solvation calculations
  rms_SCF =   2.171963137570553E-003 tol =   2.171963137570553E-004
 Begin minimization
 Creating dielectric and ionic cavities
  area:      139.377974844391     
  volume:    646.573862065651     
  Acav:     7.317343679330537E-002
  Solving linear dielectric/ionic screening model
        iter                  A_solv                     rms
   LPB:       -0.478716095792216E+00   0.430378266512723E-01
   LPB:    0  -0.478715700765276E+00   0.400623947519563E-01  -0.166270E-03   0.000000E+00   0.285779E+02  -0.475164E-02
   LPB:    1  -0.478707616422289E+00   0.106092631095115E-01   0.109670E-01   0.000000E+00   0.802746E+02   0.433820E-19
   LPB:    2  -0.478706290260263E+00   0.168285910475637E-02   0.136232E-01   0.132057E+00   0.249486E+03   0.970815E-17
   LPB:    3  -0.478706027044563E+00   0.148742743520875E-02   0.237358E-01   0.113917E+00   0.426831E+03   0.186860E-16
   LPB:    4  -0.478705948519334E+00   0.107265018024959E-02   0.227733E-01   0.310940E+00   0.130523E+03   0.225025E-16
   LPB:    5  -0.478705909749602E+00   0.642841691696998E-03   0.238459E-01   0.471515E+00   0.262732E+03   0.235278E-16
   LPB:    6  -0.478705882875433E+00   0.334106028525354E-03   0.323220E-01   0.511397E+00   0.224014E+03   0.246828E-16
   LPB:    7  -0.478705863617014E+00   0.195234855774781E-03   0.370627E-01   0.624952E+00   0.591058E+03   0.255238E-16
  Finished solving LPB equations
  A_corr:   -0.405532426823708     
 End minimization
 Ecorr=   1604.36250900413     
 A_corr= -0.405532426823708     
 Ecorr_band=  -1604.76804143095     
 End Solvation calculations
   6 F= -.13399561E+03 E0= -.13399706E+03  d E =0.827469E-04
[...]
 Ecorr=   1603.15130284738     
 A_corr= -0.406747765920499     
 Ecorr_band=  -1603.55805061330     
 End Solvation calculations
RMM:   3    -0.133987868155E+03    0.27650E-05   -0.10899E-05  6675   0.139E-02
 Begin Solvation calculations
  rms_SCF =   3.706459883785282E-004 tol =   3.706459883785282E-005
 Begin minimization
 Creating dielectric and ionic cavities
  area:      139.848480553435     
  volume:    647.022914827884     
  Acav:     7.342045229055312E-002
  Solving linear dielectric/ionic screening model
        iter                  A_solv                     rms
   LPB:       -0.480200151906678E+00   0.248525431592754E-01
   LPB:    0  -0.480200146619608E+00   0.247997085909171E-01  -0.192428E-04   0.000000E+00   0.285569E+02  -0.549513E-03
   LPB:    1  -0.480198672310486E+00   0.239935676411153E-02   0.879309E-02   0.000000E+00   0.619315E+02  -0.270040E-19
   LPB:    2  -0.480198533303118E+00   0.464222078886175E-03   0.162429E-01   0.510421E-01   0.120652E+03  -0.315608E-17
   LPB:    3  -0.480198513462178E+00   0.151504523187445E-03   0.223676E-01   0.103650E+00   0.189839E+03  -0.422020E-17
   LPB:    4  -0.480198507911805E+00   0.866224818953276E-04   0.288684E-01   0.216749E+00   0.417368E+03  -0.605834E-17
   LPB:    5  -0.480198505558237E+00   0.586928897198542E-04   0.302348E-01   0.404875E+00   0.392498E+03  -0.703727E-17
   LPB:    6  -0.480198504274221E+00   0.285839200902462E-04   0.341545E-01   0.482951E+00   0.459835E+03  -0.815167E-17
  Finished solving LPB equations
  A_corr:   -0.406778051983668     
 End minimization
 Ecorr=   1603.14894438835     
 A_corr= -0.406778051983668     
 Ecorr_band=  -1603.55572244033     
 End Solvation calculations
 185 F= -.13398787E+03 E0= -.13398930E+03  d E =0.225302E-04
quench:  g(F)=  0.000E+00 g(S)=  0.000E+00 dE (1.order)= 0.000E+00
 bond charge predicted
       N       E                     dE             d eps       ncg     rms          rms(c)
 Begin Solvation calculations
  rms_SCF =   3.706459883785282E-004 tol =   3.706459883785282E-005
 Begin minimization
 Creating dielectric and ionic cavities
  area:      139.854482009423     
  volume:    647.025073125492     
  Acav:     7.342360305494693E-002
  Solving linear dielectric/ionic screening model
        iter                  A_solv                     rms
   LPB:       -0.480251065889506E+00   0.759920778920772E-03
   LPB:    0  -0.480251065888292E+00   0.760763078551161E-03   0.291516E-06   0.000000E+00   0.285568E+02   0.832475E-05
   LPB:    1  -0.480200713492297E+00   0.284486997125529E-03   0.156489E-01   0.000000E+00   0.702590E+06  -0.583087E-21
   LPB:    2  -0.480195514442091E+00   0.171656977934405E-03   0.271003E-01   0.596230E-01   0.149358E+06  -0.207127E-18
   LPB:    3  -0.480193811558955E+00   0.221449629638308E-03   0.329256E-01   0.269589E+00   0.708996E+05  -0.241899E-18
   LPB:    4  -0.480193059436500E+00   0.448170192268705E-03   0.359497E-01   0.404521E+00   0.194849E+05   0.528402E-18
   LPB:    5  -0.480192681443194E+00   0.965804893121096E-03   0.371563E-01   0.486248E+00   0.253422E+04   0.471228E-17
   LPB:    6  -0.480192488402974E+00   0.182732942241949E-02   0.339743E-01   0.558529E+00   0.379386E+03   0.870621E-17
   LPB:    7  -0.480192388840808E+00   0.150020538335480E-02   0.242090E-01   0.723804E+00   0.138636E+03   0.133377E-16
   LPB:    8  -0.480192310780198E+00   0.810748958970746E-03   0.282943E-01   0.670835E+00   0.324607E+03   0.140360E-16
   LPB:    9  -0.480192264258246E+00   0.139169577596420E-02   0.306790E-01   0.549646E+00   0.319275E+03   0.130553E-16
   LPB:   10  -0.480192238771901E+00   0.874064503584307E-03   0.194658E-01   0.863413E+00   0.147791E+03   0.125276E-16
   LPB:   11  -0.480192213672202E+00   0.198363956852853E-03   0.304682E-01   0.629197E+00   0.592543E+03   0.129959E-16
   LPB:   12  -0.480192197267963E+00   0.709140142865132E-04   0.386053E-01   0.515807E+00   0.493897E+04   0.130560E-16
   LPB:   13  -0.480192187004640E+00   0.825297188958025E-04   0.393305E-01   0.614115E+00   0.468040E+04   0.129787E-16
   LPB:   14  -0.480192180526547E+00   0.970218717586142E-04   0.380375E-01   0.652645E+00   0.241481E+04   0.130524E-16
   LPB:   15  -0.480192176390932E+00   0.816806867269212E-04   0.350673E-01   0.692472E+00   0.157092E+04   0.126756E-16
   LPB:   16  -0.480192173635293E+00   0.509853640347447E-04   0.355232E-01   0.657768E+00   0.200452E+04   0.125356E-16
   LPB:   17  -0.480192171687117E+00   0.303087429513907E-04   0.387912E-01   0.647418E+00   0.349162E+04   0.125060E-16
  Finished solving LPB equations
  A_corr:   -0.406768568632170     
 End minimization
 Ecorr=   1603.14803568448     
 A_corr= -0.406768568632170     
 Ecorr_band=  -1603.55480425311     
 End Solvation calculations
DAV:   1    -0.133987828472E+03    0.42448E-04   -0.32407E-03 13473   0.132E-01    0.168E-02
 Begin Solvation calculations
  rms_SCF =   3.706459883785282E-004 tol =   3.706459883785282E-005
 Begin minimization
 Creating dielectric and ionic cavities
  area:      139.853529853345     
  volume:    647.024111184895     
  Acav:     7.342310317300614E-002
  Solving linear dielectric/ionic screening model
        iter                  A_solv                     rms
   LPB:       -0.480167704673531E+00   0.321904356288640E-01
   LPB:    0  -0.480167703377634E+00   0.321778662807434E-01   0.952677E-05   0.000000E+00   0.285568E+02   0.272054E-03
   LPB:    1  -0.480165107576223E+00   0.316091076231998E-02   0.896936E-02   0.000000E+00   0.622935E+02  -0.152344E-19
   LPB:    2  -0.480164817955580E+00   0.637592117639102E-03   0.163166E-01   0.613324E-01   0.148969E+03  -0.379557E-18
   LPB:    3  -0.480164770525193E+00   0.274077777910633E-03   0.235132E-01   0.113644E+00   0.242418E+03  -0.321429E-18
   LPB:    4  -0.480164755505773E+00   0.148148459002187E-03   0.300159E-01   0.248060E+00   0.457985E+03  -0.520098E-18
   LPB:    5  -0.480164749127594E+00   0.150205052433509E-03   0.293644E-01   0.434084E+00   0.667746E+03   0.169936E-17
   LPB:    6  -0.480164745710407E+00   0.205440957013831E-03   0.309340E-01   0.508577E+00   0.267191E+03   0.263680E-17
   LPB:    7  -0.480164743857976E+00   0.204655969979497E-03   0.268933E-01   0.623541E+00   0.157951E+03   0.326920E-17
   LPB:    8  -0.480164742521714E+00   0.875827208094977E-04   0.276272E-01   0.702192E+00   0.166884E+03   0.434765E-17
   LPB:    9  -0.480164741524166E+00   0.315133563611081E-04   0.356965E-01   0.577769E+00   0.800754E+03   0.568370E-17
  Finished solving LPB equations
  A_corr:   -0.406741638351160     
 End minimization
 Ecorr=   1603.15083730666     
 A_corr= -0.406741638351160     
 Ecorr_band=  -1603.55757894501     
 End Solvation calculations
RMM:   2    -0.133987846072E+03   -0.17601E-04   -0.17193E-04 12093   0.282E-02    0.106E-02
 Begin Solvation calculations
  rms_SCF =   3.706459883785282E-004 tol =   3.706459883785282E-005
 Begin minimization
 Creating dielectric and ionic cavities
  area:      139.851587693302     
  volume:    647.023191267263     
  Acav:     7.342208353898337E-002
  Solving linear dielectric/ionic screening model
        iter                  A_solv                     rms
   LPB:       -0.480264475680420E+00   0.438849302202864E-01
   LPB:    0  -0.480264399246595E+00   0.434653632299584E-01  -0.731649E-04   0.000000E+00   0.285568E+02  -0.208936E-02
   LPB:    1  -0.480259853002345E+00   0.461382151593080E-02   0.887699E-02   0.000000E+00   0.608357E+02   0.186850E-18
   LPB:    2  -0.480259352514586E+00   0.805665999002265E-03   0.167334E-01   0.584014E-01   0.108233E+03  -0.657558E-17
   LPB:    3  -0.480259290710865E+00   0.308717446410666E-03   0.218998E-01   0.943549E-01   0.200267E+03  -0.116023E-16
   LPB:    4  -0.480259273327135E+00   0.204289618442636E-03   0.273634E-01   0.225111E+00   0.291765E+03  -0.124893E-16
   LPB:    5  -0.480259266634061E+00   0.217796519041299E-03   0.285796E-01   0.368635E+00   0.249148E+03  -0.129077E-16
   LPB:    6  -0.480259263695400E+00   0.221265764914381E-03   0.276620E-01   0.453626E+00   0.158432E+03  -0.127212E-16
   LPB:    7  -0.480259262242034E+00   0.137121908044582E-03   0.244085E-01   0.560490E+00   0.133664E+03  -0.123667E-16
   LPB:    8  -0.480259261294496E+00   0.535513651916383E-04   0.279446E-01   0.569462E+00   0.265091E+03  -0.125253E-16
   LPB:    9  -0.480259260677365E+00   0.216648271929471E-04   0.353556E-01   0.514777E+00   0.449230E+03  -0.133046E-16
  Finished solving LPB equations
  A_corr:   -0.406837177138382     
 End minimization
 Ecorr=   1603.14293389659     
 A_corr= -0.406837177138382     
 Ecorr_band=  -1603.54977107373     
 End Solvation calculations
RMM:   3    -0.133987845491E+03    0.58137E-06   -0.12891E-05  6812   0.138E-02
 Begin Solvation calculations
  rms_SCF =   3.706459883785282E-004 tol =   3.706459883785282E-005
 Begin minimization
 Creating dielectric and ionic cavities
  area:      139.851748909053     
  volume:    647.023914576106     
  Acav:     7.342216817725257E-002
  Solving linear dielectric/ionic screening model
        iter                  A_solv                     rms
   LPB:       -0.480236995850592E+00   0.272686091910503E-01
   LPB:    0  -0.480236993484156E+00   0.272504636413764E-01   0.128738E-04   0.000000E+00   0.285568E+02   0.367635E-03
   LPB:    1  -0.480235146230618E+00   0.252960564765330E-02   0.884537E-02   0.000000E+00   0.635643E+02   0.216363E-19
   LPB:    2  -0.480234971646726E+00   0.505941487349252E-03   0.158398E-01   0.527769E-01   0.150371E+03   0.212185E-18
   LPB:    3  -0.480234947551767E+00   0.175234198321932E-03   0.224552E-01   0.973544E-01   0.214191E+03   0.513820E-18
   LPB:    4  -0.480234940920400E+00   0.936898206715372E-04   0.285535E-01   0.216438E+00   0.409151E+03   0.535657E-18
   LPB:    5  -0.480234938191487E+00   0.668582114152484E-04   0.291939E-01   0.402489E+00   0.535675E+03  -0.835946E-18
   LPB:    6  -0.480234936870362E+00   0.832293745939886E-04   0.318306E-01   0.444019E+00   0.404961E+03  -0.158198E-17
   LPB:    7  -0.480234936223314E+00   0.119593261615576E-03   0.298616E-01   0.522064E+00   0.219488E+03  -0.193633E-17
   LPB:    8  -0.480234935833626E+00   0.731849444918831E-04   0.252218E-01   0.713046E+00   0.119037E+03  -0.250847E-17
   LPB:    9  -0.480234935518997E+00   0.276590809163628E-04   0.323020E-01   0.630416E+00   0.493662E+03  -0.308688E-17
  Finished solving LPB equations
  A_corr:   -0.406812767341744     
 End minimization
 Ecorr=   1603.14194442983     
 A_corr= -0.406812767341744     
 Ecorr_band=  -1603.54875719717     
 End Solvation calculations
 186 F= -.13398785E+03 E0= -.13398929E+03  d E =0.226639E-04
quench:  g(F)=  0.000E+00 g(S)=  0.000E+00 dE (1.order)= 0.000E+00
 bond charge predicted
       N       E                     dE             d eps       ncg     rms          rms(c)
 Begin Solvation calculations
  rms_SCF =   3.706459883785282E-004 tol =   3.706459883785282E-005
 Begin minimization
 Creating dielectric and ionic cavities
  area:      139.851851079753     
  volume:    647.025926669914     
  Acav:     7.342222181687007E-002
  Solving linear dielectric/ionic screening model
        iter                  A_solv                     rms
   LPB:       -0.480277458674858E+00   0.647437321685665E-03
   LPB:    0  -0.480277458674495E+00   0.647644071878913E-03   0.159356E-06   0.000000E+00   0.285567E+02   0.455069E-05
   LPB:    1  -0.480232138115449E+00   0.216995715977893E-03   0.155984E-01   0.000000E+00   0.885636E+06   0.116880E-21
   LPB:    2  -0.480227835055226E+00   0.138920909212465E-03   0.265604E-01   0.557605E-01   0.233926E+06  -0.720370E-19
   LPB:    3  -0.480226455935677E+00   0.256748310230287E-03   0.327333E-01   0.260058E+00   0.113892E+06   0.158868E-18
   LPB:    4  -0.480225861987027E+00   0.708238050534026E-03   0.356475E-01   0.395464E+00   0.154320E+05  -0.226974E-18
   LPB:    5  -0.480225578011546E+00   0.197258559864729E-02   0.355613E-01   0.479274E+00   0.116608E+04  -0.353967E-18
   LPB:    6  -0.480225458861325E+00   0.269289198787256E-02   0.234103E-01   0.637361E+00   0.166813E+03   0.519286E-18
   LPB:    7  -0.480225365809723E+00   0.839826768751189E-03   0.210423E-01   0.868844E+00   0.239590E+03  -0.341371E-17
   LPB:    8  -0.480225295759744E+00   0.608142889090885E-03   0.354305E-01   0.447097E+00   0.102573E+04  -0.138102E-17
   LPB:    9  -0.480225257314798E+00   0.951242478700881E-03   0.318362E-01   0.610782E+00   0.248456E+03   0.441118E-19
   LPB:   10  -0.480225233937626E+00   0.577033150615491E-03   0.242559E-01   0.798099E+00   0.152681E+03   0.456090E-17
   LPB:   11  -0.480225214234484E+00   0.175681027955602E-03   0.331950E-01   0.615869E+00   0.509073E+03   0.943443E-17
   LPB:   12  -0.480225200991723E+00   0.662217522484250E-04   0.394059E-01   0.566180E+00   0.328147E+04   0.123084E-16
   LPB:   13  -0.480225192536182E+00   0.625274724941004E-04   0.400524E-01   0.628196E+00   0.583863E+04   0.137738E-16
   LPB:   14  -0.480225187156968E+00   0.795565177010031E-04   0.393064E-01   0.648251E+00   0.340741E+04   0.145885E-16
   LPB:   15  -0.480225183678674E+00   0.828452742151303E-04   0.368206E-01   0.690270E+00   0.179573E+04   0.151906E-16
   LPB:   16  -0.480225181302732E+00   0.591178485918770E-04   0.354035E-01   0.710419E+00   0.161672E+04   0.155538E-16
   LPB:   17  -0.480225179595355E+00   0.336176320216228E-04   0.377380E-01   0.674157E+00   0.265405E+04   0.158026E-16
  Finished solving LPB equations
  A_corr:   -0.406802957778485     
 End minimization
 Ecorr=   1603.14091294734     
 A_corr= -0.406802957778485     
 Ecorr_band=  -1603.54771590512     
 End Solvation calculations
DAV:   1    -0.133987806499E+03    0.39573E-04   -0.27661E-03 14319   0.129E-01    0.179E-02
 Begin Solvation calculations
  rms_SCF =   3.706459883785282E-004 tol =   3.706459883785282E-005
 Begin minimization
 Creating dielectric and ionic cavities
  area:      139.852984077953     
  volume:    647.027183300498     
  Acav:     7.342281664092522E-002
  Solving linear dielectric/ionic screening model
        iter                  A_solv                     rms
   LPB:       -0.480230299952326E+00   0.189229591516367E-01
   LPB:    0  -0.480230295412652E+00   0.188583209641412E-01   0.178309E-04   0.000000E+00   0.285567E+02   0.509191E-03
   LPB:    1  -0.480229039322017E+00   0.310867172233159E-02   0.100548E-01   0.000000E+00   0.698139E+02  -0.470673E-19
   LPB:    2  -0.480228792150120E+00   0.643740991065113E-03   0.163767E-01   0.120817E+00   0.362060E+03   0.200191E-17
   LPB:    3  -0.480228730249296E+00   0.393225932987549E-03   0.258120E-01   0.158892E+00   0.510354E+03   0.374527E-17
   LPB:    4  -0.480228708545281E+00   0.313798125951278E-03   0.294733E-01   0.307070E+00   0.407962E+03   0.479711E-17
   LPB:    5  -0.480228699207958E+00   0.343562815112243E-03   0.274413E-01   0.462069E+00   0.381935E+03   0.416359E-17
   LPB:    6  -0.480228694073510E+00   0.287118406148480E-03   0.258492E-01   0.583753E+00   0.168402E+03   0.533141E-17
   LPB:    7  -0.480228690754125E+00   0.158388202391949E-03   0.281629E-01   0.593380E+00   0.218195E+03   0.772612E-17
   LPB:    8  -0.480228688470592E+00   0.643251529360941E-04   0.327733E-01   0.591162E+00   0.422261E+03   0.117554E-16
   LPB:    9  -0.480228686901778E+00   0.307969287770593E-04   0.373012E-01   0.603617E+00   0.115204E+04   0.150363E-16
  Finished solving LPB equations
  A_corr:   -0.406805870260853     
 End minimization
 Ecorr=   1603.14305776048     
 A_corr= -0.406805870260853     
 Ecorr_band=  -1603.54986363074     
 End Solvation calculations
RMM:   2    -0.133987824019E+03   -0.17520E-04   -0.19792E-04 10550   0.265E-02    0.119E-02
 Begin Solvation calculations
  rms_SCF =   3.706459883785282E-004 tol =   3.706459883785282E-005
 Begin minimization
 Creating dielectric and ionic cavities
  area:      139.853113094347     
  volume:    647.027709021363     
  Acav:     7.342288437453232E-002
  Solving linear dielectric/ionic screening model
        iter                  A_solv                     rms
   LPB:       -0.480181592084307E+00   0.236462765159665E-01
   LPB:    0  -0.480181579710829E+00   0.235269474757768E-01   0.294379E-04   0.000000E+00   0.285566E+02   0.840648E-03
   LPB:    1  -0.480180242159415E+00   0.239403509158462E-02   0.885601E-02   0.000000E+00   0.615065E+02   0.316069E-19
   LPB:    2  -0.480180095268589E+00   0.459195526382258E-03   0.169520E-01   0.573724E-01   0.116021E+03  -0.169233E-17
   LPB:    3  -0.480180074006753E+00   0.185382037456586E-03   0.227696E-01   0.107763E+00   0.213600E+03  -0.202764E-17
   LPB:    4  -0.480180066930111E+00   0.886004077044399E-04   0.295058E-01   0.256847E+00   0.414883E+03  -0.190168E-17
   LPB:    5  -0.480180063767811E+00   0.703763989995930E-04   0.313633E-01   0.420399E+00   0.474149E+03  -0.152978E-17
   LPB:    6  -0.480180061955394E+00   0.490123194489277E-04   0.350810E-01   0.512395E+00   0.480763E+03  -0.143570E-17
   LPB:    7  -0.480180060814172E+00   0.521776929351481E-04   0.384168E-01   0.574993E+00   0.509326E+03  -0.188726E-17
   LPB:    8  -0.480180060075920E+00   0.915313840180996E-04   0.373144E-01   0.666008E+00   0.376109E+03  -0.191510E-17
   LPB:    9  -0.480180059604702E+00   0.107975739803405E-03   0.296029E-01   0.804563E+00   0.157127E+03  -0.251522E-17
   LPB:   10  -0.480180059206931E+00   0.575093078392199E-04   0.289550E-01   0.863022E+00   0.197024E+03  -0.362546E-17
   LPB:   11  -0.480180058852670E+00   0.236678441476030E-04   0.372163E-01   0.692915E+00   0.558394E+03  -0.445060E-17
  Finished solving LPB equations
  A_corr:   -0.406757174478138     
 End minimization
 Ecorr=   1603.14569541567     
 A_corr= -0.406757174478138     
 Ecorr_band=  -1603.55245259014     
 End Solvation calculations
RMM:   3    -0.133987820383E+03    0.36363E-05   -0.10668E-05  6649   0.129E-02
 Begin Solvation calculations
  rms_SCF =   3.706459883785282E-004 tol =   3.706459883785282E-005
 Begin minimization
 Creating dielectric and ionic cavities
  area:      139.852400639811     
  volume:    647.027438869346     
  Acav:     7.342251033590060E-002
  Solving linear dielectric/ionic screening model
        iter                  A_solv                     rms
   LPB:       -0.480208087173245E+00   0.268648890588603E-01
   LPB:    0  -0.480208084630468E+00   0.268430307623432E-01  -0.133449E-04   0.000000E+00   0.285566E+02  -0.381086E-03
   LPB:    1  -0.480206321282599E+00   0.254453198812443E-02   0.884269E-02   0.000000E+00   0.625609E+02   0.114148E-19
   LPB:    2  -0.480206148145796E+00   0.518164189973792E-03   0.162022E-01   0.535872E-01   0.136581E+03   0.373972E-18
   LPB:    3  -0.480206121502948E+00   0.188991114072382E-03   0.229021E-01   0.108866E+00   0.208498E+03   0.579303E-18
   LPB:    4  -0.480206113939216E+00   0.996723075860493E-04   0.288590E-01   0.225294E+00   0.455166E+03   0.750920E-18
   LPB:    5  -0.480206110835803E+00   0.869028293564437E-04   0.291580E-01   0.406095E+00   0.547099E+03  -0.190679E-18
   LPB:    6  -0.480206109189039E+00   0.117826304769722E-03   0.324017E-01   0.477508E+00   0.286316E+03  -0.458791E-18
   LPB:    7  -0.480206108334750E+00   0.145764983517638E-03   0.282566E-01   0.594869E+00   0.176401E+03  -0.855870E-18
   LPB:    8  -0.480206107753950E+00   0.716445578311316E-04   0.261894E-01   0.733527E+00   0.123336E+03   0.104492E-17
   LPB:    9  -0.480206107285218E+00   0.270709615651585E-04   0.351290E-01   0.601670E+00   0.565182E+03   0.203182E-17
  Finished solving LPB equations
  A_corr:   -0.406783596949317     
 End minimization
 Ecorr=   1603.14519230703     
 A_corr= -0.406783596949317     
 Ecorr_band=  -1603.55197590398     
 End Solvation calculations
 187 F= -.13398782E+03 E0= -.13398925E+03  d E =0.251076E-04
quench:  g(F)=  0.000E+00 g(S)=  0.000E+00 dE (1.order)= 0.000E+00
 reached required accuracy - stopping structural energy minimisation
