 vasp.5.4.4.18Apr17-6-g9f103f2a35 (build Feb 06 2024 13:54:16) complex          
  
 POSCAR found type information on POSCAR  Cu Ni Cu N  O 
 02/POSCAR found :  5 types and      40 ions
 scaLAPACK will be used

 ----------------------------------------------------------------------------- 
|                                                                             |
|  ADVICE TO THIS USER RUNNING 'VASP/VAMP'   (HEAR YOUR MASTER'S VOICE ...):  |
|                                                                             |
|      You enforced a specific xc-type in the INCAR file,                     |
|      a different type was found on the POTCAR file                          |
|          I HOPE YOU KNOW, WHAT YOU ARE  DOING                               |
|                                                                             |
 ----------------------------------------------------------------------------- 

 LDA part: xc-table for Pade appr. of Perdew
 POSCAR found type information on POSCAR  Cu Ni Cu N  O 
 00/POSCAR found :  5 types and      40 ions
 POSCAR found type information on POSCAR  Cu Ni Cu N  O 
 06/POSCAR found :  5 types and      40 ions
 Jacobian:    19.9537150754471     
 POSCAR, INCAR and KPOINTS ok, starting setup
 FFT: planning ...
 WAVECAR not read
 entering main loop
       N       E                     dE             d eps       ncg     rms          rms(c)
  Solvation turned off during non-self-consistent phase (first NELMDL steps)
DAV:   1     0.424492231719E+04    0.42449E+04   -0.18047E+05 12096   0.211E+03
DAV:   2     0.625774355232E+03   -0.36191E+04   -0.34920E+04 12123   0.475E+02
DAV:   3    -0.304537352498E+02   -0.65623E+03   -0.60710E+03 13770   0.238E+02
DAV:   4    -0.148103077988E+03   -0.11765E+03   -0.10246E+03 22140   0.937E+01
DAV:   5    -0.162921402414E+03   -0.14818E+02   -0.14598E+02 18423   0.324E+01    0.431E+01
 Begin Solvation calculations
  rms_SCF =    3.31197375908826      tol =   0.331197375908826     
 Begin minimization
 Creating dielectric and ionic cavities
  area:      158.732961479167     
  volume:    650.827913158260     
  Acav:     8.333480477656263E-002
  Solving linear dielectric/ionic screening model
        iter                  A_solv                     rms
   LPB:       -0.349574166142750E+03   0.263860455936609E+03
   LPB:    0  -0.444934956799017E+01   0.184397282592400E+02  -0.493184E+01   0.000000E+00   0.283785E+02  -0.139958E+03
   LPB:    1  -0.852077476441536E+00   0.749148875952766E+01   0.124641E-01   0.000000E+00   0.128584E+03  -0.393464E-14
   LPB:    2  -0.401399583031775E+00   0.144110992633400E+01   0.122332E-01   0.127647E+00   0.184627E+03  -0.234874E-13
   LPB:    3  -0.247101639530854E+00   0.677667815000339E+00   0.258294E-01   0.162152E+00   0.428372E+03  -0.227793E-13
   LPB:    4  -0.195990127866651E+00   0.677481305880120E+00   0.294980E-01   0.290055E+00   0.101420E+03  -0.214208E-13
   LPB:    5  -0.174658592628532E+00   0.720382720444671E+00   0.241520E-01   0.509734E+00   0.405553E+03  -0.201395E-13
   LPB:    6  -0.160815460110882E+00   0.234504718189338E+00   0.263065E-01   0.595801E+00   0.636991E+02  -0.154735E-13
  Finished solving LPB equations
  A_corr:   -7.748065533431958E-002
 End minimization
 Ecorr=   1954.49846456695     
 A_corr= -7.748065533431958E-002
 Ecorr_band=  -1954.57594522228     
 End Solvation calculations
RMM:   6    -0.151849140677E+03    0.11072E+02   -0.34694E+02 12307   0.932E+01    0.385E+01
 Begin Solvation calculations
  rms_SCF =    3.31197375908826      tol =   0.331197375908826     
 Begin minimization
 Creating dielectric and ionic cavities
  area:      164.861921427779     
  volume:    656.675193419753     
  Acav:     8.655250874958408E-002
  Solving linear dielectric/ionic screening model
        iter                  A_solv                     rms
   LPB:       -0.515422177724299E+01   0.431939960994916E+02
   LPB:    0  -0.493644405303131E+01   0.425450551926680E+02   0.124490E+00   0.000000E+00   0.281043E+02   0.349871E+01
   LPB:    1  -0.585147249521387E+00   0.393946832472355E+01   0.870974E-02   0.000000E+00   0.633644E+02  -0.169816E-15
   LPB:    2  -0.251934046724279E+00   0.103168074584485E+01   0.162461E-01   0.410545E-01   0.109358E+03   0.592395E-15
   LPB:    3  -0.204151788765824E+00   0.479280972293807E+00   0.221959E-01   0.104959E+00   0.902121E+02  -0.145713E-14
   LPB:    4  -0.189395038689570E+00   0.504796356045580E+00   0.250167E-01   0.274010E+00   0.274055E+03  -0.340655E-14
   LPB:    5  -0.181710667012898E+00   0.241345003696877E+00   0.247597E-01   0.526140E+00   0.736854E+02  -0.418669E-14
  Finished solving LPB equations
  A_corr:   -9.515815826331399E-002
 End minimization
 Ecorr=   1882.01393669622     
 A_corr= -9.515815826331399E-002
 Ecorr_band=  -1882.10909485448     
 End Solvation calculations
RMM:   7    -0.160693068245E+03   -0.88439E+01   -0.12510E+02 12574   0.467E+01    0.452E+01
 Begin Solvation calculations
  rms_SCF =    3.31197375908826      tol =   0.331197375908826     
 Begin minimization
 Creating dielectric and ionic cavities
  area:      164.791125204967     
  volume:    658.115419230373     
  Acav:     8.651534073260772E-002
  Solving linear dielectric/ionic screening model
        iter                  A_solv                     rms
   LPB:       -0.168466538201897E+01   0.238652572075223E+02
   LPB:    0  -0.167283487392050E+01   0.238110059917026E+02   0.290504E-01   0.000000E+00   0.280368E+02   0.814481E+00
   LPB:    1  -0.298810958504369E+00   0.223115222559378E+01   0.885230E-02   0.000000E+00   0.618515E+02   0.401419E-16
   LPB:    2  -0.185324624810514E+00   0.352590584361348E+00   0.156866E-01   0.466096E-01   0.122351E+03  -0.548626E-15
   LPB:    3  -0.167938771915149E+00   0.150921445636733E+00   0.234829E-01   0.102336E+00   0.259963E+03  -0.124187E-14
   LPB:    4  -0.163179924788096E+00   0.142947514961495E+00   0.286725E-01   0.224178E+00   0.313313E+03  -0.132085E-14
  Finished solving LPB equations
  A_corr:   -7.666458405548834E-002
 End minimization
 Ecorr=   1863.84824765683     
 A_corr= -7.666458405548834E-002
 Ecorr_band=  -1863.92491224088     
 End Solvation calculations
RMM:   8    -0.147749019456E+03    0.12944E+02   -0.94274E+00 12381   0.924E+00    0.289E+01
 Begin Solvation calculations
  rms_SCF =    3.31197375908826      tol =   0.331197375908826     
 Begin minimization
 Creating dielectric and ionic cavities
  area:      150.553816490070     
  volume:    658.217999065649     
  Acav:     7.904075365728695E-002
  Solving linear dielectric/ionic screening model
        iter                  A_solv                     rms
   LPB:       -0.121159289308961E+01   0.189567966470906E+02
   LPB:    0  -0.121151672335802E+01   0.189703707269941E+02   0.233120E-02   0.000000E+00   0.280320E+02   0.653482E-01
   LPB:    1  -0.329428428981236E+00   0.212621466831589E+01   0.895770E-02   0.000000E+00   0.603400E+02  -0.457058E-17
   LPB:    2  -0.225805538875115E+00   0.393863756735043E+00   0.177726E-01   0.592093E-01   0.862768E+02  -0.512164E-14
   LPB:    3  -0.208724592736118E+00   0.223934420097492E+00   0.229355E-01   0.127732E+00   0.200432E+03  -0.283740E-14
   LPB:    4  -0.202393290768207E+00   0.147827305498614E+00   0.304424E-01   0.279261E+00   0.928718E+02  -0.242063E-14
  Finished solving LPB equations
  A_corr:   -0.123352537110920     
 End minimization
 Ecorr=   1824.09950615694     
 A_corr= -0.123352537110920     
 Ecorr_band=  -1824.22285869405     
 End Solvation calculations
RMM:   9    -0.140065172563E+03    0.76838E+01   -0.20214E+01 12340   0.157E+01    0.136E+01
 Begin Solvation calculations
  rms_SCF =    3.31197375908826      tol =   0.331197375908826     
 Begin minimization
 Creating dielectric and ionic cavities
  area:      146.379030815756     
  volume:    658.251447428106     
  Acav:     7.684899117827214E-002
  Solving linear dielectric/ionic screening model
        iter                  A_solv                     rms
   LPB:       -0.261889445071580E+01   0.303234515775502E+02
   LPB:    0  -0.260473149087557E+01   0.302500505217166E+02   0.317890E-01   0.000000E+00   0.280304E+02   0.891060E+00
   LPB:    1  -0.400429444703382E+00   0.281964817048652E+01   0.881088E-02   0.000000E+00   0.620399E+02  -0.539561E-16
   LPB:    2  -0.224113992938045E+00   0.451559897488919E+00   0.157985E-01   0.446091E-01   0.118037E+03  -0.841573E-15
   LPB:    3  -0.199867675263044E+00   0.161429219909510E+00   0.222809E-01   0.975074E-01   0.247949E+03  -0.819502E-15
   LPB:    4  -0.193824365890259E+00   0.142412266890276E+00   0.279658E-01   0.198580E+00   0.350591E+03  -0.997068E-15
  Finished solving LPB equations
  A_corr:   -0.116975374711987     
 End minimization
 Ecorr=   1811.64351166199     
 A_corr= -0.116975374711987     
 Ecorr_band=  -1811.76048703670     
 End Solvation calculations
RMM:  10    -0.135894923077E+03    0.41702E+01   -0.34356E+00 12391   0.711E+00    0.429E+00
 Begin Solvation calculations
  rms_SCF =   0.741918076628709      tol =   7.419180766287094E-002
 Begin minimization
 Creating dielectric and ionic cavities
  area:      135.758756364947     
  volume:    655.718226795727     
  Acav:     7.127334709159734E-002
  Solving linear dielectric/ionic screening model
        iter                  A_solv                     rms
   LPB:       -0.305664795701710E+00   0.416872434459201E+01
   LPB:    0  -0.303409731445099E+00   0.379558835748103E+01  -0.126579E-01   0.000000E+00   0.281492E+02  -0.356310E+00
   LPB:    1  -0.237251421484606E+00   0.979399336405583E+00   0.110954E-01   0.000000E+00   0.616755E+02  -0.148067E-17
   LPB:    2  -0.226271128846896E+00   0.211005923458345E+00   0.147173E-01   0.125125E+00   0.109369E+03  -0.679223E-14
   LPB:    3  -0.221237813237554E+00   0.313963111690032E+00   0.306242E-01   0.220294E+00   0.199445E+03  -0.430136E-14
   LPB:    4  -0.217547216601415E+00   0.325887908087515E+00   0.296369E-01   0.757660E+00   0.372725E+02  -0.330346E-14
   LPB:    5  -0.213912171483014E+00   0.160381317406865E+00   0.311860E-01   0.936024E+00   0.108806E+03  -0.133478E-14
   LPB:    6  -0.211597335290797E+00   0.617960486884641E-01   0.335522E-01   0.591902E+00   0.727018E+02   0.632501E-15
  Finished solving LPB equations
  A_corr:   -0.140323988199200     
 End minimization
 Ecorr=   1774.99615757209     
 A_corr= -0.140323988199200     
 Ecorr_band=  -1775.13648156029     
 End Solvation calculations
RMM:  11    -0.135814053260E+03    0.80870E-01   -0.92560E-01 12508   0.372E+00    0.336E+00
 Begin Solvation calculations
  rms_SCF =   0.741918076628709      tol =   7.419180766287094E-002
 Begin minimization
 Creating dielectric and ionic cavities
  area:      129.222265172800     
  volume:    653.264506528385     
  Acav:     6.784168921571977E-002
  Solving linear dielectric/ionic screening model
        iter                  A_solv                     rms
   LPB:       -0.343893395713204E+00   0.126404430954229E+01
   LPB:    0  -0.335752005620792E+00   0.193797092540740E+01   0.240019E-01   0.000000E+00   0.282642E+02   0.678396E+00
   LPB:    1  -0.264808083231293E+00   0.101648855483512E+01   0.162040E-01   0.000000E+00   0.974034E+02   0.402136E-16
   LPB:    2  -0.256697794753560E+00   0.428722637542486E+00   0.153120E-01   0.120979E+00   0.759297E+02   0.131364E-14
   LPB:    3  -0.253373766818263E+00   0.162221758771485E+00   0.186063E-01   0.337288E+00   0.187195E+03   0.152787E-14
   LPB:    4  -0.251094096035249E+00   0.170872342250890E+00   0.339612E-01   0.375738E+00   0.729685E+02   0.188735E-14
   LPB:    5  -0.249206837560478E+00   0.235353775728429E+00   0.315963E-01   0.889826E+00   0.215195E+03   0.139080E-14
   LPB:    6  -0.247508725443476E+00   0.125142521333324E+00   0.303530E-01   0.936635E+00   0.378812E+02   0.938912E-15
   LPB:    7  -0.246245573902987E+00   0.541826756047715E-01   0.322225E-01   0.700699E+00   0.137082E+03  -0.907913E-15
  Finished solving LPB equations
  A_corr:   -0.178403884687267     
 End minimization
 Ecorr=   1729.31262742421     
 A_corr= -0.178403884687267     
 Ecorr_band=  -1729.49103130890     
 End Solvation calculations
RMM:  12    -0.135676314755E+03    0.13774E+00   -0.33358E-01 12429   0.264E+00    0.131E+00
 Begin Solvation calculations
  rms_SCF =   0.519070649699526      tol =   5.190706496995257E-002
 Begin minimization
 Creating dielectric and ionic cavities
  area:      129.361709241478     
  volume:    649.553135159253     
  Acav:     6.791489735177582E-002
  Solving linear dielectric/ionic screening model
        iter                  A_solv                     rms
   LPB:       -0.352249280142021E+00   0.211288715451814E+01
   LPB:    0  -0.352248901700506E+00   0.211978904091220E+01   0.163141E-03   0.000000E+00   0.284382E+02   0.463944E-02
   LPB:    1  -0.291906194733101E+00   0.622079300405200E+00   0.158449E-01   0.000000E+00   0.716988E+02  -0.421657E-19
   LPB:    2  -0.284446189431693E+00   0.358636963388097E+00   0.151622E-01   0.129194E+00   0.213535E+03  -0.197709E-14
   LPB:    3  -0.282155513695678E+00   0.241911036119097E+00   0.204235E-01   0.227958E+00   0.782912E+02  -0.662922E-15
   LPB:    4  -0.281155688475824E+00   0.203144889032211E+00   0.233660E-01   0.381512E+00   0.867000E+02  -0.347420E-15
   LPB:    5  -0.280161174631228E+00   0.102293620659281E+00   0.274610E-01   0.846359E+00   0.165559E+03   0.135529E-15
   LPB:    6  -0.279000785718416E+00   0.438747972675224E-01   0.408985E-01   0.783433E+00   0.581918E+02   0.469094E-15
  Finished solving LPB equations
  A_corr:   -0.211085888366640     
 End minimization
 Ecorr=   1701.85379957897     
 A_corr= -0.211085888366640     
 Ecorr_band=  -1702.06488546734     
 End Solvation calculations
RMM:  13    -0.135672543636E+03    0.37711E-02   -0.93229E-02 12983   0.975E-01    0.587E-01
 Begin Solvation calculations
  rms_SCF =   0.272655859504076      tol =   2.726558595040756E-002
 Begin minimization
 Creating dielectric and ionic cavities
  area:      129.963870009913     
  volume:    648.052331209848     
  Acav:     6.823103175520449E-002
  Solving linear dielectric/ionic screening model
        iter                  A_solv                     rms
   LPB:       -0.300623331555598E+00   0.757577813352161E+00
   LPB:    0  -0.300609044867659E+00   0.794157757821504E+00   0.100114E-02   0.000000E+00   0.285086E+02   0.285410E-01
   LPB:    1  -0.291676101589209E+00   0.454904836407978E+00   0.138206E-01   0.000000E+00   0.109276E+03  -0.188782E-17
   LPB:    2  -0.290424390781384E+00   0.105376210064763E+00   0.135257E-01   0.143178E+00   0.792694E+02   0.177329E-14
   LPB:    3  -0.290017602051638E+00   0.732750679459615E-01   0.208219E-01   0.211108E+00   0.242416E+03   0.212844E-14
   LPB:    4  -0.289590611873810E+00   0.132456585394312E+00   0.430075E-01   0.508189E+00   0.471201E+02   0.223370E-14
   LPB:    5  -0.288840525046210E+00   0.111375382305450E+00   0.391969E-01   0.192746E+01   0.101995E+03   0.317808E-14
   LPB:    6  -0.288231678590844E+00   0.352884160287523E-01   0.303341E-01   0.104886E+01   0.386088E+02   0.309248E-14
   LPB:    7  -0.288037057109271E+00   0.182656333340667E-01   0.263957E-01   0.367351E+00   0.226841E+03   0.340259E-14
  Finished solving LPB equations
  A_corr:   -0.219806025354066     
 End minimization
 Ecorr=   1687.19946776399     
 A_corr= -0.219806025354066     
 Ecorr_band=  -1687.41927378934     
 End Solvation calculations
RMM:  14    -0.135669289016E+03    0.32546E-02   -0.31334E-02 12636   0.687E-01    0.428E-01
 Begin Solvation calculations
  rms_SCF =   0.272655859504076      tol =   2.726558595040756E-002
 Begin minimization
 Creating dielectric and ionic cavities
  area:      130.890742049233     
  volume:    645.887323929260     
  Acav:     6.871763957584709E-002
  Solving linear dielectric/ionic screening model
        iter                  A_solv                     rms
   LPB:       -0.327072426439531E+00   0.136767836102010E+01
   LPB:    0  -0.326816878492719E+00   0.118457192588664E+01  -0.422660E-02   0.000000E+00   0.286101E+02  -0.120924E+00
   LPB:    1  -0.307010421391350E+00   0.584117049843143E+00   0.142664E-01   0.000000E+00   0.969057E+02   0.560715E-17
   LPB:    2  -0.304556520091581E+00   0.139360715478386E+00   0.137477E-01   0.128568E+00   0.836874E+02   0.708033E-14
   LPB:    3  -0.304010447189204E+00   0.981436259077847E-01   0.180542E-01   0.169452E+00   0.264528E+03   0.808027E-14
   LPB:    4  -0.303821120481371E+00   0.657825020507370E-01   0.192194E-01   0.325687E+00   0.840011E+02   0.818285E-14
   LPB:    5  -0.303688930168382E+00   0.397816350001147E-01   0.272234E-01   0.492930E+00   0.291840E+03   0.839505E-14
   LPB:    6  -0.303566061871565E+00   0.150106116756065E-01   0.418024E-01   0.605314E+00   0.780875E+02   0.841755E-14
  Finished solving LPB equations
  A_corr:   -0.234848422295718     
 End minimization
 Ecorr=   1677.76493600894     
 A_corr= -0.234848422295718     
 Ecorr_band=  -1677.99978443124     
 End Solvation calculations
RMM:  15    -0.135669934009E+03   -0.64499E-03   -0.13356E-02 13066   0.382E-01    0.277E-01
 Begin Solvation calculations
  rms_SCF =   0.272655859504076      tol =   2.726558595040756E-002
 Begin minimization
 Creating dielectric and ionic cavities
  area:      131.720960084945     
  volume:    644.250799807029     
  Acav:     6.915350404459628E-002
  Solving linear dielectric/ionic screening model
        iter                  A_solv                     rms
   LPB:       -0.340938864633454E+00   0.141659624911423E+01
   LPB:    0  -0.340582652947224E+00   0.121145223845019E+01  -0.498342E-02   0.000000E+00   0.286868E+02  -0.142959E+00
   LPB:    1  -0.321538622243457E+00   0.445949608490086E+00   0.150618E-01   0.000000E+00   0.832956E+02  -0.739125E-17
   LPB:    2  -0.319274035461280E+00   0.126309364626944E+00   0.147196E-01   0.121678E+00   0.101136E+03  -0.759480E-14
   LPB:    3  -0.318735934979123E+00   0.750312183884633E-01   0.216887E-01   0.161263E+00   0.137649E+03  -0.763410E-14
   LPB:    4  -0.318476164714705E+00   0.105830987877522E+00   0.259371E-01   0.403682E+00   0.990309E+02  -0.795174E-14
   LPB:    5  -0.318276685001248E+00   0.812195773439262E-01   0.229191E-01   0.869027E+00   0.165948E+03  -0.810747E-14
   LPB:    6  -0.318060887106374E+00   0.273929693013662E-01   0.333895E-01   0.742566E+00   0.624533E+02  -0.813170E-14
   LPB:    7  -0.317886496059321E+00   0.130193259672015E-01   0.393125E-01   0.686368E+00   0.129319E+03  -0.836668E-14
  Finished solving LPB equations
  A_corr:   -0.248732992014725     
 End minimization
 Ecorr=   1667.50249693442     
 A_corr= -0.248732992014725     
 Ecorr_band=  -1667.75122992644     
 End Solvation calculations
RMM:  16    -0.135670894608E+03   -0.96060E-03   -0.64406E-03 15829   0.175E-01    0.242E-01
 Begin Solvation calculations
  rms_SCF =   0.272655859504076      tol =   2.726558595040756E-002
 Begin minimization
 Creating dielectric and ionic cavities
  area:      132.027519155914     
  volume:    643.771429009200     
  Acav:     6.931444755685509E-002
  Solving linear dielectric/ionic screening model
        iter                  A_solv                     rms
   LPB:       -0.328491056366087E+00   0.704822361864857E+00
   LPB:    0  -0.328382769728683E+00   0.601740868571131E+00  -0.274657E-02   0.000000E+00   0.287093E+02  -0.788522E-01
   LPB:    1  -0.324512297884038E+00   0.170909475410559E+00   0.152659E-01   0.000000E+00   0.709657E+02   0.370269E-17
   LPB:    2  -0.324046465015914E+00   0.573553875798303E-01   0.147424E-01   0.124629E+00   0.140474E+03   0.100350E-14
   LPB:    3  -0.323934818538964E+00   0.231578309384022E-01   0.223067E-01   0.158398E+00   0.105680E+03   0.150359E-14
   LPB:    4  -0.323878391772341E+00   0.482749195220068E-01   0.337427E-01   0.334115E+00   0.232600E+03   0.123536E-14
   LPB:    5  -0.323817939946660E+00   0.626937137263518E-01   0.307519E-01   0.117553E+01   0.617628E+02   0.998806E-15
   LPB:    6  -0.323718538468573E+00   0.256020256354152E-01   0.333229E-01   0.151744E+01   0.502246E+02   0.813614E-15
  Finished solving LPB equations
  A_corr:   -0.254404090911718     
 End minimization
 Ecorr=   1662.78405089856     
 A_corr= -0.254404090911718     
 Ecorr_band=  -1663.03845498947     
 End Solvation calculations
RMM:  17    -0.135671108115E+03   -0.21351E-03   -0.15973E-03 13271   0.121E-01    0.228E-01
 Begin Solvation calculations
  rms_SCF =   0.272655859504076      tol =   2.726558595040756E-002
 Begin minimization
 Creating dielectric and ionic cavities
  area:      132.775837528692     
  volume:    642.891068928277     
  Acav:     6.970731470256343E-002
  Solving linear dielectric/ionic screening model
        iter                  A_solv                     rms
   LPB:       -0.376671957981629E+00   0.217326335238915E+01
   LPB:    0  -0.375314941067588E+00   0.183624982726827E+01  -0.971593E-02   0.000000E+00   0.287506E+02  -0.279339E+00
   LPB:    1  -0.344607796250927E+00   0.454565319756143E+00   0.150691E-01   0.000000E+00   0.652194E+02  -0.126835E-16
   LPB:    2  -0.341093192371876E+00   0.166491314673327E+00   0.142238E-01   0.121257E+00   0.162733E+03  -0.554533E-14
   LPB:    3  -0.340400056325956E+00   0.975920229392945E-01   0.198827E-01   0.141086E+00   0.100942E+03  -0.606703E-14
   LPB:    4  -0.340147239790132E+00   0.107014373096736E+00   0.208209E-01   0.348307E+00   0.176360E+03  -0.603658E-14
   LPB:    5  -0.339987081035646E+00   0.515919759908839E-01   0.217145E-01   0.607428E+00   0.938854E+02  -0.609509E-14
   LPB:    6  -0.339856429685818E+00   0.175412644495658E-01   0.315685E-01   0.561126E+00   0.116847E+03  -0.630709E-14
  Finished solving LPB equations
  A_corr:   -0.270149114983255     
 End minimization
 Ecorr=   1654.58617110915     
 A_corr= -0.270149114983255     
 Ecorr_band=  -1654.85632022414     
 End Solvation calculations
RMM:  18    -0.135672348495E+03   -0.12404E-02   -0.27473E-03 12294   0.106E-01    0.114E-01
 Begin Solvation calculations
  rms_SCF =   0.206908547078900      tol =   2.069085470789003E-002
 Begin minimization
 Creating dielectric and ionic cavities
  area:      133.195835736406     
  volume:    642.572957553231     
  Acav:     6.992781376161333E-002
  Solving linear dielectric/ionic screening model
        iter                  A_solv                     rms
   LPB:       -0.360305518734228E+00   0.118610979635865E+01
   LPB:    0  -0.359848521946930E+00   0.983286445080860E+00  -0.563684E-02   0.000000E+00   0.287655E+02  -0.162146E+00
   LPB:    1  -0.350516782921779E+00   0.272520324833716E+00   0.149069E-01   0.000000E+00   0.694408E+02  -0.366542E-17
   LPB:    2  -0.349449865066179E+00   0.862215057694753E-01   0.146668E-01   0.116204E+00   0.112184E+03   0.163949E-14
   LPB:    3  -0.349213572701851E+00   0.460526211983127E-01   0.227253E-01   0.142936E+00   0.105289E+03   0.166896E-14
   LPB:    4  -0.349059560480888E+00   0.529800138689849E-01   0.344914E-01   0.429443E+00   0.996056E+02   0.139907E-14
   LPB:    5  -0.348939314124405E+00   0.832578918826592E-01   0.292303E-01   0.921284E+00   0.125299E+03   0.133629E-14
   LPB:    6  -0.348837763641124E+00   0.382587889991488E-01   0.219657E-01   0.112383E+01   0.560049E+02   0.121152E-14
   LPB:    7  -0.348752000264554E+00   0.120287681134817E-01   0.326844E-01   0.567576E+00   0.178361E+03   0.129133E-14
  Finished solving LPB equations
  A_corr:   -0.278824186502941     
 End minimization
 Ecorr=   1648.78864825254     
 A_corr= -0.278824186502941     
 Ecorr_band=  -1649.06747243904     
 End Solvation calculations
RMM:  19    -0.135673937710E+03   -0.15892E-02   -0.81154E-04 12621   0.780E-02    0.169E-01
 Begin Solvation calculations
  rms_SCF =   0.206908547078900      tol =   2.069085470789003E-002
 Begin minimization
 Creating dielectric and ionic cavities
  area:      133.580816885576     
  volume:    642.306355688715     
  Acav:     7.012992886492736E-002
  Solving linear dielectric/ionic screening model
        iter                  A_solv                     rms
   LPB:       -0.371691603477686E+00   0.146411951681661E+01
   LPB:    0  -0.371024825225294E+00   0.125566392456199E+01  -0.680731E-02   0.000000E+00   0.287780E+02  -0.195901E+00
   LPB:    1  -0.359861518922495E+00   0.282307817481550E+00   0.145959E-01   0.000000E+00   0.570525E+02   0.395675E-17
   LPB:    2  -0.358564447764779E+00   0.116604207071141E+00   0.135166E-01   0.125468E+00   0.201649E+03  -0.113487E-14
   LPB:    3  -0.358314702449566E+00   0.676532699040044E-01   0.174572E-01   0.149083E+00   0.111065E+03  -0.873709E-15
   LPB:    4  -0.358226700736251E+00   0.516502784318762E-01   0.190737E-01   0.322504E+00   0.124146E+03  -0.765241E-15
   LPB:    5  -0.358165522974078E+00   0.282275743218891E-01   0.274313E-01   0.483382E+00   0.101733E+03  -0.764122E-15
   LPB:    6  -0.358101636256561E+00   0.129277747312027E-01   0.406380E-01   0.704906E+00   0.802835E+02  -0.541303E-15
  Finished solving LPB equations
  A_corr:   -0.287971707391634     
 End minimization
 Ecorr=   1644.50513344029     
 A_corr= -0.287971707391634     
 Ecorr_band=  -1644.79310514768     
 End Solvation calculations
RMM:  20    -0.135674638498E+03   -0.70079E-03   -0.78582E-04 12260   0.500E-02    0.101E-01
 Begin Solvation calculations
  rms_SCF =   0.206908547078900      tol =   2.069085470789003E-002
 Begin minimization
 Creating dielectric and ionic cavities
  area:      133.909316580714     
  volume:    642.318526050061     
  Acav:     7.030239120487496E-002
  Solving linear dielectric/ionic screening model
        iter                  A_solv                     rms
   LPB:       -0.389744172596056E+00   0.198291698868844E+01
   LPB:    0  -0.388479921273148E+00   0.173196898114192E+01  -0.937359E-02   0.000000E+00   0.287774E+02  -0.269748E+00
   LPB:    1  -0.370958486415234E+00   0.359965813195030E+00   0.139609E-01   0.000000E+00   0.536519E+02   0.193104E-16
   LPB:    2  -0.368970342328035E+00   0.154671973928700E+00   0.130126E-01   0.121738E+00   0.221864E+03   0.164771E-14
   LPB:    3  -0.368584452791406E+00   0.735450815694938E-01   0.166113E-01   0.152047E+00   0.112528E+03   0.199824E-14
   LPB:    4  -0.368431147044032E+00   0.669302989342558E-01   0.223449E-01   0.295338E+00   0.102965E+03   0.225505E-14
   LPB:    5  -0.368324603005317E+00   0.386052929433725E-01   0.273946E-01   0.566871E+00   0.920765E+02   0.276391E-14
   LPB:    6  -0.368231009729145E+00   0.147091102741733E-01   0.353806E-01   0.680166E+00   0.880528E+02   0.323468E-14
  Finished solving LPB equations
  A_corr:   -0.297928618524270     
 End minimization
 Ecorr=   1640.06693424239     
 A_corr= -0.297928618524270     
 Ecorr_band=  -1640.36486286092     
 End Solvation calculations
RMM:  21    -0.135675811256E+03   -0.11728E-02   -0.84770E-04 12158   0.548E-02    0.122E-01
 Begin Solvation calculations
  rms_SCF =   0.193098348236713      tol =   1.930983482367126E-002
 Begin minimization
 Creating dielectric and ionic cavities
  area:      134.048946227515     
  volume:    642.418209842347     
  Acav:     7.037569676944551E-002
  Solving linear dielectric/ionic screening model
        iter                  A_solv                     rms
   LPB:       -0.382311298448833E+00   0.131939568096094E+01
   LPB:    0  -0.381828344302651E+00   0.118481915758886E+01  -0.579398E-02   0.000000E+00   0.287727E+02  -0.166709E+00
   LPB:    1  -0.374913938694062E+00   0.237232182380035E+00   0.131474E-01   0.000000E+00   0.524764E+02   0.671462E-17
   LPB:    2  -0.374124650836956E+00   0.945488102369093E-01   0.125405E-01   0.119676E+00   0.222918E+03  -0.912828E-16
   LPB:    3  -0.373971297479524E+00   0.393265588435423E-01   0.167870E-01   0.145144E+00   0.117056E+03  -0.181082E-15
   LPB:    4  -0.373903723359312E+00   0.463294618159064E-01   0.273559E-01   0.270401E+00   0.806207E+02  -0.172190E-15
   LPB:    5  -0.373836250381129E+00   0.354917066476715E-01   0.329183E-01   0.829781E+00   0.770103E+02  -0.290634E-15
   LPB:    6  -0.373762272932509E+00   0.144297015685582E-01   0.367684E-01   0.981594E+00   0.598663E+02  -0.478613E-15
  Finished solving LPB equations
  A_corr:   -0.303386576163063     
 End minimization
 Ecorr=   1637.14184345348     
 A_corr= -0.303386576163063     
 Ecorr_band=  -1637.44523002964     
 End Solvation calculations
RMM:  22    -0.135676301035E+03   -0.48978E-03   -0.30917E-04 12181   0.496E-02    0.107E-01
 Begin Solvation calculations
  rms_SCF =   0.182588719004605      tol =   1.825887190046048E-002
 Begin minimization
 Creating dielectric and ionic cavities
  area:      134.111391378182     
  volume:    642.490786721362     
  Acav:     7.040848047354543E-002
  Solving linear dielectric/ionic screening model
        iter                  A_solv                     rms
   LPB:       -0.383975432887083E+00   0.123839637168224E+01
   LPB:    0  -0.383645036052820E+00   0.114914957932293E+01  -0.479257E-02   0.000000E+00   0.287693E+02  -0.137879E+00
   LPB:    1  -0.378517740477385E+00   0.214223364271425E+00   0.118551E-01   0.000000E+00   0.524847E+02   0.278913E-17
   LPB:    2  -0.377892138416328E+00   0.652778218297553E-01   0.122629E-01   0.117956E+00   0.208297E+03  -0.131912E-15
   LPB:    3  -0.377793983452473E+00   0.243998910241745E-01   0.170783E-01   0.112658E+00   0.141345E+03  -0.127041E-15
   LPB:    4  -0.377763527595779E+00   0.286369940676861E-01   0.268500E-01   0.197360E+00   0.822661E+02  -0.144848E-15
   LPB:    5  -0.377734243667443E+00   0.255320901956299E-01   0.338907E-01   0.761767E+00   0.816223E+02  -0.128369E-15
   LPB:    6  -0.377695498359506E+00   0.124956826687065E-01   0.400663E-01   0.111916E+01   0.492547E+02   0.886832E-16
  Finished solving LPB equations
  A_corr:   -0.307287017885960     
 End minimization
 Ecorr=   1635.24005903247     
 A_corr= -0.307287017885960     
 Ecorr_band=  -1635.54734605035     
 End Solvation calculations
RMM:  23    -0.135676390419E+03   -0.89384E-04   -0.22549E-04 12019   0.309E-02    0.520E-02
 Begin Solvation calculations
  rms_SCF =   7.680303798586592E-002 tol =   7.680303798586592E-003
 Begin minimization
 Creating dielectric and ionic cavities
  area:      134.139919480147     
  volume:    642.541316265625     
  Acav:     7.042345772707712E-002
  Solving linear dielectric/ionic screening model
        iter                  A_solv                     rms
   LPB:       -0.383551577104378E+00   0.905180032443010E+00
   LPB:    0  -0.383367971616668E+00   0.840865394022405E+00  -0.357282E-02   0.000000E+00   0.287670E+02  -0.102779E+00
   LPB:    1  -0.380706721964340E+00   0.149695077079607E+00   0.115628E-01   0.000000E+00   0.537141E+02  -0.210102E-17
   LPB:    2  -0.380398398891307E+00   0.452293505500033E-01   0.121592E-01   0.110174E+00   0.208793E+03   0.663815E-15
   LPB:    3  -0.380352014801761E+00   0.159996604140166E-01   0.170739E-01   0.107135E+00   0.137439E+03   0.740758E-15
   LPB:    4  -0.380338021471740E+00   0.196180179927818E-01   0.278047E-01   0.185254E+00   0.786822E+02   0.759466E-15
   LPB:    5  -0.380323184551201E+00   0.186752925718779E-01   0.357759E-01   0.824045E+00   0.780997E+02   0.695092E-15
   LPB:    6  -0.380302619435189E+00   0.958920857651995E-02   0.401732E-01   0.123436E+01   0.449409E+02   0.451427E-15
   LPB:    7  -0.380285446619804E+00   0.447215463644161E-02   0.354473E-01   0.946374E+00   0.920115E+02   0.470382E-16
  Finished solving LPB equations
  A_corr:   -0.309861988892727     
 End minimization
 Ecorr=   1633.83547602281     
 A_corr= -0.309861988892727     
 Ecorr_band=  -1634.14533801171     
 End Solvation calculations
RMM:  24    -0.135676464114E+03   -0.73695E-04   -0.75046E-05  9555   0.217E-02    0.358E-02
 Begin Solvation calculations
  rms_SCF =   5.240180111374181E-002 tol =   5.240180111374180E-003
 Begin minimization
 Creating dielectric and ionic cavities
  area:      134.131179831153     
  volume:    642.547729337807     
  Acav:     7.041886941135508E-002
  Solving linear dielectric/ionic screening model
        iter                  A_solv                     rms
   LPB:       -0.382198935015754E+00   0.526364874758752E+00
   LPB:    0  -0.382152653038163E+00   0.499167703912794E+00  -0.179381E-02   0.000000E+00   0.287667E+02  -0.516019E-01
   LPB:    1  -0.381354145515926E+00   0.721818653300016E-01   0.103727E-01   0.000000E+00   0.575039E+02   0.112828E-18
   LPB:    2  -0.381272443697526E+00   0.185264642957925E-01   0.122224E-01   0.868336E-01   0.206535E+03  -0.304397E-16
   LPB:    3  -0.381261868367498E+00   0.696825971470946E-02   0.181979E-01   0.869354E-01   0.152627E+03  -0.536405E-16
   LPB:    4  -0.381259760513142E+00   0.666508925456699E-02   0.232612E-01   0.155932E+00   0.987670E+02  -0.588912E-16
   LPB:    5  -0.381257660105110E+00   0.744875094025761E-02   0.382877E-01   0.605392E+00   0.159013E+03  -0.282906E-16
   LPB:    6  -0.381252851554404E+00   0.525030781499624E-02   0.560770E-01   0.156309E+01   0.617488E+02   0.294280E-16
   LPB:    7  -0.381246654764152E+00   0.254806089190389E-02   0.408669E-01   0.176834E+01   0.690137E+02   0.216139E-15
  Finished solving LPB equations
  A_corr:   -0.310827785352797     
 End minimization
 Ecorr=   1633.21298020501     
 A_corr= -0.310827785352797     
 Ecorr_band=  -1633.52380799036     
 End Solvation calculations
RMM:  25    -0.135676497911E+03   -0.33797E-04   -0.36696E-05  7614   0.189E-02    0.169E-02
 Begin Solvation calculations
  rms_SCF =   3.249281196556739E-002 tol =   3.249281196556739E-003
 Begin minimization
 Creating dielectric and ionic cavities
  area:      134.108803862620     
  volume:    642.555965981970     
  Acav:     7.040712202787533E-002
  Solving linear dielectric/ionic screening model
        iter                  A_solv                     rms
   LPB:       -0.381974225470140E+00   0.371394175875590E+00
   LPB:    0  -0.381956708367912E+00   0.357773755599006E+00  -0.110358E-02   0.000000E+00   0.287663E+02  -0.317459E-01
   LPB:    1  -0.381560791973211E+00   0.438091317630548E-01   0.973680E-02   0.000000E+00   0.636751E+02  -0.227136E-17
   LPB:    2  -0.381529626833632E+00   0.103082798910285E-01   0.117992E-01   0.649574E-01   0.230807E+03   0.396804E-16
   LPB:    3  -0.381526490417284E+00   0.342836527644945E-02   0.190309E-01   0.623961E-01   0.134018E+03   0.440917E-16
   LPB:    4  -0.381525857087834E+00   0.350253262030953E-02   0.246131E-01   0.156131E+00   0.958526E+02   0.450624E-16
   LPB:    5  -0.381525298508491E+00   0.355416655529461E-02   0.351886E-01   0.616907E+00   0.173225E+03   0.359437E-16
   LPB:    6  -0.381524702517647E+00   0.171209909345346E-02   0.324942E-01   0.115545E+01   0.107644E+03   0.577703E-17
  Finished solving LPB equations
  A_corr:   -0.311117580489772     
 End minimization
 Ecorr=   1633.02250220757     
 A_corr= -0.311117580489772     
 Ecorr_band=  -1633.33361978806     
 End Solvation calculations
RMM:  26    -0.135676537632E+03   -0.39721E-04   -0.32011E-05  7449   0.199E-02    0.143E-02
 Begin Solvation calculations
  rms_SCF =   5.483728536478312E-003 tol =   5.483728536478311E-004
 Begin minimization
 Creating dielectric and ionic cavities
  area:      134.098431211939     
  volume:    642.557290156939     
  Acav:     7.040167638626789E-002
  Solving linear dielectric/ionic screening model
        iter                  A_solv                     rms
   LPB:       -0.381545334787010E+00   0.149607299419774E+00
   LPB:    0  -0.381541919551138E+00   0.142575666704911E+00  -0.487286E-03   0.000000E+00   0.287662E+02  -0.140174E-01
   LPB:    1  -0.381466934533697E+00   0.181701979509165E-01   0.955543E-02   0.000000E+00   0.777929E+02   0.707936E-18
   LPB:    2  -0.381462612205316E+00   0.219347213694623E-02   0.109924E-01   0.501071E-01   0.285104E+03  -0.324792E-16
   LPB:    3  -0.381462095109633E+00   0.221751275395482E-02   0.249989E-01   0.526050E-01   0.378492E+03  -0.539997E-16
   LPB:    4  -0.381461740826959E+00   0.332193546186106E-02   0.387288E-01   0.442247E+00   0.859546E+02  -0.565396E-16
   LPB:    5  -0.381461340553748E+00   0.302657991493783E-02   0.344384E-01   0.127057E+01   0.171711E+03  -0.645254E-16
   LPB:    6  -0.381460857260695E+00   0.187417480398043E-02   0.378418E-01   0.109882E+01   0.210586E+03  -0.829657E-16
   LPB:    7  -0.381460107495126E+00   0.123431976995864E-02   0.525151E-01   0.111790E+01   0.463492E+03  -0.806350E-16
   LPB:    8  -0.381459125196553E+00   0.116647307582534E-02   0.516342E-01   0.133249E+01   0.290242E+03  -0.101071E-15
   LPB:    9  -0.381458288453239E+00   0.982178808065856E-03   0.409670E-01   0.107362E+01   0.459709E+03  -0.127689E-15
   LPB:   10  -0.381457690477751E+00   0.921704445832484E-03   0.393832E-01   0.743386E+00   0.411137E+03  -0.162545E-15
   LPB:   11  -0.381457196783488E+00   0.650682817998839E-03   0.437484E-01   0.743229E+00   0.462484E+03  -0.170808E-15
   LPB:   12  -0.381456729177150E+00   0.687194308227486E-03   0.462117E-01   0.896670E+00   0.660903E+03  -0.179274E-15
   LPB:   13  -0.381456271937647E+00   0.744185219783838E-03   0.455991E-01   0.990967E+00   0.776536E+03  -0.188096E-15
   LPB:   14  -0.381455826116628E+00   0.768620470964825E-03   0.442921E-01   0.100380E+01   0.885518E+03  -0.201243E-15
   LPB:   15  -0.381455443311961E+00   0.663353605336978E-03   0.409121E-01   0.929591E+00   0.155043E+04  -0.215324E-15
   LPB:   16  -0.381455118782136E+00   0.598988084742340E-03   0.415957E-01   0.833835E+00   0.210769E+04  -0.226852E-15
   LPB:   17  -0.381454870922817E+00   0.511593649273499E-03   0.402778E-01   0.788740E+00   0.136607E+04  -0.236577E-15
  Finished solving LPB equations
  A_corr:   -0.311053194536549     
 End minimization
 Ecorr=   1632.85003226481     
 A_corr= -0.311053194536549     
 Ecorr_band=  -1633.16108545935     
 End Solvation calculations
RMM:  27    -0.135676553794E+03   -0.16162E-04   -0.12991E-05  7100   0.135E-02    0.673E-03
 Begin Solvation calculations
  rms_SCF =   4.332680237650938E-003 tol =   4.332680237650938E-004
 Begin minimization
 Creating dielectric and ionic cavities
  area:      134.101687033289     
  volume:    642.539926231042     
  Acav:     7.040338569247685E-002
  Solving linear dielectric/ionic screening model
        iter                  A_solv                     rms
   LPB:       -0.381579462071176E+00   0.751734895240128E-01
   LPB:    0  -0.381578252163632E+00   0.680754406753817E-01  -0.290030E-03   0.000000E+00   0.287670E+02  -0.834331E-02
   LPB:    1  -0.381560588568813E+00   0.943599315880359E-02   0.925562E-02   0.000000E+00   0.787682E+02   0.117301E-18
   LPB:    2  -0.381559653125655E+00   0.131754907040494E-02   0.115989E-01   0.422596E-01   0.152926E+03   0.183900E-16
   LPB:    3  -0.381559433793428E+00   0.176111470562868E-02   0.290063E-01   0.937587E-01   0.288255E+03   0.233533E-16
   LPB:    4  -0.381559303323436E+00   0.205112163110223E-02   0.279159E-01   0.618086E+00   0.696185E+02   0.242770E-16
   LPB:    5  -0.381559165154207E+00   0.108935598244842E-02   0.328877E-01   0.898915E+00   0.151819E+03   0.312503E-16
   LPB:    6  -0.381559030635243E+00   0.617491732083038E-03   0.426837E-01   0.750142E+00   0.176936E+03   0.661870E-16
   LPB:    7  -0.381558916062683E+00   0.418413448243068E-03   0.417699E-01   0.870352E+00   0.354016E+03   0.895668E-16
  Finished solving LPB equations
  A_corr:   -0.311155530370206     
 End minimization
 Ecorr=   1632.69882295095     
 A_corr= -0.311155530370206     
 Ecorr_band=  -1633.00997848132     
 End Solvation calculations
RMM:  28    -0.135676570048E+03   -0.16255E-04   -0.58281E-06  6990   0.890E-03    0.399E-03
 Begin Solvation calculations
  rms_SCF =   4.332680237650938E-003 tol =   4.332680237650938E-004
 Begin minimization
 Creating dielectric and ionic cavities
  area:      134.105429826617     
  volume:    642.522936401035     
  Acav:     7.040535065897391E-002
  Solving linear dielectric/ionic screening model
        iter                  A_solv                     rms
   LPB:       -0.381627567495285E+00   0.526972408778245E-01
   LPB:    0  -0.381626827521770E+00   0.458443149724250E-01  -0.226814E-03   0.000000E+00   0.287678E+02  -0.652494E-02
   LPB:    1  -0.381616333495385E+00   0.103479138120590E-01   0.935251E-02   0.000000E+00   0.940110E+02   0.299398E-18
   LPB:    2  -0.381615599002808E+00   0.190066737035145E-02   0.128393E-01   0.509838E-01   0.931573E+02   0.163673E-15
   LPB:    3  -0.381615417870548E+00   0.115118613635379E-02   0.225137E-01   0.140638E+00   0.177479E+03   0.186643E-15
   LPB:    4  -0.381615366156859E+00   0.913343228256009E-03   0.214548E-01   0.299594E+00   0.135846E+03   0.195258E-15
   LPB:    5  -0.381615320887223E+00   0.798448839502362E-03   0.334342E-01   0.561740E+00   0.292475E+03   0.192976E-15
   LPB:    6  -0.381615258784857E+00   0.631223712879980E-03   0.507046E-01   0.904574E+00   0.818745E+02   0.193893E-15
   LPB:    7  -0.381615177935188E+00   0.415856054224213E-03   0.527503E-01   0.125139E+01   0.155730E+03   0.193863E-15
  Finished solving LPB equations
  A_corr:   -0.311209827276214     
 End minimization
 Ecorr=   1632.58286157889     
 A_corr= -0.311209827276214     
 Ecorr_band=  -1632.89407140617     
 End Solvation calculations
RMM:  29    -0.135676586558E+03   -0.16510E-04   -0.37989E-06  6980   0.707E-03    0.582E-03
 Begin Solvation calculations
  rms_SCF =   4.332680237650938E-003 tol =   4.332680237650938E-004
 Begin minimization
 Creating dielectric and ionic cavities
  area:      134.110707165770     
  volume:    642.514353475116     
  Acav:     7.040812126202908E-002
  Solving linear dielectric/ionic screening model
        iter                  A_solv                     rms
   LPB:       -0.381901755270187E+00   0.120198348472396E+00
   LPB:    0  -0.381898638938835E+00   0.109916213793557E+00  -0.465458E-03   0.000000E+00   0.287682E+02  -0.133904E-01
   LPB:    1  -0.381865468658287E+00   0.120146277971782E-01   0.898397E-02   0.000000E+00   0.623323E+02  -0.776745E-18
   LPB:    2  -0.381863316015879E+00   0.329877610533898E-02   0.131198E-01   0.444391E-01   0.111231E+03  -0.592429E-16
   LPB:    3  -0.381863067234217E+00   0.157216156626954E-02   0.170384E-01   0.889905E-01   0.128100E+03  -0.690816E-16
   LPB:    4  -0.381863007501209E+00   0.988488039705277E-03   0.220338E-01   0.185667E+00   0.654759E+02  -0.702174E-16
   LPB:    5  -0.381862964308777E+00   0.418459293015120E-03   0.290745E-01   0.547987E+00   0.290693E+03  -0.587708E-16
  Finished solving LPB equations
  A_corr:   -0.311454843046748     
 End minimization
 Ecorr=   1632.42361212129     
 A_corr= -0.311454843046748     
 Ecorr_band=  -1632.73506696434     
 End Solvation calculations
RMM:  30    -0.135676590993E+03   -0.44349E-05   -0.25617E-06  6934   0.523E-03
 Begin Solvation calculations
  rms_SCF =   4.332680237650938E-003 tol =   4.332680237650938E-004
 Begin minimization
 Creating dielectric and ionic cavities
  area:      134.113816511072     
  volume:    642.501201656829     
  Acav:     7.040975366831298E-002
  Solving linear dielectric/ionic screening model
        iter                  A_solv                     rms
   LPB:       -0.381822495208196E+00   0.256289725998691E-01
   LPB:    0  -0.381822430268294E+00   0.236185184802240E-01  -0.671908E-04   0.000000E+00   0.287688E+02  -0.193300E-02
   LPB:    1  -0.381813969299128E+00   0.156312817379211E-01   0.124446E-01   0.000000E+00   0.159161E+03  -0.152861E-18
   LPB:    2  -0.381813025066922E+00   0.305382033512626E-02   0.122514E-01   0.113359E+00   0.480999E+02   0.283433E-16
   LPB:    3  -0.381812800424126E+00   0.163937375977226E-02   0.194210E-01   0.150081E+00   0.162843E+03   0.320809E-17
   LPB:    4  -0.381812735038990E+00   0.951367254076239E-03   0.219247E-01   0.257824E+00   0.107802E+03   0.400840E-17
   LPB:    5  -0.381812694427874E+00   0.546109061802866E-03   0.261166E-01   0.521415E+00   0.305588E+03  -0.694836E-17
   LPB:    6  -0.381812657680261E+00   0.342959616143534E-03   0.398183E-01   0.593496E+00   0.140091E+03  -0.115345E-16
  Finished solving LPB equations
  A_corr:   -0.311402904011948     
 End minimization
 Ecorr=   1632.35286160016     
 A_corr= -0.311402904011948     
 Ecorr_band=  -1632.66426450417     
 End Solvation calculations
   1 F= -.13567659E+03 E0= -.13567417E+03  d E =-.135677E+03
quench:  g(F)=  0.000E+00 g(S)=  0.000E+00 dE (1.order)= 0.000E+00
 bond charge predicted
       N       E                     dE             d eps       ncg     rms          rms(c)
 Begin Solvation calculations
  rms_SCF =   4.332680237650938E-003 tol =   4.332680237650938E-004
 Begin minimization
 Creating dielectric and ionic cavities
  area:      134.309621622182     
  volume:    642.466624220013     
  Acav:     7.051255135164555E-002
  Solving linear dielectric/ionic screening model
        iter                  A_solv                     rms
   LPB:       -0.389507850280525E+00   0.834878056242047E-02
   LPB:    0  -0.389507850003991E+00   0.841508271968756E-02  -0.438445E-05   0.000000E+00   0.287705E+02  -0.126143E-03
   LPB:    1  -0.384050870398414E+00   0.446568626306051E-02   0.163678E-01   0.000000E+00   0.537767E+06  -0.283794E-21
   LPB:    2  -0.383330754847101E+00   0.581800669578768E-02   0.278255E-01   0.776240E-01   0.823421E+05   0.387179E-17
   LPB:    3  -0.383099302532772E+00   0.122992269882976E-01   0.322762E-01   0.277090E+00   0.160974E+05  -0.277026E-16
   LPB:    4  -0.383006092737411E+00   0.336803561802491E-01   0.334504E-01   0.388580E+00   0.148118E+04  -0.346132E-16
   LPB:    5  -0.382971014309492E+00   0.461173164069492E-01   0.228831E-01   0.550131E+00   0.166586E+03  -0.489336E-16
   LPB:    6  -0.382945621979082E+00   0.137963471512609E-01   0.200239E-01   0.827232E+00   0.235252E+03  -0.358952E-16
   LPB:    7  -0.382926989242332E+00   0.823402794240216E-02   0.350829E-01   0.418821E+00   0.140133E+04  -0.600042E-16
   LPB:    8  -0.382916475758992E+00   0.142997306254540E-01   0.343713E-01   0.575930E+00   0.265224E+03  -0.737279E-16
   LPB:    9  -0.382910430281191E+00   0.110561548736573E-01   0.247117E-01   0.799792E+00   0.165535E+03  -0.675893E-16
   LPB:   10  -0.382905330500024E+00   0.352432872244041E-02   0.306748E-01   0.679583E+00   0.278731E+03  -0.780101E-16
   LPB:   11  -0.382901641924123E+00   0.141615458656768E-02   0.394982E-01   0.561709E+00   0.348681E+04   0.503608E-16
   LPB:   12  -0.382899267449848E+00   0.137409453668581E-02   0.394333E-01   0.644797E+00   0.227745E+04   0.139788E-15
   LPB:   13  -0.382897737206396E+00   0.161647101871130E-02   0.383805E-01   0.662135E+00   0.159312E+04   0.189493E-15
   LPB:   14  -0.382896712196724E+00   0.142437983454539E-02   0.359450E-01   0.715219E+00   0.147151E+04   0.221294E-15
   LPB:   15  -0.382895979459601E+00   0.962998305310599E-03   0.372097E-01   0.690562E+00   0.129603E+04   0.242194E-15
   LPB:   16  -0.382895364939566E+00   0.555746349993885E-03   0.415222E-01   0.751560E+00   0.247380E+04   0.257745E-15
   LPB:   17  -0.382894916680390E+00   0.432565983038174E-03   0.423006E-01   0.716024E+00   0.317623E+04   0.270548E-15
  Finished solving LPB equations
  A_corr:   -0.312382365328745     
 End minimization
 Ecorr=   1632.17705547013     
 A_corr= -0.312382365328745     
 Ecorr_band=  -1632.48943783546     
 End Solvation calculations
DAV:   1    -0.135680814271E+03   -0.42277E-02   -0.60531E-01 12753   0.133E+00    0.214E-01
 Begin Solvation calculations
  rms_SCF =   4.332680237650938E-003 tol =   4.332680237650938E-004
 Begin minimization
 Creating dielectric and ionic cavities
  area:      134.169898109736     
  volume:    642.350056908593     
  Acav:     7.043919650761166E-002
  Solving linear dielectric/ionic screening model
        iter                  A_solv                     rms
   LPB:       -0.386320330724067E+00   0.442062145016399E+00
   LPB:    0  -0.386146577751359E+00   0.338028806325801E+00  -0.347509E-02   0.000000E+00   0.287759E+02  -0.999990E-01
   LPB:    1  -0.385431132254064E+00   0.113166593153716E+00   0.118494E-01   0.000000E+00   0.809593E+02   0.388242E-17
   LPB:    2  -0.385320431155770E+00   0.188800245299368E-01   0.130822E-01   0.140149E+00   0.170321E+03  -0.281453E-15
   LPB:    3  -0.385288630477806E+00   0.153280400893947E-01   0.237544E-01   0.158205E+00   0.446788E+03  -0.299580E-15
   LPB:    4  -0.385278564786646E+00   0.144670462596032E-01   0.226012E-01   0.332675E+00   0.129937E+03  -0.308477E-15
   LPB:    5  -0.385273121266093E+00   0.717845016161176E-02   0.234642E-01   0.520909E+00   0.212761E+03  -0.337591E-15
   LPB:    6  -0.385270017265817E+00   0.282125022645505E-02   0.315748E-01   0.423748E+00   0.207967E+03  -0.299958E-15
   LPB:    7  -0.385268324334353E+00   0.161500435182168E-02   0.331943E-01   0.518793E+00   0.864304E+03  -0.337793E-15
   LPB:    8  -0.385267299369287E+00   0.104340729368434E-02   0.343140E-01   0.585682E+00   0.631379E+03  -0.331240E-15
   LPB:    9  -0.385266642586686E+00   0.763587046943005E-03   0.365728E-01   0.601210E+00   0.821142E+03  -0.335048E-15
   LPB:   10  -0.385266205713787E+00   0.576263748124052E-03   0.383737E-01   0.633955E+00   0.990672E+03  -0.337469E-15
   LPB:   11  -0.385265905384271E+00   0.438504959289936E-03   0.395195E-01   0.667521E+00   0.854938E+03  -0.339215E-15
   LPB:   12  -0.385265689376142E+00   0.362149635906270E-03   0.401352E-01   0.708204E+00   0.142087E+04  -0.339680E-15
  Finished solving LPB equations
  A_corr:   -0.314826492868531     
 End minimization
 Ecorr=   1631.85964242770     
 A_corr= -0.314826492868531     
 Ecorr_band=  -1632.17446892056     
 End Solvation calculations
RMM:   2    -0.135684422295E+03   -0.36080E-02   -0.43399E-02 17113   0.409E-01    0.194E-01
 Begin Solvation calculations
  rms_SCF =   4.332680237650938E-003 tol =   4.332680237650938E-004
 Begin minimization
 Creating dielectric and ionic cavities
  area:      134.160945380067     
  volume:    642.355996996712     
  Acav:     7.043449632453508E-002
  Solving linear dielectric/ionic screening model
        iter                  A_solv                     rms
   LPB:       -0.386343710567230E+00   0.141143361780699E+00
   LPB:    0  -0.386331146213748E+00   0.117399363043841E+00  -0.934485E-03   0.000000E+00   0.287757E+02  -0.268904E-01
   LPB:    1  -0.386255684821341E+00   0.379659801207864E-01   0.117382E-01   0.000000E+00   0.738694E+02   0.115621E-17
   LPB:    2  -0.386238166941659E+00   0.708766513267583E-02   0.142319E-01   0.191468E+00   0.158911E+03   0.528442E-16
   LPB:    3  -0.386234959888617E+00   0.390140786597112E-02   0.251471E-01   0.103610E+00   0.203417E+03   0.633209E-16
   LPB:    4  -0.386233938519472E+00   0.360076574050102E-02   0.258978E-01   0.309244E+00   0.183232E+03   0.658129E-16
   LPB:    5  -0.386233484653220E+00   0.283110562919260E-02   0.230244E-01   0.499827E+00   0.236290E+03   0.634816E-16
   LPB:    6  -0.386233194332879E+00   0.116272533263934E-02   0.277328E-01   0.531061E+00   0.114834E+03   0.694328E-16
   LPB:    7  -0.386233003896695E+00   0.810287326723295E-03   0.364600E-01   0.498940E+00   0.541387E+03   0.883029E-16
   LPB:    8  -0.386232852699498E+00   0.736203270131326E-03   0.408949E-01   0.707852E+00   0.215094E+03   0.799987E-16
   LPB:    9  -0.386232721183533E+00   0.610594021532143E-03   0.411333E-01   0.864788E+00   0.378302E+03   0.662017E-16
   LPB:   10  -0.386232608975019E+00   0.406037842381846E-03   0.413968E-01   0.847763E+00   0.372191E+03   0.617403E-16
  Finished solving LPB equations
  A_corr:   -0.315798112650484     
 End minimization
 Ecorr=   1631.62689546352     
 A_corr= -0.315798112650484     
 Ecorr_band=  -1631.94269357617     
 End Solvation calculations
RMM:   3    -0.135683952343E+03    0.46995E-03   -0.29049E-03 17521   0.112E-01    0.301E-01
 Begin Solvation calculations
  rms_SCF =   4.332680237650938E-003 tol =   4.332680237650938E-004
 Begin minimization
 Creating dielectric and ionic cavities
  area:      134.164960635153     
  volume:    642.360167992351     
  Acav:     7.043660433345549E-002
  Solving linear dielectric/ionic screening model
        iter                  A_solv                     rms
   LPB:       -0.386626367835016E+00   0.149626285836835E+00
   LPB:    0  -0.386623413099400E+00   0.144518432482319E+00  -0.453172E-03   0.000000E+00   0.287755E+02  -0.130402E-01
   LPB:    1  -0.386564761346683E+00   0.149422546618177E-01   0.910795E-02   0.000000E+00   0.668641E+02  -0.423299E-18
   LPB:    2  -0.386559271004780E+00   0.217324547530968E-02   0.139782E-01   0.609941E-01   0.206487E+03   0.830259E-16
   LPB:    3  -0.386558454600111E+00   0.206765316084528E-02   0.249201E-01   0.834080E-01   0.573554E+03   0.910260E-16
   LPB:    4  -0.386558218637982E+00   0.173734626614365E-02   0.239576E-01   0.300638E+00   0.129876E+03   0.937647E-16
   LPB:    5  -0.386558104953247E+00   0.125288121384669E-02   0.239434E-01   0.482077E+00   0.300501E+03   0.106875E-15
   LPB:    6  -0.386558033135909E+00   0.669020605433669E-03   0.293798E-01   0.514831E+00   0.122615E+03   0.112330E-15
   LPB:    7  -0.386557970812952E+00   0.403499715223095E-03   0.382875E-01   0.665901E+00   0.448668E+03   0.111336E-15
  Finished solving LPB equations
  A_corr:   -0.316121366479496     
 End minimization
 Ecorr=   1631.53984336003     
 A_corr= -0.316121366479496     
 Ecorr_band=  -1631.85596472651     
 End Solvation calculations
RMM:   4    -0.135683514716E+03    0.43763E-03   -0.10564E-03 14431   0.721E-02    0.148E-01
 Begin Solvation calculations
  rms_SCF =   4.332680237650938E-003 tol =   4.332680237650938E-004
 Begin minimization
 Creating dielectric and ionic cavities
  area:      134.118255830415     
  volume:    642.356199745599     
  Acav:     7.041208431096785E-002
  Solving linear dielectric/ionic screening model
        iter                  A_solv                     rms
   LPB:       -0.390800371726099E+00   0.445384425551937E+00
   LPB:    0  -0.390619063308134E+00   0.329637271195159E+00  -0.354986E-02   0.000000E+00   0.287756E+02  -0.102150E+00
   LPB:    1  -0.389776111747740E+00   0.135845299507351E+00   0.123953E-01   0.000000E+00   0.885171E+02  -0.528463E-17
   LPB:    2  -0.389656563304228E+00   0.199667304976273E-01   0.124609E-01   0.141074E+00   0.119624E+03  -0.917597E-17
   LPB:    3  -0.389624547910459E+00   0.132784916598677E-01   0.227205E-01   0.146874E+00   0.304167E+03  -0.359785E-16
   LPB:    4  -0.389614916919067E+00   0.130393737506049E-01   0.241083E-01   0.283508E+00   0.124970E+03  -0.403310E-16
   LPB:    5  -0.389610332991654E+00   0.811175034371109E-02   0.223211E-01   0.514063E+00   0.230832E+03  -0.339756E-16
   LPB:    6  -0.389607591255973E+00   0.286826975480338E-02   0.298195E-01   0.447718E+00   0.127154E+03  -0.163234E-16
   LPB:    7  -0.389606081515941E+00   0.163740094042125E-02   0.324330E-01   0.506278E+00   0.583383E+03   0.452021E-16
   LPB:    8  -0.389605172571214E+00   0.943964441517638E-03   0.341239E-01   0.572222E+00   0.328757E+03   0.740219E-16
   LPB:    9  -0.389604599940371E+00   0.725634084684320E-03   0.364701E-01   0.589466E+00   0.424731E+03   0.885681E-16
   LPB:   10  -0.389604229091743E+00   0.554760011463332E-03   0.379151E-01   0.622941E+00   0.419645E+03   0.975587E-16
   LPB:   11  -0.389603983851189E+00   0.404985518405827E-03   0.384780E-01   0.651621E+00   0.388104E+03   0.101684E-15
  Finished solving LPB equations
  A_corr:   -0.319191899540221     
 End minimization
 Ecorr=   1630.77919946685     
 A_corr= -0.319191899540221     
 Ecorr_band=  -1631.09839136639     
 End Solvation calculations
RMM:   5    -0.135683272650E+03    0.24207E-03   -0.43099E-04 13288   0.621E-02    0.534E-02
 Begin Solvation calculations
  rms_SCF =   4.332680237650938E-003 tol =   4.332680237650938E-004
 Begin minimization
 Creating dielectric and ionic cavities
  area:      134.120686612554     
  volume:    642.373670461894     
  Acav:     7.041336047159100E-002
  Solving linear dielectric/ionic screening model
        iter                  A_solv                     rms
   LPB:       -0.391506225134093E+00   0.228005887671286E+00
   LPB:    0  -0.391468844217763E+00   0.179980144401460E+00  -0.161188E-02   0.000000E+00   0.287748E+02  -0.463817E-01
   LPB:    1  -0.391297308724785E+00   0.576445655453588E-01   0.123327E-01   0.000000E+00   0.617655E+02   0.306012E-17
   LPB:    2  -0.391259579862115E+00   0.113811552454831E-01   0.134993E-01   0.200941E+00   0.148039E+03  -0.296655E-15
   LPB:    3  -0.391253172879495E+00   0.808550806234191E-02   0.240176E-01   0.954464E-01   0.184213E+03  -0.364785E-15
   LPB:    4  -0.391251276573439E+00   0.562758496835290E-02   0.223837E-01   0.317581E+00   0.904834E+02  -0.379011E-15
   LPB:    5  -0.391250344556930E+00   0.276787811233762E-02   0.228965E-01   0.480483E+00   0.287268E+03  -0.339659E-15
   LPB:    6  -0.391249817264767E+00   0.899847797849084E-03   0.303346E-01   0.427030E+00   0.143170E+03  -0.303516E-15
   LPB:    7  -0.391249485554299E+00   0.683307665908352E-03   0.370052E-01   0.515683E+00   0.288728E+03  -0.297036E-15
   LPB:    8  -0.391249243347723E+00   0.672587258906694E-03   0.393111E-01   0.687345E+00   0.191232E+03  -0.287473E-15
   LPB:    9  -0.391249060927538E+00   0.606839304125114E-03   0.391711E-01   0.755850E+00   0.174121E+03  -0.286242E-15
   LPB:   10  -0.391248926486036E+00   0.444297093932733E-03   0.389944E-01   0.740328E+00   0.233760E+03  -0.285249E-15
   LPB:   11  -0.391248831028511E+00   0.351513765212019E-03   0.388187E-01   0.713244E+00   0.243184E+03  -0.285146E-15
  Finished solving LPB equations
  A_corr:   -0.320835470556920     
 End minimization
 Ecorr=   1630.28542304426     
 A_corr= -0.320835470556920     
 Ecorr_band=  -1630.60625851482     
 End Solvation calculations
RMM:   6    -0.135683205598E+03    0.67051E-04   -0.23519E-04 12261   0.656E-02    0.427E-02
 Begin Solvation calculations
  rms_SCF =   4.332680237650938E-003 tol =   4.332680237650938E-004
 Begin minimization
 Creating dielectric and ionic cavities
  area:      134.149988024144     
  volume:    642.408232800701     
  Acav:     7.042874371267580E-002
  Solving linear dielectric/ionic screening model
        iter                  A_solv                     rms
   LPB:       -0.392696254398161E+00   0.221900306107864E+00
   LPB:    0  -0.392670668690258E+00   0.187558119437153E+00  -0.133358E-02   0.000000E+00   0.287732E+02  -0.383714E-01
   LPB:    1  -0.392516117298499E+00   0.473414093373701E-01   0.102384E-01   0.000000E+00   0.767851E+02  -0.107359E-18
   LPB:    2  -0.392495719885871E+00   0.645749384066631E-02   0.132613E-01   0.101894E+00   0.114001E+03   0.150875E-15
   LPB:    3  -0.392492324993286E+00   0.468836885420445E-02   0.226232E-01   0.975623E-01   0.214722E+03   0.398958E-15
   LPB:    4  -0.392491386820259E+00   0.375485812672472E-02   0.235880E-01   0.265045E+00   0.825937E+02   0.436478E-15
   LPB:    5  -0.392490952664336E+00   0.251252746220949E-02   0.227468E-01   0.479881E+00   0.302999E+03   0.453812E-15
   LPB:    6  -0.392490702155058E+00   0.845259194398420E-03   0.289057E-01   0.454062E+00   0.873910E+02   0.486448E-15
   LPB:    7  -0.392490539968577E+00   0.550128627218511E-03   0.343419E-01   0.544941E+00   0.192987E+03   0.505909E-15
   LPB:    8  -0.392490409355281E+00   0.345921198883500E-03   0.399561E-01   0.692171E+00   0.120702E+03   0.519739E-15
  Finished solving LPB equations
  A_corr:   -0.322061665642605     
 End minimization
 Ecorr=   1629.84059068818     
 A_corr= -0.322061665642605     
 Ecorr_band=  -1630.16265235383     
 End Solvation calculations
RMM:   7    -0.135683175817E+03    0.29781E-04   -0.68038E-05 10941   0.376E-02    0.183E-02
 Begin Solvation calculations
  rms_SCF =   4.332680237650938E-003 tol =   4.332680237650938E-004
 Begin minimization
 Creating dielectric and ionic cavities
  area:      134.174289045177     
  volume:    642.429103104187     
  Acav:     7.044150174871772E-002
  Solving linear dielectric/ionic screening model
        iter                  A_solv                     rms
   LPB:       -0.393372758397180E+00   0.100949041345935E+00
   LPB:    0  -0.393360657413895E+00   0.585525487913396E-01  -0.917146E-03   0.000000E+00   0.287722E+02  -0.263883E-01
   LPB:    1  -0.393326134858744E+00   0.292794877194180E-01   0.137325E-01   0.000000E+00   0.714666E+02  -0.549131E-18
   LPB:    2  -0.393321858629912E+00   0.513611937909500E-02   0.123888E-01   0.137303E+00   0.710374E+02  -0.293707E-15
   LPB:    3  -0.393320819120758E+00   0.359864756553996E-02   0.191076E-01   0.157612E+00   0.243385E+03  -0.330359E-15
   LPB:    4  -0.393320463813341E+00   0.240833455162701E-02   0.224547E-01   0.290854E+00   0.617484E+02  -0.338310E-15
   LPB:    5  -0.393320256456169E+00   0.173356079479562E-02   0.255862E-01   0.512172E+00   0.248224E+03  -0.317058E-15
   LPB:    6  -0.393320067687199E+00   0.658530804045548E-03   0.375062E-01   0.621033E+00   0.642360E+02  -0.300683E-15
   LPB:    7  -0.393319906002241E+00   0.454710611091595E-03   0.396836E-01   0.809525E+00   0.831288E+02  -0.290391E-15
   LPB:    8  -0.393319785093788E+00   0.310364190045657E-03   0.382578E-01   0.775673E+00   0.105363E+03  -0.281113E-15
  Finished solving LPB equations
  A_corr:   -0.322878283345070     
 End minimization
 Ecorr=   1629.48853620833     
 A_corr= -0.322878283345070     
 Ecorr_band=  -1629.81141449168     
 End Solvation calculations
RMM:   8    -0.135683189647E+03   -0.13830E-04   -0.18438E-05  7036   0.193E-02    0.160E-02
 Begin Solvation calculations
  rms_SCF =   4.332680237650938E-003 tol =   4.332680237650938E-004
 Begin minimization
 Creating dielectric and ionic cavities
  area:      134.236605497708     
  volume:    642.487554923442     
  Acav:     7.047421788629647E-002
  Solving linear dielectric/ionic screening model
        iter                  A_solv                     rms
   LPB:       -0.395741284692768E+00   0.248019116395822E+00
   LPB:    0  -0.395674409313836E+00   0.150333976542654E+00  -0.215617E-02   0.000000E+00   0.287695E+02  -0.620318E-01
   LPB:    1  -0.395457449126625E+00   0.770730151566822E-01   0.134004E-01   0.000000E+00   0.727078E+02  -0.153175E-17
   LPB:    2  -0.395428764845261E+00   0.121281791317455E-01   0.123232E-01   0.143766E+00   0.683611E+02  -0.343803E-15
   LPB:    3  -0.395422366589062E+00   0.857666155458917E-02   0.191412E-01   0.143606E+00   0.247274E+03  -0.416390E-15
   LPB:    4  -0.395420336027818E+00   0.548114708862959E-02   0.222826E-01   0.272620E+00   0.639348E+02  -0.427882E-15
   LPB:    5  -0.395419336031677E+00   0.352008915225632E-02   0.234522E-01   0.467912E+00   0.285055E+03  -0.457064E-15
   LPB:    6  -0.395418647347900E+00   0.115619738581331E-02   0.326396E-01   0.494834E+00   0.811844E+02  -0.499913E-15
   LPB:    7  -0.395418165715744E+00   0.769931938549960E-03   0.369714E-01   0.617412E+00   0.109330E+03  -0.539332E-15
   LPB:    8  -0.395417821017867E+00   0.576463196707786E-03   0.381537E-01   0.693510E+00   0.114159E+03  -0.568497E-15
   LPB:    9  -0.395417578124400E+00   0.398829443844921E-03   0.389763E-01   0.689783E+00   0.115431E+03  -0.590098E-15
  Finished solving LPB equations
  A_corr:   -0.324943360238103     
 End minimization
 Ecorr=   1628.61943041364     
 A_corr= -0.324943360238103     
 Ecorr_band=  -1628.94437377388     
 End Solvation calculations
RMM:   9    -0.135683231612E+03   -0.41965E-04   -0.24420E-05  7443   0.184E-02    0.127E-02
 Begin Solvation calculations
  rms_SCF =   4.332680237650938E-003 tol =   4.332680237650938E-004
 Begin minimization
 Creating dielectric and ionic cavities
  area:      134.270744311674     
  volume:    642.514474155320     
  Acav:     7.049214076362875E-002
  Solving linear dielectric/ionic screening model
        iter                  A_solv                     rms
   LPB:       -0.396736143084762E+00   0.141645138775463E+00
   LPB:    0  -0.396713321725453E+00   0.807439228840865E-01  -0.125959E-02   0.000000E+00   0.287682E+02  -0.362362E-01
   LPB:    1  -0.396644201604178E+00   0.305544009002303E-01   0.152911E-01   0.000000E+00   0.566760E+02   0.216955E-17
   LPB:    2  -0.396637141781405E+00   0.883369038625552E-02   0.137840E-01   0.113306E+00   0.813200E+02  -0.585477E-15
   LPB:    3  -0.396635411218111E+00   0.564528998400002E-02   0.179134E-01   0.188621E+00   0.223335E+03  -0.656245E-15
   LPB:    4  -0.396634745334445E+00   0.372761911993050E-02   0.203936E-01   0.337982E+00   0.654496E+02  -0.688065E-15
   LPB:    5  -0.396634391662972E+00   0.220553803631886E-02   0.226294E-01   0.478655E+00   0.229109E+03  -0.683789E-15
   LPB:    6  -0.396634103129070E+00   0.789005942367113E-03   0.351072E-01   0.525865E+00   0.786333E+02  -0.697529E-15
   LPB:    7  -0.396633838117909E+00   0.526787847794993E-03   0.427584E-01   0.754122E+00   0.754776E+02  -0.712404E-15
   LPB:    8  -0.396633625761205E+00   0.435288154345534E-03   0.402342E-01   0.851585E+00   0.813691E+02  -0.727201E-15
   LPB:    9  -0.396633480555629E+00   0.336479272498091E-03   0.380244E-01   0.723519E+00   0.961112E+02  -0.738100E-15
  Finished solving LPB equations
  A_corr:   -0.326141339792000     
 End minimization
 Ecorr=   1628.06090242795     
 A_corr= -0.326141339792000     
 Ecorr_band=  -1628.38704376774     
 End Solvation calculations
RMM:  10    -0.135683257523E+03   -0.25912E-04   -0.12205E-05  6984   0.123E-02    0.948E-03
 Begin Solvation calculations
  rms_SCF =   4.332680237650938E-003 tol =   4.332680237650938E-004
 Begin minimization
 Creating dielectric and ionic cavities
  area:      134.295291761717     
  volume:    642.526355721952     
  Acav:     7.050502817490117E-002
  Solving linear dielectric/ionic screening model
        iter                  A_solv                     rms
   LPB:       -0.397650943754515E+00   0.119886059605015E+00
   LPB:    0  -0.397636184029913E+00   0.730661836871793E-01  -0.101298E-02   0.000000E+00   0.287677E+02  -0.291411E-01
   LPB:    1  -0.397590731110637E+00   0.185935046068327E-01   0.153124E-01   0.000000E+00   0.475810E+02   0.145087E-17
   LPB:    2  -0.397586057724065E+00   0.563750996099835E-02   0.147871E-01   0.106470E+00   0.122070E+03  -0.844783E-16
   LPB:    3  -0.397585041731358E+00   0.214317505643972E-02   0.206582E-01   0.155614E+00   0.130908E+03  -0.610187E-16
   LPB:    4  -0.397584669023832E+00   0.214421010243126E-02   0.247612E-01   0.306054E+00   0.132670E+03  -0.666781E-16
   LPB:    5  -0.397584517256229E+00   0.299921679108722E-02   0.228297E-01   0.441654E+00   0.151587E+03  -0.701082E-16
   LPB:    6  -0.397584396888396E+00   0.121552583827473E-02   0.225456E-01   0.803103E+00   0.669925E+02  -0.715788E-16
   LPB:    7  -0.397584266338029E+00   0.462765142095701E-03   0.392825E-01   0.622486E+00   0.847897E+02  -0.825761E-16
   LPB:    8  -0.397584154903213E+00   0.287247663127987E-03   0.416912E-01   0.804262E+00   0.706025E+02  -0.939155E-16
  Finished solving LPB equations
  A_corr:   -0.327079126728312     
 End minimization
 Ecorr=   1627.65126265503     
 A_corr= -0.327079126728312     
 Ecorr_band=  -1627.97834178176     
 End Solvation calculations
RMM:  11    -0.135683286583E+03   -0.29060E-04   -0.11253E-05  7015   0.127E-02    0.919E-03
 Begin Solvation calculations
  rms_SCF =   4.332680237650938E-003 tol =   4.332680237650938E-004
 Begin minimization
 Creating dielectric and ionic cavities
  area:      134.329745780428     
  volume:    642.539894987405     
  Acav:     7.052311653472471E-002
  Solving linear dielectric/ionic screening model
        iter                  A_solv                     rms
   LPB:       -0.399095306344003E+00   0.177710031755827E+00
   LPB:    0  -0.399064245116224E+00   0.109777985256220E+00  -0.146952E-02   0.000000E+00   0.287670E+02  -0.422739E-01
   LPB:    1  -0.398966533729955E+00   0.291460938841457E-01   0.148992E-01   0.000000E+00   0.476551E+02  -0.234852E-17
   LPB:    2  -0.398956132247037E+00   0.852954131886226E-02   0.146994E-01   0.107898E+00   0.108180E+03  -0.308617E-15
   LPB:    3  -0.398953999797516E+00   0.492160993407428E-02   0.198621E-01   0.151725E+00   0.152918E+03  -0.273070E-15
   LPB:    4  -0.398953228646483E+00   0.460885652779199E-02   0.220155E-01   0.326255E+00   0.877439E+02  -0.327109E-15
   LPB:    5  -0.398952854055748E+00   0.344973949903960E-02   0.200190E-01   0.534200E+00   0.161719E+03  -0.361004E-15
   LPB:    6  -0.398952521807918E+00   0.105077499366274E-02   0.286531E-01   0.619694E+00   0.773639E+02  -0.370915E-15
   LPB:    7  -0.398952252994727E+00   0.515230081352129E-03   0.392687E-01   0.590354E+00   0.944805E+02  -0.387447E-15
   LPB:    8  -0.398952063042121E+00   0.356172694798689E-03   0.394382E-01   0.703597E+00   0.914345E+02  -0.399935E-15
  Finished solving LPB equations
  A_corr:   -0.328428946507396     
 End minimization
 Ecorr=   1627.04019057812     
 A_corr= -0.328428946507396     
 Ecorr_band=  -1627.36861952463     
 End Solvation calculations
RMM:  12    -0.135683327940E+03   -0.41357E-04   -0.14786E-05  7221   0.113E-02    0.776E-03
 Begin Solvation calculations
  rms_SCF =   4.332680237650938E-003 tol =   4.332680237650938E-004
 Begin minimization
 Creating dielectric and ionic cavities
  area:      134.350372718485     
  volume:    642.546352074868     
  Acav:     7.053394567720461E-002
  Solving linear dielectric/ionic screening model
        iter                  A_solv                     rms
   LPB:       -0.399872008099409E+00   0.115819081010348E+00
   LPB:    0  -0.399860355777136E+00   0.752643599569186E-01  -0.900069E-03   0.000000E+00   0.287667E+02  -0.258921E-01
   LPB:    1  -0.399817690057173E+00   0.184733176602200E-01   0.145056E-01   0.000000E+00   0.477028E+02   0.746500E-18
   LPB:    2  -0.399813121725310E+00   0.551953119452765E-02   0.148584E-01   0.104530E+00   0.111454E+03  -0.153519E-15
   LPB:    3  -0.399812224728121E+00   0.285999096880636E-02   0.200082E-01   0.145813E+00   0.137218E+03  -0.154793E-15
   LPB:    4  -0.399811884269044E+00   0.281911204505972E-02   0.239104E-01   0.317611E+00   0.937249E+02  -0.191242E-15
   LPB:    5  -0.399811708163056E+00   0.290349034420793E-02   0.220346E-01   0.561296E+00   0.139651E+03  -0.207204E-15
   LPB:    6  -0.399811510278143E+00   0.106603371170742E-02   0.294640E-01   0.840332E+00   0.578757E+02  -0.218750E-15
   LPB:    7  -0.399811309114007E+00   0.471574863052900E-03   0.415064E-01   0.721630E+00   0.684296E+02  -0.231981E-15
   LPB:    8  -0.399811164836474E+00   0.326077176757128E-03   0.385493E-01   0.772231E+00   0.766650E+02  -0.245334E-15
  Finished solving LPB equations
  A_corr:   -0.329277219159269     
 End minimization
 Ecorr=   1626.58246045736     
 A_corr= -0.329277219159269     
 Ecorr_band=  -1626.91173767652     
 End Solvation calculations
RMM:  13    -0.135683353326E+03   -0.25386E-04   -0.83996E-06  6992   0.101E-02    0.718E-03
 Begin Solvation calculations
  rms_SCF =   4.332680237650938E-003 tol =   4.332680237650938E-004
 Begin minimization
 Creating dielectric and ionic cavities
  area:      134.368815394744     
  volume:    642.548960417072     
  Acav:     7.054362808224071E-002
  Solving linear dielectric/ionic screening model
        iter                  A_solv                     rms
   LPB:       -0.400694946960199E+00   0.118625238793629E+00
   LPB:    0  -0.400683533221785E+00   0.810445258669107E-01  -0.890809E-03   0.000000E+00   0.287666E+02  -0.256256E-01
   LPB:    1  -0.400640391687530E+00   0.158154825851193E-01   0.143735E-01   0.000000E+00   0.451354E+02   0.687356E-18
   LPB:    2  -0.400635750432218E+00   0.606550412062968E-02   0.145663E-01   0.106159E+00   0.177698E+03   0.219482E-16
   LPB:    3  -0.400634884976949E+00   0.361517487234969E-02   0.185588E-01   0.146355E+00   0.104296E+03   0.732088E-16
   LPB:    4  -0.400634584910388E+00   0.335526067650580E-02   0.200620E-01   0.320736E+00   0.119223E+03   0.106870E-15
   LPB:    5  -0.400634426538006E+00   0.161157990219794E-02   0.208150E-01   0.508698E+00   0.963187E+02   0.121746E-15
   LPB:    6  -0.400634277190900E+00   0.615966190217414E-03   0.339347E-01   0.578428E+00   0.931933E+02   0.131894E-15
   LPB:    7  -0.400634139794415E+00   0.349781617208317E-03   0.426714E-01   0.731619E+00   0.705209E+02   0.143316E-15
  Finished solving LPB equations
  A_corr:   -0.330090511712174     
 End minimization
 Ecorr=   1626.21043323746     
 A_corr= -0.330090511712174     
 Ecorr_band=  -1626.54052374917     
 End Solvation calculations
RMM:  14    -0.135683371317E+03   -0.17991E-04   -0.76758E-06  6998   0.807E-03    0.429E-03
 Begin Solvation calculations
  rms_SCF =   4.332680237650938E-003 tol =   4.332680237650938E-004
 Begin minimization
 Creating dielectric and ionic cavities
  area:      134.372688226592     
  volume:    642.543790000370     
  Acav:     7.054566131896087E-002
  Solving linear dielectric/ionic screening model
        iter                  A_solv                     rms
   LPB:       -0.400928119892755E+00   0.580105352953350E-01
   LPB:    0  -0.400926623164162E+00   0.475975031718095E-01  -0.322582E-03   0.000000E+00   0.287668E+02  -0.927967E-02
   LPB:    1  -0.400916054489508E+00   0.819824290531384E-02   0.125016E-01   0.000000E+00   0.493659E+02   0.519324E-18
   LPB:    2  -0.400914916847843E+00   0.376736082946536E-02   0.130984E-01   0.102738E+00   0.214766E+03   0.180530E-15
   LPB:    3  -0.400914700729838E+00   0.191482885888137E-02   0.163375E-01   0.152307E+00   0.102967E+03   0.206056E-15
   LPB:    4  -0.400914625713429E+00   0.137216267087201E-02   0.218009E-01   0.260121E+00   0.746816E+02   0.208699E-15
   LPB:    5  -0.400914554249798E+00   0.880029409882988E-03   0.342272E-01   0.606781E+00   0.103840E+03   0.204623E-15
   LPB:    6  -0.400914450271764E+00   0.444917716864446E-03   0.479351E-01   0.103890E+01   0.467529E+02   0.202640E-15
   LPB:    7  -0.400914361415770E+00   0.324297869841945E-03   0.372230E-01   0.110049E+01   0.560417E+02   0.200495E-15
  Finished solving LPB equations
  A_corr:   -0.330368700096809     
 End minimization
 Ecorr=   1626.02056556708     
 A_corr= -0.330368700096809     
 Ecorr_band=  -1626.35093426718     
 End Solvation calculations
RMM:  15    -0.135683380252E+03   -0.89343E-05   -0.32239E-06  6850   0.700E-03
 Begin Solvation calculations
  rms_SCF =   4.332680237650938E-003 tol =   4.332680237650938E-004
 Begin minimization
 Creating dielectric and ionic cavities
  area:      134.373890456921     
  volume:    642.534129484239     
  Acav:     7.054629248988349E-002
  Solving linear dielectric/ionic screening model
        iter                  A_solv                     rms
   LPB:       -0.401178904693084E+00   0.754887486156403E-01
   LPB:    0  -0.401177662846832E+00   0.684828861246594E-01  -0.293832E-03   0.000000E+00   0.287673E+02  -0.845276E-02
   LPB:    1  -0.401159159686647E+00   0.110210190383947E-01   0.113918E-01   0.000000E+00   0.548487E+02  -0.734227E-18
   LPB:    2  -0.401157307853820E+00   0.417592408640246E-02   0.122688E-01   0.929276E-01   0.223029E+03   0.146599E-15
   LPB:    3  -0.401157013071215E+00   0.181936023882913E-02   0.165265E-01   0.118174E+00   0.113376E+03   0.166791E-15
   LPB:    4  -0.401156949547618E+00   0.106117581900934E-02   0.189778E-01   0.187659E+00   0.846957E+02   0.169763E-15
   LPB:    5  -0.401156914735934E+00   0.508540827547179E-03   0.271320E-01   0.383312E+00   0.155356E+03   0.186041E-15
   LPB:    6  -0.401156881093311E+00   0.281022441302834E-03   0.419903E-01   0.624450E+00   0.933085E+02   0.205518E-15
  Finished solving LPB equations
  A_corr:   -0.330610588603427     
 End minimization
 Ecorr=   1625.89359947374     
 A_corr= -0.330610588603427     
 Ecorr_band=  -1626.22421006234     
 End Solvation calculations
   2 F= -.13568338E+03 E0= -.13568094E+03  d E =-.678926E-02
quench:  g(F)=  0.000E+00 g(S)=  0.000E+00 dE (1.order)= 0.000E+00
 bond charge predicted
       N       E                     dE             d eps       ncg     rms          rms(c)
 Begin Solvation calculations
  rms_SCF =   4.332680237650938E-003 tol =   4.332680237650938E-004
 Begin minimization
 Creating dielectric and ionic cavities
  area:      134.590846695987     
  volume:    642.411284198363     
  Acav:     7.066019451539310E-002
  Solving linear dielectric/ionic screening model
        iter                  A_solv                     rms
   LPB:       -0.409399916240043E+00   0.112277785774149E-01
   LPB:    0  -0.409399913056267E+00   0.117235798702329E-01  -0.148762E-04   0.000000E+00   0.287731E+02  -0.428035E-03
   LPB:    1  -0.404056873701902E+00   0.509589486412102E-02   0.157625E-01   0.000000E+00   0.220473E+06  -0.157822E-19
   LPB:    2  -0.403514990194192E+00   0.761670891926582E-02   0.266643E-01   0.599532E-01   0.572357E+05  -0.267506E-16
   LPB:    3  -0.403345515747348E+00   0.178242871087311E-01   0.321489E-01   0.259396E+00   0.769918E+04  -0.301332E-16
   LPB:    4  -0.403278760579447E+00   0.426975585260188E-01   0.313579E-01   0.403831E+00   0.545183E+03  -0.418652E-16
   LPB:    5  -0.403252314069574E+00   0.339392112107031E-01   0.187104E-01   0.663969E+00   0.140293E+03  -0.113568E-15
   LPB:    6  -0.403228991069692E+00   0.987540310633993E-02   0.252941E-01   0.652347E+00   0.440509E+03  -0.131968E-15
   LPB:    7  -0.403214119221659E+00   0.119262334050239E-01   0.359971E-01   0.448056E+00   0.375820E+03  -0.161887E-15
   LPB:    8  -0.403206026225424E+00   0.155835245692885E-01   0.285131E-01   0.687017E+00   0.214832E+03  -0.191364E-15
   LPB:    9  -0.403199817952871E+00   0.621035404103800E-02   0.261393E-01   0.836784E+00   0.136341E+03  -0.243334E-15
   LPB:   10  -0.403194865667718E+00   0.195239543270703E-02   0.370117E-01   0.563364E+00   0.173381E+04  -0.338860E-15
   LPB:   11  -0.403191575120252E+00   0.101251373951573E-02   0.404376E-01   0.608156E+00   0.905530E+03  -0.415826E-15
   LPB:   12  -0.403189517531128E+00   0.132843212461027E-02   0.393049E-01   0.643324E+00   0.101615E+04  -0.478471E-15
   LPB:   13  -0.403188195766803E+00   0.168568758181959E-02   0.390036E-01   0.647348E+00   0.998991E+03  -0.515397E-15
   LPB:   14  -0.403187282438168E+00   0.147643751859971E-02   0.361592E-01   0.745346E+00   0.599525E+03  -0.538149E-15
   LPB:   15  -0.403186655367736E+00   0.937850531315121E-03   0.361528E-01   0.686699E+00   0.856469E+03  -0.553879E-15
   LPB:   16  -0.403186152814175E+00   0.508320652994549E-03   0.411150E-01   0.704706E+00   0.991405E+03  -0.564418E-15
   LPB:   17  -0.403185764836674E+00   0.313551428722798E-03   0.424828E-01   0.747156E+00   0.112005E+04  -0.576503E-15
  Finished solving LPB equations
  A_corr:   -0.332525570321281     
 End minimization
 Ecorr=   1625.56757555312     
 A_corr= -0.332525570321281     
 Ecorr_band=  -1625.90010112345     
 End Solvation calculations
DAV:   1    -0.135685702947E+03   -0.23316E-02   -0.49249E-01 12726   0.144E+00    0.163E-01
 Begin Solvation calculations
  rms_SCF =   4.332680237650938E-003 tol =   4.332680237650938E-004
 Begin minimization
 Creating dielectric and ionic cavities
  area:      134.434314104431     
  volume:    642.394059128351     
  Acav:     7.057801490482628E-002
  Solving linear dielectric/ionic screening model
        iter                  A_solv                     rms
   LPB:       -0.403956485453815E+00   0.859894074074005E-01
   LPB:    0  -0.403948368116164E+00   0.611816178946474E-01  -0.751143E-03   0.000000E+00   0.287739E+02  -0.216133E-01
[...]
   LPB:    8  -0.442190225437834E+00   0.417720593859723E-02   0.312108E-01   0.501542E+00   0.301405E+03  -0.500780E-16
   LPB:    9  -0.442189813335901E+00   0.256571839958510E-02   0.236552E-01   0.795612E+00   0.128037E+03  -0.507991E-16
   LPB:   10  -0.442189468528328E+00   0.777841229661394E-03   0.319528E-01   0.619426E+00   0.619094E+03  -0.183349E-16
   LPB:   11  -0.442189232993633E+00   0.222601563890587E-03   0.393818E-01   0.554232E+00   0.175882E+04   0.147507E-16
   LPB:   12  -0.442189081444833E+00   0.219172247259270E-03   0.407306E-01   0.622117E+00   0.467158E+04   0.368613E-16
   LPB:   13  -0.442188983616098E+00   0.303416476375075E-03   0.402781E-01   0.652779E+00   0.344068E+04   0.508692E-16
   LPB:   14  -0.442188919391263E+00   0.334622174937109E-03   0.377550E-01   0.700376E+00   0.132511E+04   0.600816E-16
   LPB:   15  -0.442188876844736E+00   0.290728032943739E-03   0.363089E-01   0.688847E+00   0.140180E+04   0.668134E-16
   LPB:   16  -0.442188843612764E+00   0.183550426444847E-03   0.382509E-01   0.741418E+00   0.135946E+04   0.701795E-16
  Finished solving LPB equations
  A_corr:   -0.371276099053718     
 End minimization
 Ecorr=   1617.23434227651     
 A_corr= -0.371276099053718     
 Ecorr_band=  -1617.60561837557     
 End Solvation calculations
DAV:   1    -0.135699803606E+03    0.14358E-03   -0.37375E-02 13896   0.385E-01    0.562E-02
 Begin Solvation calculations
  rms_SCF =   1.981616171480577E-003 tol =   1.981616171480576E-004
 Begin minimization
 Creating dielectric and ionic cavities
  area:      135.082965815821     
  volume:    641.925249094078     
  Acav:     7.091855705330616E-002
  Solving linear dielectric/ionic screening model
        iter                  A_solv                     rms
   LPB:       -0.442085554953334E+00   0.776895492993057E-01
   LPB:    0  -0.442084645971522E+00   0.749127805330565E-01   0.251262E-03   0.000000E+00   0.287958E+02   0.723532E-02
   LPB:    1  -0.442062195227642E+00   0.152057987611169E-01   0.104479E-01   0.000000E+00   0.726575E+02   0.198059E-18
   LPB:    2  -0.442058092311239E+00   0.273257826423174E-02   0.148933E-01   0.128203E+00   0.342745E+03   0.663383E-17
   LPB:    3  -0.442056957015709E+00   0.182597393744722E-02   0.261070E-01   0.157852E+00   0.720937E+03  -0.977510E-17
   LPB:    4  -0.442056572422781E+00   0.207571820212855E-02   0.279958E-01   0.315904E+00   0.307180E+03  -0.160963E-16
   LPB:    5  -0.442056396975448E+00   0.171210043137914E-02   0.237186E-01   0.538456E+00   0.210761E+03  -0.228943E-16
   LPB:    6  -0.442056286844325E+00   0.973040579078521E-03   0.273616E-01   0.544140E+00   0.174993E+03  -0.139369E-16
   LPB:    7  -0.442056218726672E+00   0.472962509528437E-03   0.311709E-01   0.542928E+00   0.383183E+03  -0.850890E-17
   LPB:    8  -0.442056174103346E+00   0.223572839877326E-03   0.344776E-01   0.592262E+00   0.742137E+03   0.101996E-16
   LPB:    9  -0.442056144270486E+00   0.134833680993303E-03   0.376138E-01   0.612805E+00   0.121675E+04   0.221715E-16
  Finished solving LPB equations
  A_corr:   -0.371137587217180     
 End minimization
 Ecorr=   1617.24986177949     
 A_corr= -0.371137587217180     
 Ecorr_band=  -1617.62099936670     
 End Solvation calculations
RMM:   2    -0.135700043371E+03   -0.23977E-03   -0.27460E-03 17158   0.972E-02    0.458E-02
 Begin Solvation calculations
  rms_SCF =   1.981616171480577E-003 tol =   1.981616171480576E-004
 Begin minimization
 Creating dielectric and ionic cavities
  area:      135.083475429888     
  volume:    641.927137815812     
  Acav:     7.091882460069102E-002
  Solving linear dielectric/ionic screening model
        iter                  A_solv                     rms
   LPB:       -0.441924365907933E+00   0.791304829522404E-01
   LPB:    0  -0.441924219206819E+00   0.787274827656120E-01   0.100941E-03   0.000000E+00   0.287958E+02   0.290667E-02
   LPB:    1  -0.441909324998958E+00   0.811877754758668E-02   0.875650E-02   0.000000E+00   0.625891E+02  -0.609160E-19
   LPB:    2  -0.441907675195492E+00   0.148971037825486E-02   0.171753E-01   0.564732E-01   0.111402E+03   0.672756E-17
   LPB:    3  -0.441907464709699E+00   0.719845560915439E-03   0.225129E-01   0.973333E-01   0.210942E+03   0.139457E-16
   LPB:    4  -0.441907392991887E+00   0.295166566913947E-03   0.284370E-01   0.269744E+00   0.347896E+03   0.197494E-16
   LPB:    5  -0.441907360575780E+00   0.234283774982909E-03   0.322178E-01   0.398954E+00   0.481322E+03   0.202432E-16
   LPB:    6  -0.441907340965202E+00   0.341352164283815E-03   0.353670E-01   0.551096E+00   0.454866E+03   0.211693E-16
   LPB:    7  -0.441907327922281E+00   0.560945196079046E-03   0.328177E-01   0.716762E+00   0.223238E+03   0.222937E-16
   LPB:    8  -0.441907317993419E+00   0.400949139455353E-03   0.275107E-01   0.908094E+00   0.122650E+03   0.213045E-16
   LPB:    9  -0.441907308341924E+00   0.177765170431064E-03   0.358747E-01   0.745434E+00   0.390450E+03   0.249463E-16
  Finished solving LPB equations
  A_corr:   -0.370988483741233     
 End minimization
 Ecorr=   1617.25971219968     
 A_corr= -0.370988483741233     
 Ecorr_band=  -1617.63070068342     
 End Solvation calculations
RMM:   3    -0.135700006561E+03    0.36810E-04   -0.14306E-04 11151   0.292E-02    0.755E-02
 Begin Solvation calculations
  rms_SCF =   1.981616171480577E-003 tol =   1.981616171480576E-004
 Begin minimization
 Creating dielectric and ionic cavities
  area:      135.083067609135     
  volume:    641.926773315723     
  Acav:     7.091861049479570E-002
  Solving linear dielectric/ionic screening model
        iter                  A_solv                     rms
   LPB:       -0.441912815095561E+00   0.362871958390332E-01
   LPB:    0  -0.441912809717506E+00   0.362508519916835E-01   0.193269E-04   0.000000E+00   0.287958E+02   0.556534E-03
   LPB:    1  -0.441909615697859E+00   0.328910457603659E-02   0.876002E-02   0.000000E+00   0.633354E+02  -0.131300E-19
   LPB:    2  -0.441909340346518E+00   0.625879354943442E-03   0.152634E-01   0.494770E-01   0.148546E+03   0.190315E-18
   LPB:    3  -0.441909299400707E+00   0.308253731388079E-03   0.239922E-01   0.946025E-01   0.215758E+03   0.111521E-17
   LPB:    4  -0.441909285347076E+00   0.258338991486947E-03   0.300862E-01   0.273704E+00   0.281467E+03   0.374380E-17
   LPB:    5  -0.441909277282549E+00   0.319865334737505E-03   0.301940E-01   0.571792E+00   0.333558E+03   0.270201E-17
   LPB:    6  -0.441909272116554E+00   0.326367136268874E-03   0.283591E-01   0.682029E+00   0.133199E+03   0.180362E-17
   LPB:    7  -0.441909267847892E+00   0.196350286995809E-03   0.307871E-01   0.761134E+00   0.182856E+03   0.339333E-17
  Finished solving LPB equations
  A_corr:   -0.370990657353096     
 End minimization
 Ecorr=   1617.26041811033     
 A_corr= -0.370990657353096     
 Ecorr_band=  -1617.63140876769     
 End Solvation calculations
RMM:   4    -0.135699975300E+03    0.31261E-04   -0.46107E-05  7630   0.210E-02    0.355E-02
 Begin Solvation calculations
  rms_SCF =   1.981616171480577E-003 tol =   1.981616171480576E-004
 Begin minimization
 Creating dielectric and ionic cavities
  area:      135.081836950242     
  volume:    641.929357632856     
  Acav:     7.091796439887718E-002
  Solving linear dielectric/ionic screening model
        iter                  A_solv                     rms
   LPB:       -0.441844204362276E+00   0.624254023519257E-01
   LPB:    0  -0.441844029284224E+00   0.617522602047010E-01   0.110273E-03   0.000000E+00   0.287957E+02   0.317537E-02
   LPB:    1  -0.441832068143896E+00   0.786604143217282E-02   0.957431E-02   0.000000E+00   0.682733E+02  -0.975537E-19
   LPB:    2  -0.441830491714521E+00   0.126269352885312E-02   0.145550E-01   0.866955E-01   0.314060E+03   0.167690E-17
   LPB:    3  -0.441830174411068E+00   0.704670661119484E-03   0.255794E-01   0.114531E+00   0.796801E+03  -0.597174E-17
   LPB:    4  -0.441830078268284E+00   0.662876564673821E-03   0.286474E-01   0.270550E+00   0.425224E+03  -0.472751E-17
   LPB:    5  -0.441830034641686E+00   0.798527244311274E-03   0.271369E-01   0.479028E+00   0.411056E+03  -0.308813E-17
   LPB:    6  -0.441830009503992E+00   0.660221145286435E-03   0.265388E-01   0.589186E+00   0.121451E+03  -0.739159E-17
   LPB:    7  -0.441829992354154E+00   0.344615074273339E-03   0.285553E-01   0.634059E+00   0.260243E+03  -0.136959E-16
   LPB:    8  -0.441829979620129E+00   0.137526132884587E-03   0.346436E-01   0.612026E+00   0.369956E+03  -0.123460E-16
  Finished solving LPB equations
  A_corr:   -0.370912015221251     
 End minimization
 Ecorr=   1617.28294825714     
 A_corr= -0.370912015221251     
 Ecorr_band=  -1617.65386027236     
 End Solvation calculations
RMM:   5    -0.135699978180E+03   -0.28797E-05   -0.26829E-05  7601   0.206E-02
 Begin Solvation calculations
  rms_SCF =   1.981616171480577E-003 tol =   1.981616171480576E-004
 Begin minimization
 Creating dielectric and ionic cavities
  area:      135.083458288725     
  volume:    641.933101166526     
  Acav:     7.091881560158060E-002
  Solving linear dielectric/ionic screening model
        iter                  A_solv                     rms
   LPB:       -0.441557098970541E+00   0.516104449272676E-01
   LPB:    0  -0.441555861968089E+00   0.454460224820520E-01   0.293115E-03   0.000000E+00   0.287955E+02   0.844039E-02
   LPB:    1  -0.441546558520856E+00   0.121821379667326E-01   0.110696E-01   0.000000E+00   0.701322E+02  -0.499142E-18
   LPB:    2  -0.441544304798517E+00   0.179121685217791E-02   0.151647E-01   0.176829E+00   0.181477E+03  -0.972282E-17
   LPB:    3  -0.441543922175622E+00   0.132361107507815E-02   0.264595E-01   0.973022E-01   0.345140E+03  -0.811377E-17
   LPB:    4  -0.441543805253737E+00   0.135137619219624E-02   0.243592E-01   0.331928E+00   0.200537E+03  -0.107887E-16
   LPB:    5  -0.441543745065927E+00   0.912048648848668E-03   0.238482E-01   0.525800E+00   0.207719E+03  -0.167480E-16
   LPB:    6  -0.441543703902516E+00   0.471539750022360E-03   0.307086E-01   0.531127E+00   0.157981E+03  -0.196846E-16
   LPB:    7  -0.441543675908621E+00   0.324068616301853E-03   0.350881E-01   0.595186E+00   0.434858E+03  -0.291487E-16
   LPB:    8  -0.441543656602217E+00   0.232241391391594E-03   0.367138E-01   0.659125E+00   0.355233E+03  -0.370979E-16
   LPB:    9  -0.441543643069149E+00   0.168206745096473E-03   0.376877E-01   0.682849E+00   0.660601E+03  -0.449900E-16
  Finished solving LPB equations
  A_corr:   -0.370624827467569     
 End minimization
 Ecorr=   1617.32983638495     
 A_corr= -0.370624827467569     
 Ecorr_band=  -1617.70046121241     
 End Solvation calculations
  31 F= -.13569998E+03 E0= -.13569791E+03  d E =-.294682E-04
quench:  g(F)=  0.000E+00 g(S)=  0.000E+00 dE (1.order)= 0.000E+00
 bond charge predicted
       N       E                     dE             d eps       ncg     rms          rms(c)
 Begin Solvation calculations
  rms_SCF =   1.981616171480577E-003 tol =   1.981616171480576E-004
 Begin minimization
 Creating dielectric and ionic cavities
  area:      135.097355639337     
  volume:    641.936724304721     
  Acav:     7.092611171065187E-002
  Solving linear dielectric/ionic screening model
        iter                  A_solv                     rms
   LPB:       -0.441706053529597E+00   0.129988993933808E-02
   LPB:    0  -0.441706053526888E+00   0.130134252000899E-02   0.433801E-06   0.000000E+00   0.287953E+02   0.124914E-04
   LPB:    1  -0.441579936430584E+00   0.607498174476884E-03   0.164660E-01   0.000000E+00   0.541796E+06  -0.163464E-21
   LPB:    2  -0.441562173899803E+00   0.615084126080505E-03   0.283584E-01   0.817782E-01   0.103830E+06   0.545715E-18
   LPB:    3  -0.441556127262770E+00   0.102382881967224E-02   0.330288E-01   0.292279E+00   0.273574E+05   0.212345E-17
   LPB:    4  -0.441553515709723E+00   0.256919947250446E-02   0.352250E-01   0.404973E+00   0.459979E+04   0.784950E-17
   LPB:    5  -0.441552336552406E+00   0.558660976201591E-02   0.323516E-01   0.491618E+00   0.380976E+03   0.131650E-16
   LPB:    6  -0.441551797049616E+00   0.452664919756722E-02   0.201689E-01   0.733897E+00   0.144073E+03   0.168760E-16
   LPB:    7  -0.441551343902959E+00   0.255608916575998E-02   0.256458E-01   0.660560E+00   0.333919E+03   0.190233E-16
   LPB:    8  -0.441551080988570E+00   0.294364110918412E-02   0.269712E-01   0.551686E+00   0.183420E+03   0.230328E-16
   LPB:    9  -0.441550894905758E+00   0.130672376047876E-02   0.240125E-01   0.794975E+00   0.188060E+03   0.170425E-16
   LPB:   10  -0.441550745521110E+00   0.394061424481217E-03   0.353701E-01   0.545006E+00   0.777618E+03   0.696145E-17
   LPB:   11  -0.441550648843711E+00   0.253950705384879E-03   0.394845E-01   0.579733E+00   0.376477E+04  -0.484100E-17
   LPB:   12  -0.441550587576391E+00   0.291949296524841E-03   0.384337E-01   0.651057E+00   0.266914E+04  -0.120188E-16
   LPB:   13  -0.441550548860252E+00   0.286303251197652E-03   0.361548E-01   0.671753E+00   0.148943E+04  -0.156080E-16
   LPB:   14  -0.441550522644093E+00   0.199208956989717E-03   0.352675E-01   0.694173E+00   0.155546E+04  -0.179065E-16
   LPB:   15  -0.441550504376446E+00   0.110137214197401E-03   0.375496E-01   0.654461E+00   0.225610E+04  -0.195214E-16
  Finished solving LPB equations
  A_corr:   -0.370624392665794     
 End minimization
 Ecorr=   1617.32069926663     
 A_corr= -0.370624392665794     
 Ecorr_band=  -1617.69132365930     
 End Solvation calculations
DAV:   1    -0.135700001901E+03   -0.26601E-04   -0.12718E-02 14742   0.272E-01    0.309E-02
 Begin Solvation calculations
  rms_SCF =   1.981616171480577E-003 tol =   1.981616171480576E-004
 Begin minimization
 Creating dielectric and ionic cavities
  area:      135.082333987425     
  volume:    641.920871008371     
  Acav:     7.091822534339802E-002
  Solving linear dielectric/ionic screening model
        iter                  A_solv                     rms
   LPB:       -0.441762663169045E+00   0.344364729881394E-01
   LPB:    0  -0.441761716335448E+00   0.278884153055495E-01  -0.256440E-03   0.000000E+00   0.287961E+02  -0.738445E-02
   LPB:    1  -0.441757698770402E+00   0.827498352470069E-02   0.113171E-01   0.000000E+00   0.759540E+02   0.337942E-18
   LPB:    2  -0.441756664516855E+00   0.161827648306946E-02   0.155812E-01   0.186982E+00   0.211220E+03  -0.352972E-16
   LPB:    3  -0.441756440442011E+00   0.146467905169900E-02   0.252508E-01   0.133688E+00   0.328525E+03  -0.351313E-16
   LPB:    4  -0.441756356112120E+00   0.116927742735341E-02   0.224062E-01   0.424125E+00   0.185535E+03  -0.409943E-16
   LPB:    5  -0.441756309322506E+00   0.679021328281864E-03   0.253148E-01   0.491091E+00   0.202925E+03  -0.366320E-16
   LPB:    6  -0.441756280594473E+00   0.355919659780967E-03   0.310964E-01   0.499829E+00   0.219734E+03  -0.335375E-16
   LPB:    7  -0.441756262386167E+00   0.247721687945922E-03   0.356923E-01   0.552203E+00   0.471772E+03  -0.364623E-16
   LPB:    8  -0.441756250317296E+00   0.191007720373305E-03   0.371825E-01   0.636258E+00   0.584860E+03  -0.398624E-16
  Finished solving LPB equations
  A_corr:   -0.370838024973898     
 End minimization
 Ecorr=   1617.32305749294     
 A_corr= -0.370838024973898     
 Ecorr_band=  -1617.69389551791     
 End Solvation calculations
RMM:   2    -0.135700087760E+03   -0.85859E-04   -0.92083E-04 15847   0.606E-02    0.241E-02
 Begin Solvation calculations
  rms_SCF =   1.981616171480577E-003 tol =   1.981616171480576E-004
 Begin minimization
 Creating dielectric and ionic cavities
  area:      135.082390331900     
  volume:    641.921493420806     
  Acav:     7.091825492424766E-002
  Solving linear dielectric/ionic screening model
        iter                  A_solv                     rms
   LPB:       -0.441756705066984E+00   0.512492436675221E-01
   LPB:    0  -0.441756704917942E+00   0.512496036687046E-01  -0.321738E-05   0.000000E+00   0.287960E+02  -0.926479E-04
   LPB:    1  -0.441750275886899E+00   0.478542240909774E-02   0.883571E-02   0.000000E+00   0.626986E+02   0.100550E-21
   LPB:    2  -0.441749680368167E+00   0.803261759261602E-03   0.152062E-01   0.538234E-01   0.153385E+03   0.149107E-17
   LPB:    3  -0.441749599799607E+00   0.306712506303230E-03   0.233490E-01   0.881095E-01   0.256905E+03   0.250714E-18
   LPB:    4  -0.441749576668658E+00   0.186734579382433E-03   0.291426E-01   0.230021E+00   0.392398E+03   0.167942E-17
  Finished solving LPB equations
  A_corr:   -0.370831321744411     
 End minimization
 Ecorr=   1617.32456019554     
 A_corr= -0.370831321744411     
 Ecorr_band=  -1617.69539151729     
 End Solvation calculations
RMM:   3    -0.135700069385E+03    0.18375E-04   -0.42740E-05  8361   0.178E-02    0.206E-02
 Begin Solvation calculations
  rms_SCF =   1.981616171480577E-003 tol =   1.981616171480576E-004
 Begin minimization
 Creating dielectric and ionic cavities
  area:      135.079942288227     
  volume:    641.919707170991     
  Acav:     7.091696970131914E-002
  Solving linear dielectric/ionic screening model
        iter                  A_solv                     rms
   LPB:       -0.441854147194088E+00   0.337190592290724E-01
   LPB:    0  -0.441854038545888E+00   0.329969039850367E-01  -0.868679E-04   0.000000E+00   0.287961E+02  -0.250146E-02
   LPB:    1  -0.441851238097184E+00   0.391469274816863E-02   0.902272E-02   0.000000E+00   0.627966E+02   0.685131E-19
   LPB:    2  -0.441850826136890E+00   0.659560036342500E-03   0.175876E-01   0.754672E-01   0.118068E+03  -0.113535E-16
   LPB:    3  -0.441850775007416E+00   0.305651100606598E-03   0.229170E-01   0.952501E-01   0.272233E+03  -0.180975E-16
   LPB:    4  -0.441850756137749E+00   0.176085778816928E-03   0.280024E-01   0.302033E+00   0.523471E+03  -0.228421E-16
  Finished solving LPB equations
  A_corr:   -0.370933786436429     
 End minimization
 Ecorr=   1617.31499410340     
 A_corr= -0.370933786436429     
 Ecorr_band=  -1617.68592788984     
 End Solvation calculations
RMM:   4    -0.135700073822E+03   -0.44372E-05   -0.20694E-05  7153   0.193E-02
 Begin Solvation calculations
  rms_SCF =   1.981616171480577E-003 tol =   1.981616171480576E-004
 Begin minimization
 Creating dielectric and ionic cavities
  area:      135.077493266617     
  volume:    641.918507491148     
  Acav:     7.091568396497408E-002
  Solving linear dielectric/ionic screening model
        iter                  A_solv                     rms
   LPB:       -0.441954499052055E+00   0.110270677018201E-01
   LPB:    0  -0.441954327681793E+00   0.646491057085419E-02  -0.109098E-03   0.000000E+00   0.287962E+02  -0.314159E-02
   LPB:    1  -0.441953465376724E+00   0.366490616364949E-02   0.155572E-01   0.000000E+00   0.133738E+03  -0.666495E-20
   LPB:    2  -0.441953366412641E+00   0.140369131955469E-02   0.140731E-01   0.126869E+00   0.946623E+02   0.979291E-17
   LPB:    3  -0.441953316032616E+00   0.565960462555555E-03   0.219456E-01   0.326455E+00   0.328604E+03   0.117698E-16
   LPB:    4  -0.441953289450400E+00   0.696315546137916E-03   0.276295E-01   0.419090E+00   0.187693E+03   0.109654E-16
   LPB:    5  -0.441953274663708E+00   0.554788003660495E-03   0.239811E-01   0.640892E+00   0.185344E+03   0.106964E-16
   LPB:    6  -0.441953263179863E+00   0.263456225792047E-03   0.308832E-01   0.603062E+00   0.150313E+03   0.150996E-16
   LPB:    7  -0.441953255240195E+00   0.137133963836857E-03   0.361798E-01   0.590162E+00   0.631743E+03   0.245864E-16
  Finished solving LPB equations
  A_corr:   -0.371037571275221     
 End minimization
 Ecorr=   1617.29866320481     
 A_corr= -0.371037571275221     
 Ecorr_band=  -1617.66970077608     
 End Solvation calculations
  32 F= -.13570007E+03 E0= -.13569799E+03  d E =-.956421E-04
quench:  g(F)=  0.000E+00 g(S)=  0.000E+00 dE (1.order)= 0.000E+00
 reached required accuracy - stopping structural energy minimisation
