 vasp.5.4.4.18Apr17-6-g9f103f2a35 (build Feb 06 2024 13:54:16) complex          
  
 POSCAR found type information on POSCAR  Pd N  O 
 03/POSCAR found :  3 types and      40 ions
 scaLAPACK will be used

 ----------------------------------------------------------------------------- 
|                                                                             |
|  ADVICE TO THIS USER RUNNING 'VASP/VAMP'   (HEAR YOUR MASTER'S VOICE ...):  |
|                                                                             |
|      You enforced a specific xc-type in the INCAR file,                     |
|      a different type was found on the POTCAR file                          |
|          I HOPE YOU KNOW, WHAT YOU ARE  DOING                               |
|                                                                             |
 ----------------------------------------------------------------------------- 

 LDA part: xc-table for Pade appr. of Perdew
 POSCAR found type information on POSCAR  Pd N  O 
 00/POSCAR found :  3 types and      40 ions
 POSCAR found type information on POSCAR  Pd N  O 
 06/POSCAR found :  3 types and      40 ions
 Jacobian:    21.0960049830057     
 POSCAR, INCAR and KPOINTS ok, starting setup
 FFT: planning ...
 WAVECAR not read
 entering main loop
       N       E                     dE             d eps       ncg     rms          rms(c)
DAV:   1     0.267210181094E+04    0.26721E+04   -0.17929E+05 11088   0.149E+03
DAV:   2    -0.841114279669E+01   -0.26805E+04   -0.25112E+04 12267   0.322E+02
DAV:   3    -0.183817935954E+03   -0.17541E+03   -0.15795E+03 13311   0.729E+01
DAV:   4    -0.190579684823E+03   -0.67617E+01   -0.65503E+01 12546   0.143E+01
DAV:   5    -0.190825211072E+03   -0.24553E+00   -0.24160E+00 15705   0.269E+00    0.360E+01
RMM:   6    -0.183659122293E+03    0.71661E+01   -0.35905E+01 11153   0.125E+01    0.229E+01
RMM:   7    -0.307682517756E+03   -0.12402E+03   -0.51885E+01 11293   0.100E+01    0.753E+01
RMM:   8    -0.195795351674E+03    0.11189E+03   -0.22425E+01 11101   0.728E+00    0.382E+01
RMM:   9    -0.183763042579E+03    0.12032E+02   -0.15003E+01 11115   0.700E+00    0.152E+01
RMM:  10    -0.186438719652E+03   -0.26757E+01   -0.68249E+00 11138   0.481E+00    0.205E+01
RMM:  11    -0.183588688479E+03    0.28500E+01   -0.42842E+00 11120   0.392E+00    0.136E+01
RMM:  12    -0.182388865486E+03    0.11998E+01   -0.17462E+00 11132   0.247E+00    0.851E+00
RMM:  13    -0.182191214383E+03    0.19765E+00   -0.84454E-01 11138   0.172E+00    0.908E+00
RMM:  14    -0.181615794313E+03    0.57542E+00   -0.30776E-01 11125   0.107E+00    0.393E+00
RMM:  15    -0.181486972344E+03    0.12882E+00   -0.82577E-02 11123   0.522E-01    0.289E+00
RMM:  16    -0.181441418756E+03    0.45554E-01   -0.16883E-02 11113   0.224E-01    0.224E+00
RMM:  17    -0.181436183590E+03    0.52352E-02   -0.23523E-03 10951   0.880E-02    0.210E+00
RMM:  18    -0.181435035387E+03    0.11482E-02   -0.22837E-04  6871   0.276E-02    0.207E+00
RMM:  19    -0.181433521406E+03    0.15140E-02   -0.35295E-02 11108   0.329E-01    0.250E+00
RMM:  20    -0.181391427140E+03    0.42094E-01   -0.26806E-02 11110   0.304E-01    0.123E+00
RMM:  21    -0.181379966799E+03    0.11460E-01   -0.16616E-02 11127   0.234E-01    0.727E-01
RMM:  22    -0.181375933409E+03    0.40334E-02   -0.29356E-03 11127   0.101E-01    0.418E-01
RMM:  23    -0.181374827082E+03    0.11063E-02   -0.13244E-03 10929   0.691E-02    0.350E-01
RMM:  24    -0.181374184288E+03    0.64279E-03   -0.91031E-04 10982   0.579E-02    0.317E-01
RMM:  25    -0.181373475032E+03    0.70926E-03   -0.52945E-04  9377   0.432E-02    0.265E-01
RMM:  26    -0.181372612740E+03    0.86229E-03   -0.44755E-04  8414   0.394E-02    0.192E-01
RMM:  27    -0.181372195707E+03    0.41703E-03   -0.18534E-04  6354   0.264E-02    0.131E-01
RMM:  28    -0.181372172684E+03    0.23023E-04   -0.12570E-04  6236   0.222E-02
   1 F= -.18137217E+03 E0= -.18136263E+03  d E =-.181372E+03
quench:  g(F)=  0.000E+00 g(S)=  0.000E+00 dE (1.order)= 0.000E+00
 bond charge predicted
       N       E                     dE             d eps       ncg     rms          rms(c)
DAV:   1    -0.181380637729E+03   -0.84420E-02   -0.93092E-01 11316   0.165E+00    0.304E-01
RMM:   2    -0.181392176394E+03   -0.11539E-01   -0.29970E-02 11157   0.271E-01    0.113E+00
RMM:   3    -0.181385227948E+03    0.69484E-02   -0.24100E-03 11194   0.840E-02    0.617E-01
RMM:   4    -0.181383723846E+03    0.15041E-02   -0.25166E-03 11124   0.956E-02    0.396E-01
RMM:   5    -0.181383011690E+03    0.71216E-03   -0.13325E-03 11094   0.696E-02    0.256E-01
RMM:   6    -0.181382945614E+03    0.66076E-04   -0.85160E-04 10985   0.556E-02
   2 F= -.18138295E+03 E0= -.18137346E+03  d E =-.107729E-01
quench:  g(F)=  0.000E+00 g(S)=  0.000E+00 dE (1.order)= 0.000E+00
 bond charge predicted
       N       E                     dE             d eps       ncg     rms          rms(c)
DAV:   1    -0.181379935544E+03    0.30761E-02   -0.13742E+00 11166   0.217E+00    0.384E-01
RMM:   2    -0.181467362068E+03   -0.87427E-01   -0.46947E-02 11213   0.369E-01    0.343E+00
RMM:   3    -0.181386825196E+03    0.80537E-01   -0.94654E-03 11174   0.169E-01    0.689E-01
RMM:   4    -0.181383850788E+03    0.29744E-02   -0.39518E-03 11112   0.122E-01    0.473E-01
RMM:   5    -0.181382580871E+03    0.12699E-02   -0.16853E-03 11104   0.790E-02    0.276E-01
RMM:   6    -0.181382336109E+03    0.24476E-03   -0.10633E-03 11067   0.628E-02    0.213E-01
RMM:   7    -0.181382436208E+03   -0.10010E-03   -0.76347E-04 10952   0.531E-02    0.206E-01
RMM:   8    -0.181382259366E+03    0.17684E-03   -0.37590E-04  7684   0.391E-02    0.123E-01
RMM:   9    -0.181382218970E+03    0.40396E-04   -0.12866E-04  5985   0.237E-02
   3 F= -.18138222E+03 E0= -.18137271E+03  d E =0.726645E-03
quench:  g(F)=  0.000E+00 g(S)=  0.000E+00 dE (1.order)= 0.000E+00
 bond charge predicted
       N       E                     dE             d eps       ncg     rms          rms(c)
DAV:   1    -0.181385184421E+03   -0.29251E-02   -0.31994E-01 11262   0.927E-01    0.169E-01
RMM:   2    -0.181388114669E+03   -0.29302E-02   -0.11641E-02 11144   0.177E-01    0.528E-01
RMM:   3    -0.181387455855E+03    0.65881E-03   -0.91987E-04 10686   0.504E-02    0.446E-01
RMM:   4    -0.181386555943E+03    0.89991E-03   -0.70924E-04 10811   0.509E-02    0.255E-01
RMM:   5    -0.181386095967E+03    0.45998E-03   -0.39504E-04  7612   0.398E-02    0.107E-01
RMM:   6    -0.181386157006E+03   -0.61039E-04   -0.30495E-04  6856   0.352E-02
   4 F= -.18138616E+03 E0= -.18137648E+03  d E =-.393804E-02
quench:  g(F)=  0.000E+00 g(S)=  0.000E+00 dE (1.order)= 0.000E+00
 bond charge predicted
       N       E                     dE             d eps       ncg     rms          rms(c)
DAV:   1    -0.181386161685E+03   -0.65718E-04   -0.30637E-01 11160   0.103E+00    0.145E-01
RMM:   2    -0.181390877397E+03   -0.47157E-02   -0.12362E-02 11186   0.198E-01    0.734E-01
RMM:   3    -0.181387727716E+03    0.31497E-02   -0.88099E-04 10757   0.515E-02    0.333E-01
RMM:   4    -0.181387172149E+03    0.55557E-03   -0.73288E-04 10795   0.512E-02    0.215E-01
RMM:   5    -0.181386883553E+03    0.28860E-03   -0.21878E-04  6357   0.308E-02    0.113E-01
RMM:   6    -0.181386812141E+03    0.71412E-04   -0.17347E-04  6186   0.295E-02
   5 F= -.18138681E+03 E0= -.18137715E+03  d E =-.655135E-03
quench:  g(F)=  0.000E+00 g(S)=  0.000E+00 dE (1.order)= 0.000E+00
 bond charge predicted
       N       E                     dE             d eps       ncg     rms          rms(c)
DAV:   1    -0.181387281855E+03   -0.39830E-03   -0.11593E-01 11460   0.639E-01    0.144E-01
RMM:   2    -0.181391376695E+03   -0.40948E-02   -0.58515E-03 11158   0.144E-01    0.713E-01
RMM:   3    -0.181391443816E+03   -0.67121E-04   -0.14848E-03 11049   0.694E-02    0.733E-01
RMM:   4    -0.181387587807E+03    0.38560E-02   -0.57437E-04  9587   0.438E-02    0.109E-01
RMM:   5    -0.181387498465E+03    0.89342E-04   -0.21691E-04  6256   0.298E-02
   6 F= -.18138750E+03 E0= -.18137782E+03  d E =-.686324E-03
quench:  g(F)=  0.000E+00 g(S)=  0.000E+00 dE (1.order)= 0.000E+00
 bond charge predicted
       N       E                     dE             d eps       ncg     rms          rms(c)
DAV:   1    -0.181387637041E+03   -0.49234E-04   -0.88582E-02 11208   0.575E-01    0.900E-02
RMM:   2    -0.181388942595E+03   -0.13056E-02   -0.34958E-03 11197   0.110E-01    0.379E-01
RMM:   3    -0.181389210456E+03   -0.26786E-03   -0.47883E-04  8850   0.395E-02    0.434E-01
RMM:   4    -0.181387893034E+03    0.13174E-02   -0.21234E-04  6406   0.287E-02    0.733E-02
RMM:   5    -0.181387855685E+03    0.37349E-04   -0.81575E-05  5903   0.197E-02
   7 F= -.18138786E+03 E0= -.18137815E+03  d E =-.357220E-03
quench:  g(F)=  0.000E+00 g(S)=  0.000E+00 dE (1.order)= 0.000E+00
 bond charge predicted
       N       E                     dE             d eps       ncg     rms          rms(c)
DAV:   1    -0.181387856446E+03    0.36589E-04   -0.74592E-02 11274   0.493E-01    0.902E-02
RMM:   2    -0.181389641867E+03   -0.17854E-02   -0.36352E-03 11171   0.104E-01    0.461E-01
RMM:   3    -0.181388824209E+03    0.81766E-03   -0.38964E-04  7604   0.352E-02    0.324E-01
RMM:   4    -0.181388132800E+03    0.69141E-03   -0.24623E-04  6489   0.317E-02    0.100E-01
RMM:   5    -0.181388074234E+03    0.58566E-04   -0.10915E-04  5924   0.225E-02
   8 F= -.18138807E+03 E0= -.18137835E+03  d E =-.218549E-03
quench:  g(F)=  0.000E+00 g(S)=  0.000E+00 dE (1.order)= 0.000E+00
 bond charge predicted
       N       E                     dE             d eps       ncg     rms          rms(c)
DAV:   1    -0.181388238486E+03   -0.10569E-03   -0.31806E-02 11286   0.306E-01    0.751E-02
RMM:   2    -0.181389532282E+03   -0.12938E-02   -0.21745E-03 11109   0.876E-02    0.402E-01
RMM:   3    -0.181389507057E+03    0.25225E-04   -0.38105E-04  7690   0.352E-02
   9 F= -.18138951E+03 E0= -.18138000E+03  d E =-.143282E-02
quench:  g(F)=  0.000E+00 g(S)=  0.000E+00 dE (1.order)= 0.000E+00
 bond charge predicted
       N       E                     dE             d eps       ncg     rms          rms(c)
DAV:   1    -0.181388437666E+03    0.10946E-02   -0.98510E-03 11412   0.247E-01    0.635E-02
RMM:   2    -0.181389152017E+03   -0.71435E-03   -0.11029E-03 11071   0.710E-02    0.313E-01
RMM:   3    -0.181389141545E+03    0.10472E-04   -0.29672E-04  6841   0.330E-02
  10 F= -.18138914E+03 E0= -.18137958E+03  d E =0.365512E-03
quench:  g(F)=  0.000E+00 g(S)=  0.000E+00 dE (1.order)= 0.000E+00
 bond charge predicted
       N       E                     dE             d eps       ncg     rms          rms(c)
DAV:   1    -0.181388573151E+03    0.57887E-03   -0.19652E-02 11124   0.300E-01    0.698E-02
RMM:   2    -0.181396152434E+03   -0.75793E-02   -0.17052E-03 11085   0.866E-02    0.103E+00
RMM:   3    -0.181388892366E+03    0.72601E-02   -0.67459E-04 10041   0.444E-02    0.157E-01
RMM:   4    -0.181388608602E+03    0.28376E-03   -0.15433E-04  6228   0.264E-02    0.580E-02
RMM:   5    -0.181388597818E+03    0.10783E-04   -0.39391E-05  5771   0.135E-02
  11 F= -.18138860E+03 E0= -.18137886E+03  d E =0.543727E-03
quench:  g(F)=  0.000E+00 g(S)=  0.000E+00 dE (1.order)= 0.000E+00
 bond charge predicted
       N       E                     dE             d eps       ncg     rms          rms(c)
DAV:   1    -0.181388703365E+03   -0.94764E-04   -0.37782E-02 11100   0.368E-01    0.520E-02
RMM:   2    -0.181389696196E+03   -0.99283E-03   -0.12562E-03  9258   0.642E-02    0.364E-01
RMM:   3    -0.181388975348E+03    0.72085E-03   -0.16879E-04  6109   0.253E-02    0.153E-01
RMM:   4    -0.181388809877E+03    0.16547E-03   -0.76765E-05  5850   0.185E-02    0.618E-02
RMM:   5    -0.181388794491E+03    0.15386E-04   -0.31895E-05  5756   0.126E-02
  12 F= -.18138879E+03 E0= -.18137903E+03  d E =-.196673E-03
quench:  g(F)=  0.000E+00 g(S)=  0.000E+00 dE (1.order)= 0.000E+00
 bond charge predicted
       N       E                     dE             d eps       ncg     rms          rms(c)
DAV:   1    -0.181388824588E+03   -0.14710E-04   -0.41219E-02 11292   0.370E-01    0.590E-02
RMM:   2    -0.181390117547E+03   -0.12930E-02   -0.16953E-03 10306   0.731E-02    0.395E-01
RMM:   3    -0.181389133721E+03    0.98383E-03   -0.18968E-04  6252   0.257E-02    0.169E-01
RMM:   4    -0.181388959639E+03    0.17408E-03   -0.11173E-04  5909   0.221E-02    0.671E-02
RMM:   5    -0.181388937629E+03    0.22010E-04   -0.44971E-05  5723   0.145E-02
  13 F= -.18138894E+03 E0= -.18137917E+03  d E =-.143138E-03
quench:  g(F)=  0.000E+00 g(S)=  0.000E+00 dE (1.order)= 0.000E+00
 bond charge predicted
       N       E                     dE             d eps       ncg     rms          rms(c)
DAV:   1    -0.181389023709E+03   -0.64070E-04   -0.17937E-02 11232   0.234E-01    0.503E-02
RMM:   2    -0.181389423141E+03   -0.39943E-03   -0.10093E-03  9005   0.594E-02    0.216E-01
RMM:   3    -0.181389465194E+03   -0.42053E-04   -0.17034E-04  6113   0.273E-02
  14 F= -.18138947E+03 E0= -.18137984E+03  d E =-.527565E-03
quench:  g(F)=  0.000E+00 g(S)=  0.000E+00 dE (1.order)= 0.000E+00
 bond charge predicted
       N       E                     dE             d eps       ncg     rms          rms(c)
DAV:   1    -0.181389146769E+03    0.27637E-03   -0.92446E-03 11256   0.201E-01    0.452E-02
RMM:   2    -0.181389795693E+03   -0.64892E-03   -0.63955E-04  8358   0.537E-02    0.288E-01
RMM:   3    -0.181389505538E+03    0.29015E-03   -0.14396E-04  6082   0.243E-02    0.218E-01
RMM:   4    -0.181389176218E+03    0.32932E-03   -0.69287E-05  5913   0.168E-02    0.402E-02
RMM:   5    -0.181389163192E+03    0.13025E-04   -0.18670E-05  5622   0.912E-03
  15 F= -.18138916E+03 E0= -.18137938E+03  d E =0.302002E-03
quench:  g(F)=  0.000E+00 g(S)=  0.000E+00 dE (1.order)= 0.000E+00
 bond charge predicted
       N       E                     dE             d eps       ncg     rms          rms(c)
DAV:   1    -0.181389249149E+03   -0.72931E-04   -0.18095E-02 11148   0.254E-01    0.330E-02
RMM:   2    -0.181389408347E+03   -0.15920E-03   -0.48771E-04  6795   0.417E-02    0.132E-01
RMM:   3    -0.181389403651E+03    0.46955E-05   -0.61362E-05  5859   0.167E-02
  16 F= -.18138940E+03 E0= -.18137969E+03  d E =-.240459E-03
quench:  g(F)=  0.000E+00 g(S)=  0.000E+00 dE (1.order)= 0.000E+00
 bond charge predicted
       N       E                     dE             d eps       ncg     rms          rms(c)
DAV:   1    -0.181389338724E+03    0.69623E-04   -0.24145E-02 11088   0.285E-01    0.546E-02
RMM:   2    -0.181389804282E+03   -0.46556E-03   -0.11302E-03 10063   0.634E-02    0.229E-01
RMM:   3    -0.181389725372E+03    0.78910E-04   -0.19853E-04  6245   0.287E-02
  17 F= -.18138973E+03 E0= -.18138008E+03  d E =-.321721E-03
quench:  g(F)=  0.000E+00 g(S)=  0.000E+00 dE (1.order)= 0.000E+00
 bond charge predicted
       N       E                     dE             d eps       ncg     rms          rms(c)
DAV:   1    -0.181389455588E+03    0.34869E-03   -0.13762E-02 11088   0.229E-01    0.649E-02
RMM:   2    -0.181393663552E+03   -0.42080E-02   -0.14232E-03 10994   0.741E-02    0.768E-01
RMM:   3    -0.181389833823E+03    0.38297E-02   -0.44160E-04  8475   0.366E-02    0.193E-01
RMM:   4    -0.181389499912E+03    0.33391E-03   -0.15008E-04  6146   0.256E-02    0.561E-02
RMM:   5    -0.181389475802E+03    0.24110E-04   -0.38214E-05  5735   0.130E-02
  18 F= -.18138948E+03 E0= -.18137969E+03  d E =0.249570E-03
quench:  g(F)=  0.000E+00 g(S)=  0.000E+00 dE (1.order)= 0.000E+00
 bond charge predicted
       N       E                     dE             d eps       ncg     rms          rms(c)
DAV:   1    -0.181389542740E+03   -0.42828E-04   -0.78691E-03 11364   0.163E-01    0.411E-02
RMM:   2    -0.181389831530E+03   -0.28879E-03   -0.47540E-04  7258   0.444E-02    0.196E-01
RMM:   3    -0.181389925853E+03   -0.94323E-04   -0.14405E-04  6014   0.261E-02
  19 F= -.18138993E+03 E0= -.18138029E+03  d E =-.450050E-03
quench:  g(F)=  0.000E+00 g(S)=  0.000E+00 dE (1.order)= 0.000E+00
 bond charge predicted
       N       E                     dE             d eps       ncg     rms          rms(c)
DAV:   1    -0.181389624339E+03    0.20719E-03   -0.12907E-02 11166   0.232E-01    0.345E-02
RMM:   2    -0.181389832098E+03   -0.20776E-03   -0.45939E-04  6948   0.459E-02    0.157E-01
RMM:   3    -0.181389836897E+03   -0.47984E-05   -0.83588E-05  5873   0.196E-02
  20 F= -.18138984E+03 E0= -.18138016E+03  d E =0.889560E-04
quench:  g(F)=  0.000E+00 g(S)=  0.000E+00 dE (1.order)= 0.000E+00
 bond charge predicted
       N       E                     dE             d eps       ncg     rms          rms(c)
DAV:   1    -0.181389698683E+03    0.13342E-03   -0.18986E-02 11088   0.259E-01    0.519E-02
RMM:   2    -0.181391991941E+03   -0.22933E-02   -0.10674E-03 10441   0.638E-02    0.563E-01
RMM:   3    -0.181389887711E+03    0.21042E-02   -0.22399E-04  6419   0.276E-02    0.128E-01
RMM:   4    -0.181389751215E+03    0.13650E-03   -0.95543E-05  5964   0.206E-02    0.525E-02
RMM:   5    -0.181389733852E+03    0.17363E-04   -0.26316E-05  5619   0.109E-02
  21 F= -.18138973E+03 E0= -.18137995E+03  d E =0.103045E-03
quench:  g(F)=  0.000E+00 g(S)=  0.000E+00 dE (1.order)= 0.000E+00
 bond charge predicted
       N       E                     dE             d eps       ncg     rms          rms(c)
DAV:   1    -0.181389793268E+03   -0.42053E-04   -0.17233E-02 11112   0.235E-01    0.585E-02
RMM:   2    -0.181390950450E+03   -0.11572E-02   -0.11096E-03 10847   0.637E-02    0.388E-01
RMM:   3    -0.181390573571E+03    0.37688E-03   -0.27158E-04  6738   0.302E-02    0.321E-01
RMM:   4    -0.181389842850E+03    0.73072E-03   -0.12661E-04  6069   0.225E-02    0.347E-02
RMM:   5    -0.181389830956E+03    0.11894E-04   -0.33951E-05  5700   0.121E-02
  22 F= -.18138983E+03 E0= -.18138003E+03  d E =-.971040E-04
quench:  g(F)=  0.000E+00 g(S)=  0.000E+00 dE (1.order)= 0.000E+00
 bond charge predicted
       N       E                     dE             d eps       ncg     rms          rms(c)
DAV:   1    -0.181389878408E+03   -0.35558E-04   -0.10094E-02 11112   0.180E-01    0.337E-02
RMM:   2    -0.181390253580E+03   -0.37517E-03   -0.46895E-04  6854   0.412E-02    0.214E-01
RMM:   3    -0.181390085463E+03    0.16812E-03   -0.89800E-05  5926   0.199E-02    0.160E-01
RMM:   4    -0.181389910653E+03    0.17481E-03   -0.35560E-05  5743   0.124E-02    0.258E-02
RMM:   5    -0.181389906795E+03    0.38583E-05   -0.11235E-05  5143   0.726E-03
  23 F= -.18138991E+03 E0= -.18138012E+03  d E =-.758387E-04
quench:  g(F)=  0.000E+00 g(S)=  0.000E+00 dE (1.order)= 0.000E+00
 bond charge predicted
       N       E                     dE             d eps       ncg     rms          rms(c)
DAV:   1    -0.181389963841E+03   -0.53188E-04   -0.13012E-02 11148   0.213E-01    0.306E-02
RMM:   2    -0.181390115789E+03   -0.15195E-03   -0.39441E-04  6611   0.387E-02    0.131E-01
RMM:   3    -0.181390123699E+03   -0.79099E-05   -0.72737E-05  5865   0.191E-02
  24 F= -.18139012E+03 E0= -.18138042E+03  d E =-.216904E-03
quench:  g(F)=  0.000E+00 g(S)=  0.000E+00 dE (1.order)= 0.000E+00
 bond charge predicted
       N       E                     dE             d eps       ncg     rms          rms(c)
DAV:   1    -0.181390025848E+03    0.89941E-04   -0.15067E-02 11088   0.225E-01    0.388E-02
RMM:   2    -0.181390223895E+03   -0.19805E-03   -0.64469E-04  7172   0.476E-02    0.150E-01
RMM:   3    -0.181390251963E+03   -0.28067E-04   -0.78615E-05  5903   0.195E-02
  25 F= -.18139025E+03 E0= -.18138034E+03  d E =-.128264E-03
quench:  g(F)=  0.000E+00 g(S)=  0.000E+00 dE (1.order)= 0.000E+00
 bond charge predicted
       N       E                     dE             d eps       ncg     rms          rms(c)
DAV:   1    -0.181390121533E+03    0.10236E-03   -0.12159E-02 11178   0.214E-01    0.628E-02
RMM:   2    -0.181392481003E+03   -0.23595E-02   -0.11913E-03 10860   0.681E-02    0.561E-01
RMM:   3    -0.181390783325E+03    0.16977E-02   -0.36001E-04  7551   0.334E-02    0.295E-01
RMM:   4    -0.181390158008E+03    0.62532E-03   -0.15181E-04  6172   0.254E-02    0.457E-02
RMM:   5    -0.181390133063E+03    0.24945E-04   -0.33530E-05  5751   0.121E-02
  26 F= -.18139013E+03 E0= -.18138033E+03  d E =0.118900E-03
quench:  g(F)=  0.000E+00 g(S)=  0.000E+00 dE (1.order)= 0.000E+00
 bond charge predicted
       N       E                     dE             d eps       ncg     rms          rms(c)
DAV:   1    -0.181390190941E+03   -0.32933E-04   -0.82212E-03 11154   0.164E-01    0.407E-02
RMM:   2    -0.181391103257E+03   -0.91232E-03   -0.52957E-04  7790   0.450E-02    0.340E-01
RMM:   3    -0.181390439144E+03    0.66411E-03   -0.14472E-04  6025   0.239E-02    0.182E-01
RMM:   4    -0.181390209099E+03    0.23005E-03   -0.74205E-05  5805   0.177E-02    0.225E-02
RMM:   5    -0.181390206668E+03    0.24314E-05   -0.15834E-05  5608   0.833E-03
  27 F= -.18139021E+03 E0= -.18138042E+03  d E =-.736051E-04
quench:  g(F)=  0.000E+00 g(S)=  0.000E+00 dE (1.order)= 0.000E+00
 bond charge predicted
       N       E                     dE             d eps       ncg     rms          rms(c)
DAV:   1    -0.181390263290E+03   -0.54191E-04   -0.12927E-02 11094   0.212E-01    0.278E-02
RMM:   2    -0.181390410757E+03   -0.14747E-03   -0.36373E-04  6507   0.368E-02    0.126E-01
RMM:   3    -0.181390380656E+03    0.30101E-04   -0.48697E-05  5816   0.156E-02
  28 F= -.18139038E+03 E0= -.18138052E+03  d E =-.173988E-03
quench:  g(F)=  0.000E+00 g(S)=  0.000E+00 dE (1.order)= 0.000E+00
 bond charge predicted
       N       E                     dE             d eps       ncg     rms          rms(c)
DAV:   1    -0.181390330400E+03    0.80357E-04   -0.18128E-02 11178   0.248E-01    0.464E-02
RMM:   2    -0.181391647287E+03   -0.13169E-02   -0.82811E-04  8438   0.552E-02    0.421E-01
RMM:   3    -0.181390545166E+03    0.11021E-02   -0.17625E-04  6183   0.263E-02    0.151E-01
RMM:   4    -0.181390383862E+03    0.16130E-03   -0.63842E-05  5927   0.169E-02    0.455E-02
RMM:   5    -0.181390366700E+03    0.17162E-04   -0.21179E-05  5733   0.976E-03
  29 F= -.18139037E+03 E0= -.18138056E+03  d E =0.139557E-04
quench:  g(F)=  0.000E+00 g(S)=  0.000E+00 dE (1.order)= 0.000E+00
 bond charge predicted
       N       E                     dE             d eps       ncg     rms          rms(c)
DAV:   1    -0.181390411945E+03   -0.28083E-04   -0.13884E-02 11106   0.209E-01    0.460E-02
RMM:   2    -0.181390970469E+03   -0.55852E-03   -0.74074E-04  8516   0.524E-02    0.258E-01
RMM:   3    -0.181390830837E+03    0.13963E-03   -0.15070E-04  6062   0.245E-02    0.237E-01
RMM:   4    -0.181390450681E+03    0.38016E-03   -0.75213E-05  5786   0.175E-02    0.309E-02
RMM:   5    -0.181390446421E+03    0.42594E-05   -0.22716E-05  5666   0.102E-02
  30 F= -.18139045E+03 E0= -.18138065E+03  d E =-.797215E-04
quench:  g(F)=  0.000E+00 g(S)=  0.000E+00 dE (1.order)= 0.000E+00
 bond charge predicted
       N       E                     dE             d eps       ncg     rms          rms(c)
DAV:   1    -0.181390486889E+03   -0.36208E-04   -0.67083E-03 11292   0.143E-01    0.272E-02
RMM:   2    -0.181390646180E+03   -0.15929E-03   -0.31558E-04  6399   0.337E-02    0.135E-01
RMM:   3    -0.181390620876E+03    0.25305E-04   -0.52352E-05  5849   0.159E-02
  31 F= -.18139062E+03 E0= -.18138074E+03  d E =-.174454E-03
quench:  g(F)=  0.000E+00 g(S)=  0.000E+00 dE (1.order)= 0.000E+00
 bond charge predicted
       N       E                     dE             d eps       ncg     rms          rms(c)
DAV:   1    -0.181390555492E+03    0.90688E-04   -0.94325E-03 11136   0.190E-01    0.371E-02
RMM:   2    -0.181391683288E+03   -0.11278E-02   -0.45499E-04  7052   0.447E-02    0.393E-01
RMM:   3    -0.181390699494E+03    0.98379E-03   -0.14218E-04  6050   0.246E-02    0.127E-01
RMM:   4    -0.181390578883E+03    0.12061E-03   -0.43697E-05  5777   0.141E-02    0.312E-02
RMM:   5    -0.181390569886E+03    0.89973E-05   -0.97337E-06  4919   0.704E-03
  32 F= -.18139057E+03 E0= -.18138075E+03  d E =0.509898E-04
quench:  g(F)=  0.000E+00 g(S)=  0.000E+00 dE (1.order)= 0.000E+00
 bond charge predicted
       N       E                     dE             d eps       ncg     rms          rms(c)
DAV:   1    -0.181390617453E+03   -0.38570E-04   -0.13962E-02 11154   0.211E-01    0.343E-02
RMM:   2    -0.181390765878E+03   -0.14843E-03   -0.49324E-04  6786   0.410E-02    0.121E-01
RMM:   3    -0.181390832378E+03   -0.66500E-04   -0.77347E-05  5896   0.190E-02
  33 F= -.18139083E+03 E0= -.18138112E+03  d E =-.262492E-03
quench:  g(F)=  0.000E+00 g(S)=  0.000E+00 dE (1.order)= 0.000E+00
 bond charge predicted
       N       E                     dE             d eps       ncg     rms          rms(c)
DAV:   1    -0.181390680861E+03    0.85017E-04   -0.10813E-02 11196   0.198E-01    0.396E-02
RMM:   2    -0.181391112934E+03   -0.43207E-03   -0.58347E-04  7298   0.484E-02    0.243E-01
RMM:   3    -0.181390914783E+03    0.19815E-03   -0.99676E-05  5950   0.212E-02    0.166E-01
RMM:   4    -0.181390717788E+03    0.19700E-03   -0.51024E-05  5687   0.147E-02    0.362E-02
RMM:   5    -0.181390707410E+03    0.10378E-04   -0.16016E-05  5620   0.862E-03
  34 F= -.18139071E+03 E0= -.18138090E+03  d E =0.124969E-03
quench:  g(F)=  0.000E+00 g(S)=  0.000E+00 dE (1.order)= 0.000E+00
 bond charge predicted
       N       E                     dE             d eps       ncg     rms          rms(c)
DAV:   1    -0.181390754137E+03   -0.36349E-04   -0.58142E-03 11124   0.132E-01    0.309E-02
RMM:   2    -0.181390906257E+03   -0.15212E-03   -0.31923E-04  6459   0.344E-02    0.132E-01
RMM:   3    -0.181390898677E+03    0.75807E-05   -0.73034E-05  5866   0.193E-02
  35 F= -.18139090E+03 E0= -.18138100E+03  d E =-.191267E-03
quench:  g(F)=  0.000E+00 g(S)=  0.000E+00 dE (1.order)= 0.000E+00
 bond charge predicted
       N       E                     dE             d eps       ncg     rms          rms(c)
DAV:   1    -0.181390818381E+03    0.87876E-04   -0.92115E-03 11118   0.190E-01    0.411E-02
RMM:   2    -0.181392821942E+03   -0.20036E-02   -0.54744E-04  8026   0.483E-02    0.526E-01
RMM:   3    -0.181390958270E+03    0.18637E-02   -0.21014E-04  6302   0.284E-02    0.120E-01
RMM:   4    -0.181390841633E+03    0.11664E-03   -0.54683E-05  5910   0.158E-02    0.356E-02
RMM:   5    -0.181390831120E+03    0.10513E-04   -0.12047E-05  5442   0.768E-03
  36 F= -.18139083E+03 E0= -.18138101E+03  d E =0.675562E-04
quench:  g(F)=  0.000E+00 g(S)=  0.000E+00 dE (1.order)= 0.000E+00
 bond charge predicted
       N       E                     dE             d eps       ncg     rms          rms(c)
DAV:   1    -0.181390877734E+03   -0.36101E-04   -0.13354E-02 11100   0.206E-01    0.344E-02
RMM:   2    -0.181390993307E+03   -0.11557E-03   -0.47448E-04  6700   0.401E-02    0.108E-01
RMM:   3    -0.181390917556E+03    0.75752E-04   -0.80177E-05  5763   0.208E-02
  37 F= -.18139092E+03 E0= -.18138112E+03  d E =-.864352E-04
quench:  g(F)=  0.000E+00 g(S)=  0.000E+00 dE (1.order)= 0.000E+00
 bond charge predicted
       N       E                     dE             d eps       ncg     rms          rms(c)
DAV:   1    -0.181390995640E+03   -0.23328E-05   -0.11222E-02 11130   0.193E-01    0.101E-01
RMM:   2    -0.181422987797E+03   -0.31992E-01   -0.39432E-03 11087   0.109E-01    0.211E+00
RMM:   3    -0.181391552848E+03    0.31435E-01   -0.25670E-03 10880   0.855E-02    0.839E-02
RMM:   4    -0.181391028668E+03    0.52418E-03   -0.20324E-04  6378   0.335E-02    0.952E-02
RMM:   5    -0.181390969883E+03    0.58785E-04   -0.63555E-05  5884   0.183E-02
  38 F= -.18139097E+03 E0= -.18138118E+03  d E =-.523272E-04
quench:  g(F)=  0.000E+00 g(S)=  0.000E+00 dE (1.order)= 0.000E+00
 bond charge predicted
       N       E                     dE             d eps       ncg     rms          rms(c)
DAV:   1    -0.181391016946E+03    0.11722E-04   -0.54909E-03 11283   0.127E-01    0.415E-02
RMM:   2    -0.181391406798E+03   -0.38985E-03   -0.45482E-04  7339   0.428E-02    0.234E-01
RMM:   3    -0.181391413450E+03   -0.66526E-05   -0.14938E-04  6031   0.261E-02
  39 F= -.18139141E+03 E0= -.18138174E+03  d E =-.443567E-03
quench:  g(F)=  0.000E+00 g(S)=  0.000E+00 dE (1.order)= 0.000E+00
 bond charge predicted
       N       E                     dE             d eps       ncg     rms          rms(c)
DAV:   1    -0.181391067850E+03    0.33895E-03   -0.75300E-03 11178   0.191E-01    0.296E-02
RMM:   2    -0.181391203147E+03   -0.13530E-03   -0.31316E-04  6372   0.411E-02    0.132E-01
RMM:   3    -0.181391227166E+03   -0.24019E-04   -0.56640E-05  5888   0.169E-02
  40 F= -.18139123E+03 E0= -.18138131E+03  d E =0.186284E-03
quench:  g(F)=  0.000E+00 g(S)=  0.000E+00 dE (1.order)= 0.000E+00
 bond charge predicted
       N       E                     dE             d eps       ncg     rms          rms(c)
DAV:   1    -0.181391134549E+03    0.68598E-04   -0.10163E-02 11232   0.193E-01    0.383E-02
RMM:   2    -0.181391347490E+03   -0.21294E-03   -0.44973E-04  6796   0.418E-02    0.167E-01
RMM:   3    -0.181391331389E+03    0.16101E-04   -0.82309E-05  5909   0.198E-02
  41 F= -.18139133E+03 E0= -.18138142E+03  d E =-.104223E-03
quench:  g(F)=  0.000E+00 g(S)=  0.000E+00 dE (1.order)= 0.000E+00
 bond charge predicted
       N       E                     dE             d eps       ncg     rms          rms(c)
DAV:   1    -0.181391202054E+03    0.14544E-03   -0.14751E-02 11148   0.238E-01    0.687E-02
RMM:   2    -0.181400374336E+03   -0.91723E-02   -0.16393E-03 11077   0.782E-02    0.114E+00
RMM:   3    -0.181391511209E+03    0.88631E-02   -0.82351E-04 10401   0.488E-02    0.145E-01
RMM:   4    -0.181391234689E+03    0.27652E-03   -0.12445E-04  6148   0.245E-02    0.513E-02
RMM:   5    -0.181391216872E+03    0.17817E-04   -0.32393E-05  5779   0.125E-02
  42 F= -.18139122E+03 E0= -.18138139E+03  d E =0.114517E-03
quench:  g(F)=  0.000E+00 g(S)=  0.000E+00 dE (1.order)= 0.000E+00
 bond charge predicted
       N       E                     dE             d eps       ncg     rms          rms(c)
DAV:   1    -0.181391259123E+03   -0.24434E-04   -0.85933E-03 11124   0.155E-01    0.404E-02
RMM:   2    -0.181391517099E+03   -0.25798E-03   -0.52242E-04  7051   0.439E-02    0.174E-01
RMM:   3    -0.181391337741E+03    0.17936E-03   -0.13154E-04  6015   0.263E-02    0.907E-02
RMM:   4    -0.181391294312E+03    0.43428E-04   -0.18425E-05  5630   0.833E-03
  43 F= -.18139129E+03 E0= -.18138144E+03  d E =-.774400E-04
quench:  g(F)=  0.000E+00 g(S)=  0.000E+00 dE (1.order)= 0.000E+00
 bond charge predicted
       N       E                     dE             d eps       ncg     rms          rms(c)
DAV:   1    -0.181391319462E+03    0.18278E-04   -0.57321E-03 11214   0.138E-01    0.268E-02
RMM:   2    -0.181391590228E+03   -0.27077E-03   -0.27425E-04  6384   0.324E-02    0.182E-01
RMM:   3    -0.181391422747E+03    0.16748E-03   -0.53597E-05  5864   0.154E-02    0.113E-01
RMM:   4    -0.181391336062E+03    0.86686E-04   -0.26267E-05  5609   0.107E-02
  44 F= -.18139134E+03 E0= -.18138152E+03  d E =-.417494E-04
quench:  g(F)=  0.000E+00 g(S)=  0.000E+00 dE (1.order)= 0.000E+00
 reached required accuracy - stopping structural energy minimisation
