 vasp.5.4.4.18Apr17-6-g9f103f2a35 (build Feb 06 2024 13:54:16) complex          
  
 POSCAR found type information on POSCAR  Cu Ru Cu N  O 
 05/POSCAR found :  5 types and      40 ions
 scaLAPACK will be used

 ----------------------------------------------------------------------------- 
|                                                                             |
|  ADVICE TO THIS USER RUNNING 'VASP/VAMP'   (HEAR YOUR MASTER'S VOICE ...):  |
|                                                                             |
|      You enforced a specific xc-type in the INCAR file,                     |
|      a different type was found on the POTCAR file                          |
|          I HOPE YOU KNOW, WHAT YOU ARE  DOING                               |
|                                                                             |
 ----------------------------------------------------------------------------- 

 LDA part: xc-table for Pade appr. of Perdew
 POSCAR found type information on POSCAR  Cu Ru Cu N  O 
 00/POSCAR found :  5 types and      40 ions
 POSCAR found type information on POSCAR  Cu Ru Cu N  O 
 06/POSCAR found :  5 types and      40 ions
 Jacobian:    20.5888137679208     
 POSCAR, INCAR and KPOINTS ok, starting setup
 FFT: planning ...
 WAVECAR not read
 entering main loop
       N       E                     dE             d eps       ncg     rms          rms(c)
  Solvation turned off during non-self-consistent phase (first NELMDL steps)
DAV:   1     0.439705988295E+04    0.43971E+04   -0.18059E+05  4080   0.203E+03
DAV:   2     0.631366652201E+03   -0.37657E+04   -0.36338E+04  4098   0.472E+02
DAV:   3    -0.327979382883E+02   -0.66416E+03   -0.61384E+03  4809   0.236E+02
DAV:   4    -0.152684324232E+03   -0.11989E+03   -0.10700E+03  7161   0.933E+01
DAV:   5    -0.166120702793E+03   -0.13436E+02   -0.12788E+02  6306   0.310E+01    0.458E+01
 Begin Solvation calculations
  rms_SCF =    6.86185471395350      tol =   0.686185471395350     
 Begin minimization
 Creating dielectric and ionic cavities
  area:      162.197515338589     
  volume:    679.509598581353     
  Acav:     8.515369555275927E-002
  Solving linear dielectric/ionic screening model
        iter                  A_solv                     rms
   LPB:       -0.367480894697599E+03   0.235959992544558E+03
   LPB:    0  -0.111527890628850E+02   0.442107468225880E+02  -0.465857E+01   0.000000E+00   0.328379E+02  -0.152978E+03
   LPB:    1  -0.198725401518135E+01   0.741958942601749E+01   0.103458E-01   0.000000E+00   0.849331E+02  -0.119367E-13
   LPB:    2  -0.745033449832135E+00   0.113956159333946E+01   0.139407E-01   0.100581E+00   0.343142E+03  -0.135922E-13
   LPB:    3  -0.464320305462763E+00   0.141837618858194E+01   0.270442E-01   0.116486E+00   0.572953E+03  -0.954038E-14
   LPB:    4  -0.374602631139965E+00   0.113965362108022E+01   0.245326E-01   0.352327E+00   0.824157E+02  -0.639549E-14
   LPB:    5  -0.328955077826379E+00   0.657826953573139E+00   0.230426E-01   0.541692E+00   0.467558E+03  -0.198377E-14
  Finished solving LPB equations
  A_corr:   -0.243801382273620     
 End minimization
 Ecorr=   1828.47524889537     
 A_corr= -0.243801382273620     
 Ecorr_band=  -1828.71905027765     
 End Solvation calculations
RMM:   6    -0.166470555591E+03   -0.34985E+00   -0.36073E+02  4158   0.934E+01    0.369E+01
 Begin Solvation calculations
  rms_SCF =    6.86185471395350      tol =   0.686185471395350     
 Begin minimization
 Creating dielectric and ionic cavities
  area:      165.684121873731     
  volume:    695.734930893015     
  Acav:     8.698416398370866E-002
  Solving linear dielectric/ionic screening model
        iter                  A_solv                     rms
   LPB:       -0.183532603415025E+02   0.739739226811237E+02
   LPB:    0  -0.172088530194216E+02   0.718377599060426E+02   0.267120E+00   0.000000E+00   0.320772E+02   0.856848E+01
   LPB:    1  -0.164216267591029E+01   0.652011589097399E+01   0.902539E-02   0.000000E+00   0.737605E+02   0.816412E-15
   LPB:    2  -0.478791555848630E+00   0.148706158691833E+01   0.155205E-01   0.434592E-01   0.153564E+03   0.199172E-13
   LPB:    3  -0.312741365721312E+00   0.954274808268924E+00   0.235287E-01   0.941519E-01   0.157829E+03   0.243015E-13
   LPB:    4  -0.263711706732504E+00   0.856917527029693E+00   0.224919E-01   0.308881E+00   0.266378E+03   0.242188E-13
   LPB:    5  -0.239315074194483E+00   0.350918394821514E+00   0.246122E-01   0.454723E+00   0.111411E+03   0.211807E-13
  Finished solving LPB equations
  A_corr:   -0.152330910210774     
 End minimization
 Ecorr=   1735.54995710693     
 A_corr= -0.152330910210774     
 Ecorr_band=  -1735.70228801714     
 End Solvation calculations
RMM:   7    -0.156561581812E+03    0.99090E+01   -0.99929E+01  4238   0.470E+01    0.313E+01
 Begin Solvation calculations
  rms_SCF =    6.86185471395350      tol =   0.686185471395350     
 Begin minimization
 Creating dielectric and ionic cavities
  area:      157.456861639801     
  volume:    696.298296242738     
  Acav:     8.266485236089577E-002
  Solving linear dielectric/ionic screening model
        iter                  A_solv                     rms
   LPB:       -0.458354482689301E+01   0.365179228782519E+02
   LPB:    0  -0.458272581333878E+01   0.365240986775134E+02   0.714893E-02   0.000000E+00   0.320508E+02   0.229129E+00
   LPB:    1  -0.589027186820187E+00   0.342032025993190E+01   0.905223E-02   0.000000E+00   0.730406E+02   0.136289E-16
   LPB:    2  -0.269376554922190E+00   0.508301314678040E+00   0.157764E-01   0.459249E-01   0.145265E+03  -0.573104E-15
   LPB:    3  -0.222516464775761E+00   0.260794144829803E+00   0.238502E-01   0.969714E-01   0.337961E+03   0.250979E-14
   LPB:    4  -0.210885820551631E+00   0.133996765605160E+00   0.270422E-01   0.218903E+00   0.243974E+03   0.400146E-14
  Finished solving LPB equations
  A_corr:   -0.128220968190736     
 End minimization
 Ecorr=   1713.52423721882     
 A_corr= -0.128220968190736     
 Ecorr_band=  -1713.65245818701     
 End Solvation calculations
RMM:   8    -0.141759534647E+03    0.14802E+02   -0.54407E+00  4178   0.908E+00    0.167E+01
 Begin Solvation calculations
  rms_SCF =    6.02010946143763      tol =   0.602010946143763     
 Begin minimization
 Creating dielectric and ionic cavities
  area:      158.717630118382     
  volume:    696.088583229030     
  Acav:     8.332675581215071E-002
  Solving linear dielectric/ionic screening model
        iter                  A_solv                     rms
   LPB:       -0.640664908435338E+00   0.104779836818248E+02
   LPB:    0  -0.640387740134682E+00   0.105097402929750E+02   0.415815E-02   0.000000E+00   0.320607E+02   0.133313E+00
   LPB:    1  -0.292661803218414E+00   0.120146600700168E+01   0.920003E-02   0.000000E+00   0.726085E+02   0.151691E-17
   LPB:    2  -0.245251366513519E+00   0.299001019669446E+00   0.196045E-01   0.639838E-01   0.989669E+02   0.578978E-15
   LPB:    3  -0.233821182691804E+00   0.288444117485830E+00   0.251304E-01   0.188077E+00   0.326759E+03  -0.187303E-14
   LPB:    4  -0.227703369247600E+00   0.227808742935288E+00   0.330243E-01   0.407295E+00   0.600482E+02  -0.248098E-14
  Finished solving LPB equations
  A_corr:   -0.144376613435450     
 End minimization
 Ecorr=   1676.07741201206     
 A_corr= -0.144376613435450     
 Ecorr_band=  -1676.22178862549     
 End Solvation calculations
RMM:   9    -0.140054143232E+03    0.17054E+01   -0.91885E+00  4183   0.114E+01    0.963E+00
 Begin Solvation calculations
  rms_SCF =    6.02010946143763      tol =   0.602010946143763     
 Begin minimization
 Creating dielectric and ionic cavities
  area:      150.522400426795     
  volume:    693.877675059305     
  Acav:     7.902426022406750E-002
  Solving linear dielectric/ionic screening model
        iter                  A_solv                     rms
   LPB:       -0.229055076364047E+01   0.242525963669390E+02
   LPB:    0  -0.228295639659051E+01   0.242661676973782E+02   0.217307E-01   0.000000E+00   0.321643E+02   0.698953E+00
   LPB:    1  -0.477545868401391E+00   0.231440215402556E+01   0.915474E-02   0.000000E+00   0.731051E+02  -0.290828E-17
   LPB:    2  -0.320947083094835E+00   0.370398842847789E+00   0.155252E-01   0.511471E-01   0.161950E+03   0.132336E-14
   LPB:    3  -0.296177935035031E+00   0.200967606407520E+00   0.252298E-01   0.973299E-01   0.295298E+03   0.545574E-14
   LPB:    4  -0.287039372960973E+00   0.139416895137787E+00   0.318896E-01   0.291898E+00   0.184866E+03   0.594789E-14
  Finished solving LPB equations
  A_corr:   -0.208015112736906     
 End minimization
 Ecorr=   1646.27314644720     
 A_corr= -0.208015112736906     
 Ecorr_band=  -1646.48116155994     
 End Solvation calculations
RMM:  10    -0.138310738598E+03    0.17434E+01   -0.23643E+00  4231   0.669E+00    0.780E+00
 Begin Solvation calculations
  rms_SCF =    3.22455484550599      tol =   0.322455484550599     
 Begin minimization
 Creating dielectric and ionic cavities
  area:      144.423766625042     
  volume:    690.577758976871     
  Acav:     7.582247747814701E-002
  Solving linear dielectric/ionic screening model
        iter                  A_solv                     rms
   LPB:       -0.391743243648890E+00   0.199875329455144E+01
   LPB:    0  -0.391646243637016E+00   0.192061449496283E+01  -0.245003E-02   0.000000E+00   0.323190E+02  -0.791826E-01
   LPB:    1  -0.331419226957426E+00   0.827056401010427E+00   0.152203E-01   0.000000E+00   0.108238E+03   0.143059E-17
   LPB:    2  -0.323176714232513E+00   0.408016665182670E+00   0.159756E-01   0.130387E+00   0.128615E+03  -0.432727E-14
   LPB:    3  -0.315923834249815E+00   0.262069405834424E+00   0.306702E-01   0.458345E+00   0.107961E+03  -0.501792E-14
   LPB:    4  -0.309998615858394E+00   0.423624179832372E+00   0.332939E-01   0.752568E+00   0.464609E+02  -0.657754E-14
   LPB:    5  -0.305577412529951E+00   0.237148814068836E+00   0.244942E-01   0.101423E+01   0.151089E+03  -0.770855E-14
  Finished solving LPB equations
  A_corr:   -0.229754935051804     
 End minimization
 Ecorr=   1613.00251303298     
 A_corr= -0.229754935051804     
 Ecorr_band=  -1613.23226796803     
 End Solvation calculations
RMM:  11    -0.137755735083E+03    0.55500E+00   -0.59391E-01  4240   0.229E+00    0.270E+00
 Begin Solvation calculations
  rms_SCF =   0.420787955477781      tol =   4.207879554777806E-002
 Begin minimization
 Creating dielectric and ionic cavities
  area:      142.641818196491     
  volume:    687.113959433954     
  Acav:     7.488695455315779E-002
  Solving linear dielectric/ionic screening model
        iter                  A_solv                     rms
   LPB:       -0.387433205299048E+00   0.111384044949262E+01
   LPB:    0  -0.386528298162460E+00   0.138764482122950E+01   0.746448E-02   0.000000E+00   0.324814E+02   0.242457E+00
   LPB:    1  -0.342681891196972E+00   0.476165561496404E+00   0.161918E-01   0.000000E+00   0.119350E+03  -0.511321E-17
   LPB:    2  -0.337522172180663E+00   0.268817887574004E+00   0.162690E-01   0.117119E+00   0.212466E+03   0.937520E-15
   LPB:    3  -0.334933994663394E+00   0.190451614950521E+00   0.289847E-01   0.281553E+00   0.747008E+02   0.208997E-14
   LPB:    4  -0.332135443350635E+00   0.281967115541917E+00   0.435486E-01   0.719671E+00   0.101644E+03   0.348651E-14
   LPB:    5  -0.329979673377269E+00   0.275091346358155E+00   0.255990E-01   0.131045E+01   0.764681E+02   0.534030E-14
   LPB:    6  -0.328151462550644E+00   0.943405916382911E-01   0.243014E-01   0.893337E+00   0.627104E+02   0.665526E-14
   LPB:    7  -0.326953317140403E+00   0.496878897904817E-01   0.305147E-01   0.521920E+00   0.122848E+03   0.730741E-14
   LPB:    8  -0.326271221503431E+00   0.260793213326643E-01   0.332691E-01   0.522160E+00   0.144508E+03   0.774764E-14
  Finished solving LPB equations
  A_corr:   -0.251384266950273     
 End minimization
 Ecorr=   1578.16075540328     
 A_corr= -0.251384266950273     
 Ecorr_band=  -1578.41213967023     
 End Solvation calculations
RMM:  12    -0.137708712754E+03    0.47022E-01   -0.26041E-01  4185   0.210E+00    0.195E+00
 Begin Solvation calculations
  rms_SCF =   0.388080256371550      tol =   3.880802563715500E-002
 Begin minimization
 Creating dielectric and ionic cavities
  area:      141.984844170641     
  volume:    683.209986509957     
  Acav:     7.454204318958653E-002
  Solving linear dielectric/ionic screening model
        iter                  A_solv                     rms
   LPB:       -0.399045478689276E+00   0.161041939309635E+01
   LPB:    0  -0.398940721671102E+00   0.152537159368090E+01  -0.253261E-02   0.000000E+00   0.326644E+02  -0.827264E-01
   LPB:    1  -0.361282831298903E+00   0.704300299004077E+00   0.142257E-01   0.000000E+00   0.123735E+03  -0.226857E-17
   LPB:    2  -0.356239540976366E+00   0.201594293728251E+00   0.145233E-01   0.131180E+00   0.133001E+03   0.264506E-14
   LPB:    3  -0.354637324430248E+00   0.130778792509130E+00   0.200656E-01   0.229942E+00   0.296932E+03   0.290068E-14
   LPB:    4  -0.354085267061526E+00   0.107343239239939E+00   0.206931E-01   0.334111E+00   0.112661E+03   0.277598E-14
   LPB:    5  -0.353687277394693E+00   0.806714259042313E-01   0.281618E-01   0.529727E+00   0.274949E+03   0.338131E-14
   LPB:    6  -0.353266557133861E+00   0.345535002231437E-01   0.412240E-01   0.722159E+00   0.781671E+02   0.372695E-14
  Finished solving LPB equations
  A_corr:   -0.278724513944274     
 End minimization
 Ecorr=   1565.18747116658     
 A_corr= -0.278724513944274     
 Ecorr_band=  -1565.46619568053     
 End Solvation calculations
RMM:  13    -0.137715309523E+03   -0.65968E-02   -0.14324E-01  4187   0.167E+00    0.182E+00
 Begin Solvation calculations
  rms_SCF =   0.369696424208956      tol =   3.696964242089558E-002
 Begin minimization
 Creating dielectric and ionic cavities
  area:      142.308699090365     
  volume:    679.504273828538     
  Acav:     7.471206702244186E-002
  Solving linear dielectric/ionic screening model
        iter                  A_solv                     rms
   LPB:       -0.446880337766738E+00   0.162470863765041E+01
   LPB:    0  -0.446879740489700E+00   0.163082164304873E+01   0.190728E-03   0.000000E+00   0.328382E+02   0.626314E-02
   LPB:    1  -0.397077579022430E+00   0.827280810457286E+00   0.145495E-01   0.000000E+00   0.139030E+03  -0.644186E-19
   LPB:    2  -0.390813800897971E+00   0.238048341779054E+00   0.141857E-01   0.128998E+00   0.116591E+03  -0.181553E-14
   LPB:    3  -0.388841164621497E+00   0.141196589586629E+00   0.197570E-01   0.226121E+00   0.247460E+03  -0.287491E-14
   LPB:    4  -0.387919360436812E+00   0.150270587323976E+00   0.252286E-01   0.365947E+00   0.930505E+02  -0.400940E-14
   LPB:    5  -0.387121881044185E+00   0.117259933139664E+00   0.286724E-01   0.761221E+00   0.238970E+03  -0.334682E-14
   LPB:    6  -0.386399868969634E+00   0.473665342673708E-01   0.358285E-01   0.724536E+00   0.653486E+02  -0.234876E-14
   LPB:    7  -0.385853766332341E+00   0.305292284053960E-01   0.360902E-01   0.750878E+00   0.158877E+03  -0.317688E-15
  Finished solving LPB equations
  A_corr:   -0.311141699309900     
 End minimization
 Ecorr=   1546.69112439158     
 A_corr= -0.311141699309900     
 Ecorr_band=  -1547.00226609089     
 End Solvation calculations
RMM:  14    -0.137698007833E+03    0.17302E-01   -0.62828E-02  4200   0.109E+00    0.138E+00
 Begin Solvation calculations
  rms_SCF =   0.274684261489663      tol =   2.746842614896629E-002
 Begin minimization
 Creating dielectric and ionic cavities
  area:      142.617786096495     
  volume:    677.653085780897     
  Acav:     7.487433770066007E-002
  Solving linear dielectric/ionic screening model
        iter                  A_solv                     rms
   LPB:       -0.425576732916034E+00   0.789725516639643E+00
   LPB:    0  -0.425503472138982E+00   0.858744645007143E+00   0.210954E-02   0.000000E+00   0.329249E+02   0.694566E-01
   LPB:    1  -0.407680053511166E+00   0.433412359967693E+00   0.153269E-01   0.000000E+00   0.159122E+03  -0.713835E-17
   LPB:    2  -0.405507447119054E+00   0.154628499857045E+00   0.151464E-01   0.123349E+00   0.111763E+03  -0.163057E-14
   LPB:    3  -0.404869000984367E+00   0.781207389442015E-01   0.189973E-01   0.234294E+00   0.204699E+03  -0.170223E-14
   LPB:    4  -0.404587761842056E+00   0.928084021186580E-01   0.245205E-01   0.341282E+00   0.112052E+03  -0.211046E-14
   LPB:    5  -0.404285727802204E+00   0.893352751142774E-01   0.310030E-01   0.849386E+00   0.206458E+03  -0.221697E-14
   LPB:    6  -0.403882049258223E+00   0.396158570809308E-01   0.416292E-01   0.995373E+00   0.463645E+02  -0.232539E-14
   LPB:    7  -0.403562640926996E+00   0.245867412589379E-01   0.353055E-01   0.932965E+00   0.112312E+03  -0.272333E-14
  Finished solving LPB equations
  A_corr:   -0.328688303226336     
 End minimization
 Ecorr=   1534.39878422550     
 A_corr= -0.328688303226336     
 Ecorr_band=  -1534.72747252872     
 End Solvation calculations
RMM:  15    -0.137683766455E+03    0.14241E-01   -0.23301E-02  4250   0.632E-01    0.877E-01
 Begin Solvation calculations
  rms_SCF =   0.194712298815350      tol =   1.947122988153498E-002
 Begin minimization
 Creating dielectric and ionic cavities
  area:      142.860403592201     
  volume:    676.192585936334     
  Acav:     7.500171188590565E-002
  Solving linear dielectric/ionic screening model
        iter                  A_solv                     rms
   LPB:       -0.436983949590061E+00   0.835874326647019E+00
   LPB:    0  -0.436982300698391E+00   0.825058454214148E+00  -0.316153E-03   0.000000E+00   0.329934E+02  -0.104310E-01
   LPB:    1  -0.422114566204098E+00   0.381486055373464E+00   0.151913E-01   0.000000E+00   0.147324E+03   0.372932E-18
   LPB:    2  -0.420268395321902E+00   0.125791542387093E+00   0.150979E-01   0.124941E+00   0.115017E+03  -0.242171E-15
   LPB:    3  -0.419821425036903E+00   0.649333371874828E-01   0.189950E-01   0.192435E+00   0.195695E+03  -0.931938E-15
   LPB:    4  -0.419660077206854E+00   0.687261182750192E-01   0.219708E-01   0.312088E+00   0.135114E+03  -0.942453E-15
   LPB:    5  -0.419529210791016E+00   0.588673577650861E-01   0.261846E-01   0.680558E+00   0.214587E+03  -0.100680E-14
   LPB:    6  -0.419373885595692E+00   0.245081925629173E-01   0.387366E-01   0.802303E+00   0.599659E+02  -0.137844E-14
   LPB:    7  -0.419229483377221E+00   0.169696503051135E-01   0.395454E-01   0.910663E+00   0.115887E+03  -0.181660E-14
  Finished solving LPB equations
  A_corr:   -0.344227771491315     
 End minimization
 Ecorr=   1526.06310222106     
 A_corr= -0.344227771491315     
 Ecorr_band=  -1526.40732999256     
 End Solvation calculations
RMM:  16    -0.137678326406E+03    0.54400E-02   -0.11304E-02  4362   0.321E-01    0.356E-01
 Begin Solvation calculations
  rms_SCF =   0.194712298815350      tol =   1.947122988153498E-002
 Begin minimization
 Creating dielectric and ionic cavities
  area:      143.067760919090     
  volume:    675.292692643469     
  Acav:     7.511057448252204E-002
  Solving linear dielectric/ionic screening model
        iter                  A_solv                     rms
   LPB:       -0.443351468621461E+00   0.704469905086473E+00
   LPB:    0  -0.443341613966581E+00   0.679634414512282E+00  -0.772404E-03   0.000000E+00   0.330356E+02  -0.255168E-01
   LPB:    1  -0.433352332309816E+00   0.307228526218876E+00   0.152688E-01   0.000000E+00   0.150197E+03  -0.704809E-18
   LPB:    2  -0.432129718432880E+00   0.107106272702735E+00   0.150612E-01   0.124080E+00   0.110438E+03  -0.202274E-14
   LPB:    3  -0.431833932418199E+00   0.563397002823150E-01   0.190103E-01   0.191673E+00   0.183511E+03  -0.248613E-14
   LPB:    4  -0.431717050781065E+00   0.561469806683011E-01   0.224901E-01   0.334014E+00   0.132981E+03  -0.286910E-14
   LPB:    5  -0.431621117527671E+00   0.515166246867975E-01   0.267258E-01   0.690690E+00   0.209940E+03  -0.296817E-14
   LPB:    6  -0.431507355727189E+00   0.219940500642580E-01   0.373539E-01   0.848444E+00   0.591454E+02  -0.302351E-14
   LPB:    7  -0.431406722780378E+00   0.139150108054776E-01   0.382587E-01   0.863673E+00   0.129085E+03  -0.287718E-14
  Finished solving LPB equations
  A_corr:   -0.356296148297856     
 End minimization
 Ecorr=   1519.85380696393     
 A_corr= -0.356296148297856     
 Ecorr_band=  -1520.21010311223     
 End Solvation calculations
RMM:  17    -0.137679251991E+03   -0.92559E-03   -0.44773E-03  4699   0.167E-01    0.218E-01
 Begin Solvation calculations
  rms_SCF =   0.194712298815350      tol =   1.947122988153498E-002
 Begin minimization
 Creating dielectric and ionic cavities
  area:      143.627508191840     
  volume:    674.099226862049     
  Acav:     7.540444180071612E-002
  Solving linear dielectric/ionic screening model
        iter                  A_solv                     rms
   LPB:       -0.487871767186555E+00   0.139209763714776E+01
   LPB:    0  -0.487690563787406E+00   0.129318585527708E+01  -0.330933E-02   0.000000E+00   0.330915E+02  -0.109511E+00
   LPB:    1  -0.456883174200848E+00   0.459878523789382E+00   0.154015E-01   0.000000E+00   0.131136E+03   0.425260E-17
   LPB:    2  -0.453234908228529E+00   0.169273507082470E+00   0.153857E-01   0.118543E+00   0.129350E+03  -0.452676E-14
   LPB:    3  -0.452382824883548E+00   0.759976941420317E-01   0.205242E-01   0.175085E+00   0.138840E+03  -0.352244E-14
   LPB:    4  -0.452044301272993E+00   0.748436958554204E-01   0.253146E-01   0.322108E+00   0.207367E+03  -0.319629E-14
   LPB:    5  -0.451855269010229E+00   0.938080175964125E-01   0.237563E-01   0.595031E+00   0.204070E+03  -0.289563E-14
   LPB:    6  -0.451682470993659E+00   0.387999307409688E-01   0.258527E-01   0.839994E+00   0.742150E+02  -0.270504E-14
   LPB:    7  -0.451529298981763E+00   0.177939112122750E-01   0.358931E-01   0.638461E+00   0.204645E+03  -0.245713E-14
  Finished solving LPB equations
  A_corr:   -0.376124857181047     
 End minimization
 Ecorr=   1511.69804468900     
 A_corr= -0.376124857181047     
 Ecorr_band=  -1512.07416954618     
 End Solvation calculations
RMM:  18    -0.137682359901E+03   -0.31079E-02   -0.40155E-03  4128   0.160E-01    0.154E-01
 Begin Solvation calculations
  rms_SCF =   0.194712298815350      tol =   1.947122988153498E-002
 Begin minimization
 Creating dielectric and ionic cavities
  area:      144.048121149590     
  volume:    673.492129447221     
  Acav:     7.562526360353500E-002
  Solving linear dielectric/ionic screening model
        iter                  A_solv                     rms
   LPB:       -0.485622622950353E+00   0.112124713871917E+01
   LPB:    0  -0.485459263638877E+00   0.103484372352522E+01  -0.314081E-02   0.000000E+00   0.331200E+02  -0.104024E+00
   LPB:    1  -0.468834772791930E+00   0.299597072097098E+00   0.154421E-01   0.000000E+00   0.113357E+03   0.190075E-17
   LPB:    2  -0.466904714299260E+00   0.122786588513604E+00   0.154451E-01   0.116074E+00   0.154865E+03   0.301318E-14
   LPB:    3  -0.466444787841738E+00   0.487585291180387E-01   0.212248E-01   0.173407E+00   0.113049E+03   0.312017E-14
   LPB:    4  -0.466219527506045E+00   0.410561624800117E-01   0.307025E-01   0.338584E+00   0.302213E+03   0.276665E-14
   LPB:    5  -0.466022940505194E+00   0.561400079524179E-01   0.404508E-01   0.662394E+00   0.941131E+02   0.163420E-14
   LPB:    6  -0.465882386633531E+00   0.770989857606735E-01   0.275720E-01   0.104893E+01   0.127297E+03   0.803938E-15
   LPB:    7  -0.465768191424842E+00   0.374157273859463E-01   0.224283E-01   0.998796E+00   0.995182E+02   0.213567E-15
   LPB:    8  -0.465679332657379E+00   0.141918314858974E-01   0.309969E-01   0.563029E+00   0.222710E+03  -0.234666E-15
  Finished solving LPB equations
  A_corr:   -0.390054069053844     
 End minimization
 Ecorr=   1505.11415547683     
 A_corr= -0.390054069053844     
 Ecorr_band=  -1505.50420954588     
 End Solvation calculations
RMM:  19    -0.137684275787E+03   -0.19159E-02   -0.17659E-03  4154   0.115E-01    0.164E-01
 Begin Solvation calculations
  rms_SCF =   0.194712298815350      tol =   1.947122988153498E-002
 Begin minimization
 Creating dielectric and ionic cavities
  area:      144.273592123816     
  volume:    673.312199381539     
  Acav:     7.574363586500338E-002
  Solving linear dielectric/ionic screening model
        iter                  A_solv                     rms
   LPB:       -0.482263928273351E+00   0.907035760393585E+00
   LPB:    0  -0.482092705600758E+00   0.835100190651355E+00  -0.321510E-02   0.000000E+00   0.331284E+02  -0.106511E+00
   LPB:    1  -0.474756096061023E+00   0.190219418837114E+00   0.150075E-01   0.000000E+00   0.860197E+02   0.180655E-17
   LPB:    2  -0.473925487169762E+00   0.950817327433078E-01   0.143360E-01   0.118517E+00   0.239379E+03  -0.194968E-14
   LPB:    3  -0.473739888582009E+00   0.500564485726060E-01   0.178782E-01   0.179177E+00   0.120822E+03  -0.225869E-14
   LPB:    4  -0.473669914864919E+00   0.400024543340234E-01   0.204224E-01   0.330048E+00   0.204783E+03  -0.238893E-14
   LPB:    5  -0.473628245231988E+00   0.301708501273126E-01   0.259321E-01   0.468979E+00   0.120184E+03  -0.242217E-14
   LPB:    6  -0.473579660521932E+00   0.151759545083736E-01   0.379887E-01   0.795910E+00   0.913742E+02  -0.255450E-14
  Finished solving LPB equations
  A_corr:   -0.397836024656929     
 End minimization
 Ecorr=   1502.38090479541     
 A_corr= -0.397836024656929     
 Ecorr_band=  -1502.77874082006     
 End Solvation calculations
RMM:  20    -0.137685373100E+03   -0.10973E-02   -0.10376E-03  4309   0.635E-02    0.123E-01
 Begin Solvation calculations
  rms_SCF =   0.194712298815350      tol =   1.947122988153498E-002
 Begin minimization
 Creating dielectric and ionic cavities
  area:      144.757270671812     
  volume:    673.172451388218     
  Acav:     7.599756710270143E-002
  Solving linear dielectric/ionic screening model
        iter                  A_solv                     rms
   LPB:       -0.533858661899422E+00   0.207012602470713E+01
   LPB:    0  -0.532864689845527E+00   0.190247897307023E+01  -0.774566E-02   0.000000E+00   0.331350E+02  -0.256653E+00
   LPB:    1  -0.496835271098488E+00   0.403072304370359E+00   0.149327E-01   0.000000E+00   0.827836E+02  -0.989143E-17
   LPB:    2  -0.492943451702424E+00   0.209267292261375E+00   0.143669E-01   0.112272E+00   0.242599E+03  -0.165646E-14
   LPB:    3  -0.492086659453219E+00   0.106390683587118E+00   0.176912E-01   0.178784E+00   0.114980E+03   0.995708E-15
   LPB:    4  -0.491706106843750E+00   0.996717026709171E-01   0.224757E-01   0.349609E+00   0.195184E+03   0.174468E-14
   LPB:    5  -0.491473163593680E+00   0.670128069859240E-01   0.248350E-01   0.553968E+00   0.109620E+03   0.204472E-14
   LPB:    6  -0.491281777233378E+00   0.265429909792751E-01   0.306427E-01   0.665885E+00   0.117208E+03   0.235731E-14
   LPB:    7  -0.491135510937422E+00   0.152509668219815E-01   0.363428E-01   0.644378E+00   0.235739E+03   0.298443E-14
  Finished solving LPB equations
  A_corr:   -0.415137943834720     
 End minimization
 Ecorr=   1496.58241649464     
 A_corr= -0.415137943834720     
 Ecorr_band=  -1496.99755443847     
 End Solvation calculations
RMM:  21    -0.137688178274E+03   -0.28052E-02   -0.23362E-03  4131   0.953E-02    0.113E-01
 Begin Solvation calculations
  rms_SCF =   0.176914662224369      tol =   1.769146622243694E-002
 Begin minimization
 Creating dielectric and ionic cavities
  area:      145.013482343670     
  volume:    673.166872225573     
  Acav:     7.613207823042666E-002
  Solving linear dielectric/ionic screening model
        iter                  A_solv                     rms
   LPB:       -0.515235558948838E+00   0.125850160327747E+01
   LPB:    0  -0.514907866654177E+00   0.116815635530649E+01  -0.444737E-02   0.000000E+00   0.331353E+02  -0.147365E+00
   LPB:    1  -0.503133837214951E+00   0.250572858835081E+00   0.146378E-01   0.000000E+00   0.752217E+02  -0.790614E-17
   LPB:    2  -0.501843884330680E+00   0.122987643723424E+00   0.138081E-01   0.116142E+00   0.253128E+03   0.318168E-15
   LPB:    3  -0.501546809154568E+00   0.577886490600710E-01   0.174657E-01   0.182070E+00   0.126776E+03   0.514014E-15
   LPB:    4  -0.501415362754955E+00   0.592115119885897E-01   0.240033E-01   0.321958E+00   0.156538E+03   0.648498E-15
   LPB:    5  -0.501300101689259E+00   0.503097352005470E-01   0.310916E-01   0.676957E+00   0.103217E+03   0.735169E-15
   LPB:    6  -0.501163489108575E+00   0.236151452062385E-01   0.371501E-01   0.991955E+00   0.787409E+02   0.795344E-15
   LPB:    7  -0.501054350150385E+00   0.119216123445051E-01   0.350347E-01   0.847130E+00   0.162104E+03   0.856084E-15
  Finished solving LPB equations
  A_corr:   -0.424922271919958     
 End minimization
 Ecorr=   1492.62830075347     
 A_corr= -0.424922271919958     
 Ecorr_band=  -1493.05322302539     
 End Solvation calculations
RMM:  22    -0.137689020947E+03   -0.84267E-03   -0.72475E-04  4072   0.656E-02    0.845E-02
 Begin Solvation calculations
  rms_SCF =   0.162218817936337      tol =   1.622188179363367E-002
 Begin minimization
 Creating dielectric and ionic cavities
  area:      145.162068142055     
  volume:    673.179058161763     
  Acav:     7.621008577457886E-002
  Solving linear dielectric/ionic screening model
        iter                  A_solv                     rms
   LPB:       -0.513986411852962E+00   0.935285944087005E+00
   LPB:    0  -0.513803426167911E+00   0.873349404136427E+00  -0.332340E-02   0.000000E+00   0.331347E+02  -0.110120E+00
   LPB:    1  -0.508406349207203E+00   0.193870340102772E+00   0.139697E-01   0.000000E+00   0.685204E+02   0.503789E-17
   LPB:    2  -0.507778365805838E+00   0.763218835167605E-01   0.129777E-01   0.125251E+00   0.263369E+03   0.158067E-15
   LPB:    3  -0.507647796737003E+00   0.323199462036526E-01   0.171346E-01   0.157476E+00   0.159374E+03   0.504941E-16
   LPB:    4  -0.507603317704953E+00   0.312529025191442E-01   0.231109E-01   0.252564E+00   0.147613E+03  -0.569722E-16
   LPB:    5  -0.507566810276475E+00   0.277878389551874E-01   0.320911E-01   0.591097E+00   0.111848E+03  -0.844586E-16
   LPB:    6  -0.507515892190658E+00   0.152380741252468E-01   0.422581E-01   0.105917E+01   0.718423E+02  -0.606744E-15
  Finished solving LPB equations
  A_corr:   -0.431305806416079     
 End minimization
 Ecorr=   1490.44184955984     
 A_corr= -0.431305806416079     
 Ecorr_band=  -1490.87315536625     
 End Solvation calculations
RMM:  23    -0.137689234172E+03   -0.21322E-03   -0.45877E-04  4053   0.364E-02    0.508E-02
 Begin Solvation calculations
  rms_SCF =   0.101600353391819      tol =   1.016003533918193E-002
 Begin minimization
 Creating dielectric and ionic cavities
  area:      145.191063764839     
  volume:    673.368986062515     
  Acav:     7.622530847654028E-002
  Solving linear dielectric/ionic screening model
        iter                  A_solv                     rms
   LPB:       -0.517723467519096E+00   0.111116798774437E+01
   LPB:    0  -0.517487075971886E+00   0.106148079349010E+01  -0.377788E-02   0.000000E+00   0.331258E+02  -0.125145E+00
   LPB:    1  -0.511527757212116E+00   0.197858820300337E+00   0.124002E-01   0.000000E+00   0.669562E+02  -0.241366E-17
   LPB:    2  -0.510921323271172E+00   0.681293527381700E-01   0.121186E-01   0.104127E+00   0.262662E+03  -0.198409E-15
   LPB:    3  -0.510811175690575E+00   0.196070013236428E-01   0.174099E-01   0.126429E+00   0.149895E+03  -0.235633E-15
   LPB:    4  -0.510775675382296E+00   0.227396586832111E-01   0.288634E-01   0.194405E+00   0.128347E+03  -0.250072E-15
   LPB:    5  -0.510745600474665E+00   0.273909799638394E-01   0.347735E-01   0.703187E+00   0.112238E+03  -0.267150E-15
   LPB:    6  -0.510713285600368E+00   0.168117003499698E-01   0.330256E-01   0.113135E+01   0.650109E+02  -0.376652E-15
   LPB:    7  -0.510683891468017E+00   0.701778734262147E-02   0.345862E-01   0.868573E+00   0.153245E+03  -0.479833E-15
  Finished solving LPB equations
  A_corr:   -0.434458582991477     
 End minimization
 Ecorr=   1488.74368657784     
 A_corr= -0.434458582991477     
 Ecorr_band=  -1489.17814516084     
 End Solvation calculations
RMM:  24    -0.137689673388E+03   -0.43922E-03   -0.19785E-04  4029   0.381E-02    0.446E-02
 Begin Solvation calculations
  rms_SCF =   7.782203649525374E-002 tol =   7.782203649525374E-003
 Begin minimization
 Creating dielectric and ionic cavities
  area:      145.169185414461     
  volume:    673.506620124168     
  Acav:     7.621382234259218E-002
  Solving linear dielectric/ionic screening model
        iter                  A_solv                     rms
   LPB:       -0.514095408879792E+00   0.756734660823282E+00
   LPB:    0  -0.513997619185382E+00   0.730046714788915E+00  -0.243008E-02   0.000000E+00   0.331193E+02  -0.804827E-01
   LPB:    1  -0.511537965312101E+00   0.121664801600551E+00   0.114723E-01   0.000000E+00   0.687965E+02   0.697043E-17
   LPB:    2  -0.511307254381532E+00   0.339414799953113E-01   0.117207E-01   0.918102E-01   0.275135E+03  -0.153186E-15
   LPB:    3  -0.511272674488938E+00   0.916793220212906E-02   0.183452E-01   0.957605E-01   0.165084E+03  -0.162183E-15
   LPB:    4  -0.511265317918993E+00   0.869581011581071E-02   0.248445E-01   0.157088E+00   0.165081E+03  -0.185100E-15
   LPB:    5  -0.511259458578631E+00   0.129198866581381E-01   0.382978E-01   0.516691E+00   0.151307E+03  -0.209022E-15
   LPB:    6  -0.511249889016189E+00   0.113339940671960E-01   0.426995E-01   0.146485E+01   0.628967E+02  -0.106594E-15
   LPB:    7  -0.511236963328498E+00   0.486535513585227E-02   0.388156E-01   0.148586E+01   0.838148E+02   0.826777E-16
  Finished solving LPB equations
  A_corr:   -0.435023140985906     
 End minimization
 Ecorr=   1488.03405459483     
 A_corr= -0.435023140985906     
 Ecorr_band=  -1488.46907773581     
 End Solvation calculations
RMM:  25    -0.137689930892E+03   -0.25750E-03   -0.99858E-05  3484   0.270E-02    0.469E-02
 Begin Solvation calculations
  rms_SCF =   7.782203649525374E-002 tol =   7.782203649525374E-003
 Begin minimization
 Creating dielectric and ionic cavities
  area:      145.181857789266     
  volume:    673.525240711777     
  Acav:     7.622047533936475E-002
  Solving linear dielectric/ionic screening model
        iter                  A_solv                     rms
   LPB:       -0.512709481314854E+00   0.346248819339006E+00
   LPB:    0  -0.512691878795651E+00   0.333579918570659E+00  -0.103102E-02   0.000000E+00   0.331185E+02  -0.341458E-01
   LPB:    1  -0.512216643673828E+00   0.578766499329689E-01   0.114409E-01   0.000000E+00   0.636588E+02   0.249337E-17
   LPB:    2  -0.512158445300806E+00   0.149167400965521E-01   0.125529E-01   0.111614E+00   0.244648E+03  -0.179209E-15
   LPB:    3  -0.512149827837446E+00   0.532976708026594E-02   0.181362E-01   0.102487E+00   0.204748E+03  -0.200288E-15
   LPB:    4  -0.512147889370747E+00   0.563833316636014E-02   0.243153E-01   0.167782E+00   0.149313E+03  -0.197766E-15
  Finished solving LPB equations
  A_corr:   -0.435927414031382     
 End minimization
 Ecorr=   1487.72459778447     
 A_corr= -0.435927414031382     
 Ecorr_band=  -1488.16052519850     
 End Solvation calculations
RMM:  26    -0.137689879390E+03    0.51502E-04   -0.49250E-05  2848   0.141E-02    0.358E-02
 Begin Solvation calculations
  rms_SCF =   6.242323355304801E-002 tol =   6.242323355304801E-003
 Begin minimization
 Creating dielectric and ionic cavities
  area:      145.170129293018     
  volume:    673.529431625906     
  Acav:     7.621431787883423E-002
  Solving linear dielectric/ionic screening model
        iter                  A_solv                     rms
   LPB:       -0.513463284223958E+00   0.570451143448962E+00
   LPB:    0  -0.513439039551743E+00   0.561630429774790E+00  -0.121001E-02   0.000000E+00   0.331183E+02  -0.400735E-01
   LPB:    1  -0.512286955081282E+00   0.730229124397967E-01   0.100713E-01   0.000000E+00   0.712863E+02  -0.100439E-17
   LPB:    2  -0.512183649317127E+00   0.183940228570607E-01   0.123124E-01   0.733470E-01   0.236752E+03  -0.548179E-16
   LPB:    3  -0.512171010543128E+00   0.476014563977350E-02   0.204349E-01   0.737145E-01   0.136403E+03  -0.868146E-16
   LPB:    4  -0.512167093165743E+00   0.387130964089774E-02   0.296797E-01   0.213404E+00   0.150724E+03  -0.102394E-15
  Finished solving LPB equations
  A_corr:   -0.435952775286909     
 End minimization
 Ecorr=   1487.37719019917     
 A_corr= -0.435952775286909     
 Ecorr_band=  -1487.81314297446     
 End Solvation calculations
RMM:  27    -0.137690009701E+03   -0.13031E-03   -0.66437E-05  3386   0.185E-02    0.356E-02
 Begin Solvation calculations
  rms_SCF =   2.453602707439117E-002 tol =   2.453602707439117E-003
 Begin minimization
 Creating dielectric and ionic cavities
  area:      145.147102563237     
  volume:    673.527853235832     
  Acav:     7.620222884569917E-002
  Solving linear dielectric/ionic screening model
        iter                  A_solv                     rms
   LPB:       -0.511256622253332E+00   0.115925496626888E+00
   LPB:    0  -0.511255578429228E+00   0.112248013064242E+00   0.251070E-03   0.000000E+00   0.331183E+02   0.831501E-02
   LPB:    1  -0.511141883673635E+00   0.294235180798284E-01   0.147455E-01   0.000000E+00   0.805038E+02   0.198237E-18
   LPB:    2  -0.511127289595765E+00   0.113553728460447E-01   0.131343E-01   0.144108E+00   0.275922E+03   0.919039E-17
   LPB:    3  -0.511124199071185E+00   0.510173429901346E-02   0.171801E-01   0.161897E+00   0.195451E+03   0.127133E-16
   LPB:    4  -0.511123110377752E+00   0.439513207484354E-02   0.226748E-01   0.266904E+00   0.369812E+03   0.672985E-17
   LPB:    5  -0.511122489616011E+00   0.356265899724941E-02   0.273910E-01   0.472013E+00   0.104274E+03   0.595134E-17
   LPB:    6  -0.511121775543177E+00   0.250387132319294E-02   0.383229E-01   0.822181E+00   0.455617E+03   0.243488E-16
   LPB:    7  -0.511120815635711E+00   0.153652497025101E-02   0.478259E-01   0.107717E+01   0.117380E+03   0.160454E-16
  Finished solving LPB equations
  A_corr:   -0.434918586790011     
 End minimization
 Ecorr=   1487.45836241991     
 A_corr= -0.434918586790011     
 Ecorr_band=  -1487.89328100670     
 End Solvation calculations
RMM:  28    -0.137690067500E+03   -0.57799E-04   -0.29181E-05  2562   0.165E-02    0.126E-02
 Begin Solvation calculations
  rms_SCF =   1.146117203254538E-002 tol =   1.146117203254538E-003
 Begin minimization
 Creating dielectric and ionic cavities
  area:      145.143086103460     
  volume:    673.522623624134     
  Acav:     7.620012020431632E-002
  Solving linear dielectric/ionic screening model
        iter                  A_solv                     rms
   LPB:       -0.510971448272461E+00   0.928295492654089E-01
   LPB:    0  -0.510968726215473E+00   0.869534636415489E-01  -0.405441E-03   0.000000E+00   0.331186E+02  -0.134276E-01
   LPB:    1  -0.510926898368283E+00   0.140689789095264E-01   0.101359E-01   0.000000E+00   0.103242E+03  -0.444012E-18
   LPB:    2  -0.510924554633586E+00   0.185800449204920E-02   0.109140E-01   0.520384E-01   0.270046E+03   0.133753E-15
   LPB:    3  -0.510924156816063E+00   0.111378884644850E-02   0.255306E-01   0.725600E-01   0.416245E+03   0.136560E-15
   LPB:    4  -0.510923963736825E+00   0.145857202055791E-02   0.365224E-01   0.339276E+00   0.173221E+03   0.135827E-15
   LPB:    5  -0.510923658572172E+00   0.287406443329701E-02   0.558253E-01   0.103401E+01   0.252573E+03   0.132129E-15
   LPB:    6  -0.510923267401020E+00   0.266155782606833E-02   0.346712E-01   0.206393E+01   0.502651E+02   0.118231E-15
   LPB:    7  -0.510922913112323E+00   0.107278071384843E-02   0.307216E-01   0.102215E+01   0.176491E+03   0.107609E-15
  Finished solving LPB equations
  A_corr:   -0.434722792908006     
 End minimization
 Ecorr=   1487.31657027517     
 A_corr= -0.434722792908006     
 Ecorr_band=  -1487.75129306807     
 End Solvation calculations
RMM:  29    -0.137690114727E+03   -0.47227E-04   -0.15381E-05  2447   0.131E-02    0.926E-03
 Begin Solvation calculations
  rms_SCF =   1.087357319792198E-002 tol =   1.087357319792198E-003
 Begin minimization
 Creating dielectric and ionic cavities
  area:      145.148190142970     
  volume:    673.496448204143     
  Acav:     7.620279982505933E-002
  Solving linear dielectric/ionic screening model
        iter                  A_solv                     rms
   LPB:       -0.511002407317190E+00   0.118190652805808E+00
   LPB:    0  -0.510998959698147E+00   0.110637021432427E+00  -0.456279E-03   0.000000E+00   0.331198E+02  -0.151119E-01
   LPB:    1  -0.510944589832119E+00   0.136086393639827E-01   0.947679E-02   0.000000E+00   0.932762E+02  -0.648201E-18
   LPB:    2  -0.510941904616532E+00   0.177166387417947E-02   0.111260E-01   0.420672E-01   0.250540E+03   0.119593E-15
   LPB:    3  -0.510941609251370E+00   0.140485818568700E-02   0.238698E-01   0.512709E-01   0.285984E+03   0.143784E-15
   LPB:    4  -0.510941524571411E+00   0.118923414324079E-02   0.248004E-01   0.275938E+00   0.104432E+03   0.145580E-15
   LPB:    5  -0.510941469382487E+00   0.102029907804509E-02   0.283669E-01   0.569794E+00   0.243130E+03   0.139930E-15
  Finished solving LPB equations
  A_corr:   -0.434738669557428     
 End minimization
 Ecorr=   1487.19933640526     
 A_corr= -0.434738669557428     
 Ecorr_band=  -1487.63407507481     
 End Solvation calculations
RMM:  30    -0.137690157846E+03   -0.43120E-04   -0.12883E-05  2452   0.115E-02    0.358E-03
 Begin Solvation calculations
  rms_SCF =   2.522217020314477E-003 tol =   2.522217020314477E-004
 Begin minimization
 Creating dielectric and ionic cavities
  area:      145.150463115241     
  volume:    673.490080967210     
  Acav:     7.620399313550176E-002
  Solving linear dielectric/ionic screening model
        iter                  A_solv                     rms
   LPB:       -0.510973130608343E+00   0.598005999784099E-01
   LPB:    0  -0.510971826226012E+00   0.540114131094041E-01  -0.280654E-03   0.000000E+00   0.331201E+02  -0.929530E-02
   LPB:    1  -0.510959834511603E+00   0.624243914294219E-02   0.925395E-02   0.000000E+00   0.880423E+02   0.816800E-18
   LPB:    2  -0.510959260012663E+00   0.959865848650569E-03   0.115886E-01   0.382566E-01   0.188653E+03   0.445109E-16
   LPB:    3  -0.510959178980942E+00   0.100400830833096E-02   0.252002E-01   0.648621E-01   0.204705E+03   0.414526E-16
   LPB:    4  -0.510959121062222E+00   0.138698832866216E-02   0.355465E-01   0.506723E+00   0.530433E+02   0.405682E-16
   LPB:    5  -0.510959055092890E+00   0.754058686513272E-03   0.318875E-01   0.126970E+01   0.266776E+03   0.449930E-16
   LPB:    6  -0.510958982612715E+00   0.478087301750469E-03   0.429425E-01   0.815849E+00   0.129937E+03   0.487124E-16
   LPB:    7  -0.510958900365611E+00   0.389591906174561E-03   0.466672E-01   0.104418E+01   0.354633E+03   0.526824E-16
   LPB:    8  -0.510958816082477E+00   0.408014696908120E-03   0.436804E-01   0.109483E+01   0.235469E+03   0.585606E-16
   LPB:    9  -0.510958739395615E+00   0.406006409101183E-03   0.413416E-01   0.961345E+00   0.433999E+03   0.665835E-16
   LPB:   10  -0.510958669849283E+00   0.377881663343900E-03   0.401629E-01   0.933503E+00   0.497262E+03   0.776197E-16
   LPB:   11  -0.510958605800440E+00   0.323227505777872E-03   0.418533E-01   0.883756E+00   0.708349E+03   0.879977E-16
   LPB:   12  -0.510958541133756E+00   0.295418190932139E-03   0.450294E-01   0.938431E+00   0.929715E+03   0.985462E-16
   LPB:   13  -0.510958472832861E+00   0.304249825472261E-03   0.461312E-01   0.103097E+01   0.143240E+04   0.109202E-15
   LPB:   14  -0.510958402453830E+00   0.264269700783182E-03   0.464393E-01   0.102359E+01   0.772416E+03   0.120297E-15
   LPB:   15  -0.510958333367863E+00   0.230078094389681E-03   0.461640E-01   0.987483E+00   0.168869E+04   0.129355E-15
  Finished solving LPB equations
  A_corr:   -0.434754340232361     
 End minimization
 Ecorr=   1487.05038643854     
 A_corr= -0.434754340232361     
 Ecorr_band=  -1487.48514077878     
 End Solvation calculations
RMM:  31    -0.137690173571E+03   -0.15725E-04   -0.54413E-06  2371   0.880E-03    0.366E-03
 Begin Solvation calculations
  rms_SCF =   2.522217020314477E-003 tol =   2.522217020314477E-004
 Begin minimization
 Creating dielectric and ionic cavities
  area:      145.152765059101     
  volume:    673.483690944030     
  Acav:     7.620520165602784E-002
  Solving linear dielectric/ionic screening model
        iter                  A_solv                     rms
   LPB:       -0.510986658552011E+00   0.303355241464047E-01
   LPB:    0  -0.510986002927241E+00   0.237956106385652E-01  -0.198973E-03   0.000000E+00   0.331204E+02  -0.659008E-02
   LPB:    1  -0.510979025597129E+00   0.681813493690432E-02   0.142581E-01   0.000000E+00   0.956239E+02   0.164033E-18
   LPB:    2  -0.510978396625486E+00   0.235947218183582E-02   0.162698E-01   0.789989E-01   0.832714E+02   0.442706E-16
   LPB:    3  -0.510978208493179E+00   0.100495417097173E-02   0.210717E-01   0.230948E+00   0.253659E+03   0.276503E-16
   LPB:    4  -0.510978127093762E+00   0.103736556948748E-02   0.261696E-01   0.348386E+00   0.229445E+03   0.214724E-17
   LPB:    5  -0.510978083468161E+00   0.121820354330283E-02   0.232912E-01   0.602179E+00   0.276855E+03  -0.101738E-16
   LPB:    6  -0.510978049698375E+00   0.746282229944170E-03   0.245227E-01   0.735210E+00   0.115504E+03  -0.167974E-16
   LPB:    7  -0.510978019871137E+00   0.326259193820217E-03   0.315711E-01   0.686062E+00   0.359460E+03  -0.222532E-16
   LPB:    8  -0.510977998710451E+00   0.188156846230758E-03   0.366917E-01   0.610433E+00   0.289620E+03  -0.322506E-16
  Finished solving LPB equations
  A_corr:   -0.434772797054423     
 End minimization
 Ecorr=   1487.00645410379     
 A_corr= -0.434772797054423     
 Ecorr_band=  -1487.44122690085     
 End Solvation calculations
RMM:  32    -0.137690181937E+03   -0.83654E-05   -0.44183E-06  2387   0.647E-03
 Begin Solvation calculations
  rms_SCF =   2.522217020314477E-003 tol =   2.522217020314477E-004
 Begin minimization
 Creating dielectric and ionic cavities
  area:      145.157580840563     
  volume:    673.477755914157     
  Acav:     7.620772994129557E-002
  Solving linear dielectric/ionic screening model
        iter                  A_solv                     rms
   LPB:       -0.511182841527111E+00   0.506129752790970E-01
   LPB:    0  -0.511180860519614E+00   0.382495181268013E-01  -0.345866E-03   0.000000E+00   0.331207E+02  -0.114553E-01
   LPB:    1  -0.511173073175722E+00   0.702710953019365E-02   0.993969E-02   0.000000E+00   0.815086E+02  -0.601059E-18
   LPB:    2  -0.511172549644475E+00   0.154060739724848E-02   0.126710E-01   0.527372E-01   0.116720E+03   0.438718E-16
   LPB:    3  -0.511172446987526E+00   0.104129066391339E-02   0.190114E-01   0.130690E+00   0.325140E+03   0.447224E-16
   LPB:    4  -0.511172414332467E+00   0.580253689546330E-03   0.214192E-01   0.282340E+00   0.954498E+02   0.446579E-16
   LPB:    5  -0.511172396555783E+00   0.343149143335950E-03   0.256840E-01   0.453986E+00   0.419022E+03   0.351944E-16
   LPB:    6  -0.511172381598474E+00   0.212564988854224E-03   0.417039E-01   0.518188E+00   0.101764E+03   0.262872E-16
  Finished solving LPB equations
  A_corr:   -0.434964651657178     
 End minimization
 Ecorr=   1486.89091199679     
 A_corr= -0.434964651657178     
 Ecorr_band=  -1487.32587664845     
 End Solvation calculations
   1 F= -.13769018E+03 E0= -.13768966E+03  d E =-.137690E+03
quench:  g(F)=  0.000E+00 g(S)=  0.000E+00 dE (1.order)= 0.000E+00
 bond charge predicted
       N       E                     dE             d eps       ncg     rms          rms(c)
 Begin Solvation calculations
  rms_SCF =   2.522217020314477E-003 tol =   2.522217020314477E-004
 Begin minimization
 Creating dielectric and ionic cavities
  area:      145.327930083380     
  volume:    673.503538839616     
  Acav:     7.629716329377426E-002
  Solving linear dielectric/ionic screening model
        iter                  A_solv                     rms
   LPB:       -0.519832600062610E+00   0.873705317332994E-02
   LPB:    0  -0.519832600004947E+00   0.874432144398963E-02   0.186604E-05   0.000000E+00   0.331195E+02   0.618024E-04
   LPB:    1  -0.513179301812772E+00   0.348651530023297E-02   0.161803E-01   0.000000E+00   0.655600E+06  -0.231018E-20
   LPB:    2  -0.512356723544452E+00   0.317344965414778E-02   0.273372E-01   0.731768E-01   0.160927E+06   0.469044E-17
   LPB:    3  -0.512095677113320E+00   0.433835553924211E-02   0.324891E-01   0.267028E+00   0.406033E+05  -0.413030E-17
   LPB:    4  -0.511986242974483E+00   0.104992551362861E-01   0.352699E-01   0.386160E+00   0.109703E+05   0.459365E-17
   LPB:    5  -0.511934262791941E+00   0.224697021639935E-01   0.350694E-01   0.477706E+00   0.748955E+03  -0.256310E-16
   LPB:    6  -0.511910513410477E+00   0.281085715442788E-01   0.253124E-01   0.633008E+00   0.205817E+03  -0.985083E-16
   LPB:    7  -0.511893745103181E+00   0.148538644678199E-01   0.229683E-01   0.778113E+00   0.231134E+03  -0.257931E-15
   LPB:    8  -0.511882726468133E+00   0.174908462749153E-01   0.282728E-01   0.533825E+00   0.327164E+03  -0.436109E-15
   LPB:    9  -0.511876280318068E+00   0.109968771313236E-01   0.217891E-01   0.759106E+00   0.184470E+03  -0.560705E-15
   LPB:   10  -0.511870553856408E+00   0.304112584377305E-02   0.311520E-01   0.621353E+00   0.476263E+03  -0.651899E-15
   LPB:   11  -0.511866762568307E+00   0.132301621112337E-02   0.387809E-01   0.531824E+00   0.415140E+04  -0.664504E-15
   LPB:   12  -0.511864301316009E+00   0.151765363943561E-02   0.399580E-01   0.630063E+00   0.320753E+04  -0.667301E-15
   LPB:   13  -0.511862702158466E+00   0.178416119096082E-02   0.373981E-01   0.694208E+00   0.179122E+04  -0.671841E-15
   LPB:   14  -0.511861585565796E+00   0.146584255048418E-02   0.349291E-01   0.747593E+00   0.142750E+04  -0.674806E-15
   LPB:   15  -0.511860804031277E+00   0.905874112311877E-03   0.351923E-01   0.694694E+00   0.186417E+04  -0.676960E-15
   LPB:   16  -0.511860203227095E+00   0.693626224934594E-03   0.403530E-01   0.670435E+00   0.242148E+04  -0.678574E-15
   LPB:   17  -0.511859788553067E+00   0.766368020717275E-03   0.387635E-01   0.718499E+00   0.286563E+04  -0.680234E-15
   LPB:   18  -0.511859489383080E+00   0.776544271198917E-03   0.376113E-01   0.743561E+00   0.136840E+04  -0.678762E-15
   LPB:   19  -0.511859265392391E+00   0.582852716372487E-03   0.367162E-01   0.766960E+00   0.181365E+04  -0.676954E-15
   LPB:   20  -0.511859082105655E+00   0.355894389004380E-03   0.395900E-01   0.758881E+00   0.247647E+04  -0.676015E-15
   LPB:   21  -0.511858929932874E+00   0.277979635553089E-03   0.433263E-01   0.758647E+00   0.456638E+04  -0.676225E-15
   LPB:   22  -0.511858811213662E+00   0.326799258079721E-03   0.429757E-01   0.786525E+00   0.433687E+04  -0.676363E-15
   LPB:   23  -0.511858721214250E+00   0.373732950124396E-03   0.403748E-01   0.806922E+00   0.198361E+04  -0.674832E-15
   LPB:   24  -0.511858650139712E+00   0.331281413620912E-03   0.392326E-01   0.812712E+00   0.171885E+04  -0.673717E-15
   LPB:   25  -0.511858590007582E+00   0.262663535773431E-03   0.413814E-01   0.802112E+00   0.190551E+04  -0.672703E-15
   LPB:   26  -0.511858541820224E+00   0.188047756734565E-03   0.405606E-01   0.817574E+00   0.254109E+04  -0.676787E-15
  Finished solving LPB equations
  A_corr:   -0.435561378526450     
 End minimization
 Ecorr=   1486.70765504290     
 A_corr= -0.435561378526450     
 Ecorr_band=  -1487.14321642143     
 End Solvation calculations
DAV:   1    -0.137694298981E+03   -0.41254E-02   -0.67499E-01  4227   0.151E+00    0.274E-01
 Begin Solvation calculations
  rms_SCF =   2.522217020314477E-003 tol =   2.522217020314477E-004
 Begin minimization
 Creating dielectric and ionic cavities
  area:      145.243228857472     
  volume:    673.293613558595     
  Acav:     7.625269515017305E-002
  Solving linear dielectric/ionic screening model
        iter                  A_solv                     rms
   LPB:       -0.518067010478574E+00   0.665809503906637E+00
   LPB:    0  -0.517832447506384E+00   0.602672437381979E+00  -0.376304E-02   0.000000E+00   0.331293E+02  -0.124667E+00
   LPB:    1  -0.516278132379758E+00   0.982504140293125E-01   0.103125E-01   0.000000E+00   0.782663E+02   0.107395E-17
   LPB:    2  -0.516054404281387E+00   0.194185510772671E-01   0.143157E-01   0.103689E+00   0.327525E+03  -0.144934E-15
   LPB:    3  -0.516004485277616E+00   0.199390926791494E-01   0.252522E-01   0.126490E+00   0.516846E+03   0.165020E-16
   LPB:    4  -0.515989425198727E+00   0.155947091579094E-01   0.215380E-01   0.353717E+00   0.152302E+03   0.716802E-16
   LPB:    5  -0.515981035608977E+00   0.708339912958399E-02   0.245389E-01   0.488949E+00   0.264799E+03   0.433394E-16
   LPB:    6  -0.515976539517601E+00   0.325704267701472E-02   0.309880E-01   0.424382E+00   0.294366E+03   0.103766E-16
   LPB:    7  -0.515974114024101E+00   0.191922029647155E-02   0.323639E-01   0.516533E+00   0.678264E+03  -0.926810E-16
   LPB:    8  -0.515972695928872E+00   0.113294734744145E-02   0.339437E-01   0.557451E+00   0.621542E+03  -0.168497E-15
   LPB:    9  -0.515971835427400E+00   0.724380680016849E-03   0.360419E-01   0.571475E+00   0.677030E+03  -0.210837E-15
   LPB:   10  -0.515971312021282E+00   0.580583565568626E-03   0.370601E-01   0.591546E+00   0.828912E+03  -0.236584E-15
   LPB:   11  -0.515970989880776E+00   0.507828126394356E-03   0.371547E-01   0.613903E+00   0.693703E+03  -0.252218E-15
   LPB:   12  -0.515970789346594E+00   0.485223380837515E-03   0.362795E-01   0.637523E+00   0.799959E+03  -0.260136E-15
   LPB:   13  -0.515970662486406E+00   0.449349849038042E-03   0.354518E-01   0.647381E+00   0.768845E+03  -0.264785E-15
   LPB:   14  -0.515970578977344E+00   0.370688096341961E-03   0.350685E-01   0.665472E+00   0.679582E+03  -0.266636E-15
   LPB:   15  -0.515970523020154E+00   0.281905156825553E-03   0.353378E-01   0.664966E+00   0.900682E+03  -0.268057E-15
   LPB:   16  -0.515970483723381E+00   0.193934673275065E-03   0.367359E-01   0.675537E+00   0.805648E+03  -0.269578E-15
  Finished solving LPB equations
  A_corr:   -0.439717788573208     
 End minimization
 Ecorr=   1486.77952824741     
 A_corr= -0.439717788573208     
 Ecorr_band=  -1487.21924603598     
 End Solvation calculations
RMM:   2    -0.137698944927E+03   -0.46459E-02   -0.52067E-02  6149   0.443E-01    0.249E-01
 Begin Solvation calculations
  rms_SCF =   2.522217020314477E-003 tol =   2.522217020314477E-004
 Begin minimization
 Creating dielectric and ionic cavities
  area:      145.223480387148     
  volume:    673.338924028702     
  Acav:     7.624232720325258E-002
  Solving linear dielectric/ionic screening model
        iter                  A_solv                     rms
   LPB:       -0.517044353045199E+00   0.409536623259553E+00
   LPB:    0  -0.517044028739431E+00   0.409449917092322E+00  -0.139927E-03   0.000000E+00   0.331272E+02  -0.463537E-02
   LPB:    1  -0.516548742163800E+00   0.425285169923882E-01   0.888880E-02   0.000000E+00   0.747808E+02  -0.305458E-18
   LPB:    2  -0.516494174364099E+00   0.885344741232750E-02   0.176838E-01   0.553794E-01   0.128391E+03   0.162062E-16
   LPB:    3  -0.516487368017615E+00   0.588155811617738E-02   0.229318E-01   0.961866E-01   0.189509E+03  -0.250061E-16
   LPB:    4  -0.516485166379766E+00   0.464641075439174E-02   0.256195E-01   0.289533E+00   0.234301E+03   0.430369E-17
   LPB:    5  -0.516484246877450E+00   0.329429995609520E-02   0.242526E-01   0.441183E+00   0.155613E+03   0.751267E-17
   LPB:    6  -0.516483720459739E+00   0.175578230403310E-02   0.259050E-01   0.535985E+00   0.299489E+03   0.210039E-16
   LPB:    7  -0.516483395586374E+00   0.875664625091042E-03   0.305629E-01   0.523086E+00   0.337027E+03   0.345130E-16
   LPB:    8  -0.516483190097925E+00   0.441511094640758E-03   0.347830E-01   0.555777E+00   0.515291E+03   0.517217E-16
   LPB:    9  -0.516483060741000E+00   0.263015691656176E-03   0.378951E-01   0.577811E+00   0.735322E+03   0.604863E-16
   LPB:   10  -0.516482979858601E+00   0.199241779523666E-03   0.384645E-01   0.616009E+00   0.950830E+03   0.619970E-16
  Finished solving LPB equations
  A_corr:   -0.440240652655348     
 End minimization
 Ecorr=   1486.58076332485     
 A_corr= -0.440240652655348     
 Ecorr_band=  -1487.02100397750     
 End Solvation calculations
RMM:   3    -0.137698248031E+03    0.69690E-03   -0.34825E-03  4693   0.146E-01    0.287E-01
 Begin Solvation calculations
  rms_SCF =   2.522217020314477E-003 tol =   2.522217020314477E-004
 Begin minimization
 Creating dielectric and ionic cavities
  area:      145.231047984183     
  volume:    673.335553587659     
  Acav:     7.624630019169586E-002
  Solving linear dielectric/ionic screening model
        iter                  A_solv                     rms
   LPB:       -0.518087748443555E+00   0.299044306931676E+00
   LPB:    0  -0.518076977888459E+00   0.292155361505279E+00  -0.806382E-03   0.000000E+00   0.331274E+02  -0.267133E-01
   LPB:    1  -0.517799728019960E+00   0.294732649342116E-01   0.922906E-02   0.000000E+00   0.756618E+02  -0.424215E-18
   LPB:    2  -0.517772039250414E+00   0.541560512985856E-02   0.148666E-01   0.619980E-01   0.221642E+03  -0.683461E-16
   LPB:    3  -0.517767491732020E+00   0.471159744029453E-02   0.252239E-01   0.967991E-01   0.438552E+03  -0.422565E-16
   LPB:    4  -0.517766179537459E+00   0.395360086262244E-02   0.239026E-01   0.304502E+00   0.169298E+03  -0.312654E-16
   LPB:    5  -0.517765560539249E+00   0.259648890351499E-02   0.233890E-01   0.482087E+00   0.283191E+03  -0.248443E-16
   LPB:    6  -0.517765219868038E+00   0.118970053255245E-02   0.272919E-01   0.471654E+00   0.175126E+03  -0.292331E-16
   LPB:    7  -0.517765027213588E+00   0.628429736427430E-03   0.306618E-01   0.503362E+00   0.576212E+03  -0.146702E-16
   LPB:    8  -0.517764912454580E+00   0.287988137455381E-03   0.347889E-01   0.525007E+00   0.397195E+03  -0.910639E-17
   LPB:    9  -0.517764841639534E+00   0.209856933438441E-03   0.372889E-01   0.575704E+00   0.464828E+03  -0.832588E-17
  Finished solving LPB equations
  A_corr:   -0.441518541447838     
 End minimization
 Ecorr=   1486.49499340885     
 A_corr= -0.441518541447838     
 Ecorr_band=  -1486.93651195030     
 End Solvation calculations
RMM:   4    -0.137697489199E+03    0.75883E-03   -0.12202E-03  4987   0.795E-02    0.137E-01
 Begin Solvation calculations
  rms_SCF =   2.522217020314477E-003 tol =   2.522217020314477E-004
 Begin minimization
 Creating dielectric and ionic cavities
  area:      145.208640815602     
  volume:    673.306384326133     
  Acav:     7.623453642819089E-002
  Solving linear dielectric/ionic screening model
        iter                  A_solv                     rms
   LPB:       -0.521205178707578E+00   0.240036570784619E+00
   LPB:    0  -0.521135607631852E+00   0.182767169447920E+00  -0.204940E-02   0.000000E+00   0.331287E+02  -0.678940E-01
   LPB:    1  -0.520789287139046E+00   0.756199349225449E-01   0.132316E-01   0.000000E+00   0.107490E+03  -0.227564E-17
   LPB:    2  -0.520741669977244E+00   0.132271882211209E-01   0.126546E-01   0.143763E+00   0.166129E+03   0.442451E-15
   LPB:    3  -0.520727285092737E+00   0.793729144061846E-02   0.229391E-01   0.166654E+00   0.435916E+03   0.526093E-15
   LPB:    4  -0.520722942225788E+00   0.808053352869067E-02   0.242574E-01   0.285497E+00   0.167355E+03   0.552619E-15
   LPB:    5  -0.520720903538020E+00   0.523838954023750E-02   0.222105E-01   0.512695E+00   0.248813E+03   0.640862E-15
   LPB:    6  -0.520719670490418E+00   0.195276392699564E-02   0.296526E-01   0.453028E+00   0.137599E+03   0.662066E-15
   LPB:    7  -0.520718967418868E+00   0.120192931682236E-02   0.326764E-01   0.517426E+00   0.565801E+03   0.712488E-15
   LPB:    8  -0.520718537706042E+00   0.647595187289049E-03   0.342765E-01   0.582662E+00   0.264683E+03   0.754112E-15
   LPB:    9  -0.520718267821927E+00   0.516982076405137E-03   0.362070E-01   0.594569E+00   0.368667E+03   0.779637E-15
   LPB:   10  -0.520718097696596E+00   0.413358320289620E-03   0.368086E-01   0.620063E+00   0.317807E+03   0.796507E-15
   LPB:   11  -0.520717989122299E+00   0.366426534538191E-03   0.366324E-01   0.641271E+00   0.321339E+03   0.805382E-15
   LPB:   12  -0.520717918246716E+00   0.330419683414429E-03   0.358188E-01   0.667611E+00   0.335263E+03   0.811986E-15
   LPB:   13  -0.520717871550717E+00   0.273626005653306E-03   0.351347E-01   0.671673E+00   0.361246E+03   0.816833E-15
   LPB:   14  -0.520717839551593E+00   0.208066213891331E-03   0.361526E-01   0.665971E+00   0.328695E+03   0.820069E-15
  Finished solving LPB equations
  A_corr:   -0.444483303123402     
 End minimization
 Ecorr=   1486.16570036756     
 A_corr= -0.444483303123402     
 Ecorr_band=  -1486.61018367069     
 End Solvation calculations
RMM:   5    -0.137697305416E+03    0.18378E-03   -0.48643E-04  4247   0.692E-02    0.930E-02
 Begin Solvation calculations
  rms_SCF =   2.522217020314477E-003 tol =   2.522217020314477E-004
 Begin minimization
 Creating dielectric and ionic cavities
  area:      145.198054066591     
  volume:    673.326882411154     
  Acav:     7.622897838496007E-002
  Solving linear dielectric/ionic screening model
        iter                  A_solv                     rms
   LPB:       -0.523346369305238E+00   0.146033851958471E+00
   LPB:    0  -0.523309404397917E+00   0.840298881549792E-01  -0.149387E-02   0.000000E+00   0.331278E+02  -0.494887E-01
   LPB:    1  -0.523119081336834E+00   0.240028155042543E-01   0.168446E-01   0.000000E+00   0.137322E+03  -0.154279E-17
   LPB:    2  -0.523101012623508E+00   0.207287180237696E-01   0.160267E-01   0.997823E-01   0.285581E+03  -0.737052E-16
   LPB:    3  -0.523094759220801E+00   0.110065551359525E-01   0.179623E-01   0.308796E+00   0.102077E+03  -0.111051E-15
   LPB:    4  -0.523092294595318E+00   0.687987885076670E-02   0.228700E-01   0.309549E+00   0.142795E+03  -0.510085E-16
   LPB:    5  -0.523091192605531E+00   0.373565607725612E-02   0.204999E-01   0.498817E+00   0.278616E+03  -0.338050E-16
   LPB:    6  -0.523090502515860E+00   0.129007194605399E-02   0.277658E-01   0.462348E+00   0.152070E+03  -0.805329E-17
   LPB:    7  -0.523090133136158E+00   0.835300295399753E-03   0.324382E-01   0.458164E+00   0.515624E+03  -0.560113E-17
   LPB:    8  -0.523089922238045E+00   0.523546677813172E-03   0.336745E-01   0.549991E+00   0.268037E+03  -0.147522E-16
   LPB:    9  -0.523089786329132E+00   0.411194552462626E-03   0.361320E-01   0.600599E+00   0.317837E+03  -0.247485E-16
   LPB:   10  -0.523089696084230E+00   0.340409536528869E-03   0.369490E-01   0.649328E+00   0.252037E+03  -0.303659E-16
   LPB:   11  -0.523089635474711E+00   0.309338139978866E-03   0.364607E-01   0.680607E+00   0.273960E+03  -0.349240E-16
   LPB:   12  -0.523089593355700E+00   0.245629575576509E-03   0.361680E-01   0.700548E+00   0.241833E+03  -0.388184E-16
  Finished solving LPB equations
  A_corr:   -0.446860614970740     
 End minimization
 Ecorr=   1485.74004883358     
 A_corr= -0.446860614970740     
 Ecorr_band=  -1486.18690944855     
 End Solvation calculations
RMM:   6    -0.137697173415E+03    0.13200E-03   -0.36278E-04  4146   0.789E-02    0.498E-02
 Begin Solvation calculations
  rms_SCF =   2.522217020314477E-003 tol =   2.522217020314477E-004
 Begin minimization
 Creating dielectric and ionic cavities
  area:      145.210406912092     
  volume:    673.371244806882     
  Acav:     7.623546362884824E-002
  Solving linear dielectric/ionic screening model
        iter                  A_solv                     rms
   LPB:       -0.525616725776940E+00   0.169865852248424E+00
   LPB:    0  -0.525588522168331E+00   0.132234035796759E+00  -0.130492E-02   0.000000E+00   0.331257E+02  -0.432265E-01
   LPB:    1  -0.525414749611376E+00   0.578971917549792E-01   0.128058E-01   0.000000E+00   0.106407E+03  -0.160510E-17
   LPB:    2  -0.525389958672087E+00   0.858382229988545E-02   0.125998E-01   0.144995E+00   0.127254E+03   0.583349E-16
   LPB:    3  -0.525383671300150E+00   0.496881937724758E-02   0.223672E-01   0.142866E+00   0.303330E+03   0.486175E-16
   LPB:    4  -0.525381777839951E+00   0.434366791500519E-02   0.257490E-01   0.261601E+00   0.139523E+03   0.481847E-16
   LPB:    5  -0.525380956238060E+00   0.383299286338696E-02   0.231579E-01   0.482466E+00   0.323333E+03   0.801793E-16
   LPB:    6  -0.525380461913607E+00   0.147109938868125E-02   0.272099E-01   0.512061E+00   0.900635E+02   0.967767E-16
   LPB:    7  -0.525380153739803E+00   0.891972961610650E-03   0.318507E-01   0.532588E+00   0.303803E+03   0.697444E-16
   LPB:    8  -0.525379935597648E+00   0.485196743596797E-03   0.366121E-01   0.615798E+00   0.149702E+03   0.387979E-16
   LPB:    9  -0.525379781533731E+00   0.445829140243524E-03   0.384086E-01   0.673222E+00   0.181326E+03   0.163485E-16
   LPB:   10  -0.525379677061390E+00   0.375657289663709E-03   0.371925E-01   0.700282E+00   0.150000E+03   0.609894E-18
   LPB:   11  -0.525379607631626E+00   0.340167742280574E-03   0.358263E-01   0.689919E+00   0.223982E+03  -0.149199E-16
   LPB:   12  -0.525379560708002E+00   0.265544655600585E-03   0.354722E-01   0.682589E+00   0.201832E+03  -0.258091E-16
   LPB:   13  -0.525379529613713E+00   0.195580861532595E-03   0.353655E-01   0.664657E+00   0.329147E+03  -0.337130E-16
  Finished solving LPB equations
  A_corr:   -0.449144065984865     
 End minimization
 Ecorr=   1485.21220399464     
 A_corr= -0.449144065984865     
 Ecorr_band=  -1485.66134806063     
 End Solvation calculations
RMM:   7    -0.137697152443E+03    0.20972E-04   -0.14508E-04  4029   0.535E-02    0.204E-02
 Begin Solvation calculations
  rms_SCF =   2.522217020314477E-003 tol =   2.522217020314477E-004
 Begin minimization
 Creating dielectric and ionic cavities
  area:      145.223296729277     
  volume:    673.392968329634     
  Acav:     7.624223078287062E-002
  Solving linear dielectric/ionic screening model
        iter                  A_solv                     rms
   LPB:       -0.526328651000707E+00   0.733484559403706E-01
   LPB:    0  -0.526324067432021E+00   0.584606727996490E-01  -0.526067E-03   0.000000E+00   0.331247E+02  -0.174258E-01
   LPB:    1  -0.526297181089108E+00   0.220915453716128E-01   0.117598E-01   0.000000E+00   0.993263E+02   0.232650E-18
   LPB:    2  -0.526293271316138E+00   0.308448183872779E-02   0.129439E-01   0.132116E+00   0.118452E+03  -0.120845E-15
   LPB:    3  -0.526292439749878E+00   0.196294210078126E-02   0.222166E-01   0.123918E+00   0.261311E+03  -0.161342E-15
   LPB:    4  -0.526292178751317E+00   0.161458642556406E-02   0.260397E-01   0.267783E+00   0.106043E+03  -0.169937E-15
   LPB:    5  -0.526292054863920E+00   0.150214575523541E-02   0.243911E-01   0.506749E+00   0.336013E+03  -0.176285E-15
   LPB:    6  -0.526291973901129E+00   0.607945651532650E-03   0.280925E-01   0.567414E+00   0.774156E+02  -0.170026E-15
   LPB:    7  -0.526291917498195E+00   0.360881089056943E-03   0.331013E-01   0.591236E+00   0.199301E+03  -0.161637E-15
   LPB:    8  -0.526291872202779E+00   0.225585833581443E-03   0.404483E-01   0.657199E+00   0.116856E+03  -0.154371E-15
  Finished solving LPB equations
  A_corr:   -0.450049641419909     
 End minimization
 Ecorr=   1484.98663476987     
 A_corr= -0.450049641419909     
 Ecorr_band=  -1485.43668441129     
 End Solvation calculations
RMM:   8    -0.137697166277E+03   -0.13833E-04   -0.28221E-05  2600   0.224E-02    0.109E-02
 Begin Solvation calculations
  rms_SCF =   2.522217020314477E-003 tol =   2.522217020314477E-004
 Begin minimization
 Creating dielectric and ionic cavities
  area:      145.244752004030     
  volume:    673.429571679279     
  Acav:     7.625349480211567E-002
  Solving linear dielectric/ionic screening model
        iter                  A_solv                     rms
   LPB:       -0.527770514156792E+00   0.102151320721382E+00
   LPB:    0  -0.527760271561779E+00   0.758575600186494E-01  -0.786422E-03   0.000000E+00   0.331229E+02  -0.260486E-01
   LPB:    1  -0.527701966736193E+00   0.349444652617839E-01   0.125924E-01   0.000000E+00   0.103142E+03   0.521620E-18
   LPB:    2  -0.527693771184365E+00   0.517053328561347E-02   0.126895E-01   0.139488E+00   0.975519E+02  -0.570916E-15
   LPB:    3  -0.527691875923374E+00   0.315755606584938E-02   0.211092E-01   0.139016E+00   0.264634E+03  -0.615434E-15
   LPB:    4  -0.527691245019595E+00   0.246051708257128E-02   0.261752E-01   0.268458E+00   0.963722E+02  -0.622912E-15
   LPB:    5  -0.527690924662355E+00   0.253448263096966E-02   0.257457E-01   0.516245E+00   0.316519E+03  -0.613992E-15
   LPB:    6  -0.527690675392807E+00   0.111827375146575E-02   0.301145E-01   0.665217E+00   0.670687E+02  -0.611685E-15
   LPB:    7  -0.527690476826718E+00   0.681464248646975E-03   0.349384E-01   0.686608E+00   0.151547E+03  -0.612726E-15
   LPB:    8  -0.527690332128753E+00   0.409363186198606E-03   0.372917E-01   0.682729E+00   0.117281E+03  -0.615447E-15
   LPB:    9  -0.527690236525810E+00   0.371467343229037E-03   0.371078E-01   0.663981E+00   0.197524E+03  -0.610707E-15
   LPB:   10  -0.527690174608890E+00   0.334787594170458E-03   0.355398E-01   0.676222E+00   0.179221E+03  -0.608538E-15
   LPB:   11  -0.527690133292507E+00   0.268485110464382E-03   0.351498E-01   0.674690E+00   0.356657E+03  -0.607143E-15
   LPB:   12  -0.527690104867396E+00   0.188456762728810E-03   0.360605E-01   0.670611E+00   0.268115E+03  -0.605189E-15
  Finished solving LPB equations
  A_corr:   -0.451436610065281     
 End minimization
 Ecorr=   1484.51878334239     
 A_corr= -0.451436610065281     
 Ecorr_band=  -1484.97021995246     
 End Solvation calculations
RMM:   9    -0.137697196208E+03   -0.29932E-04   -0.20540E-05  2412   0.198E-02    0.128E-02
 Begin Solvation calculations
  rms_SCF =   2.522217020314477E-003 tol =   2.522217020314477E-004
 Begin minimization
 Creating dielectric and ionic cavities
  area:      145.271373378954     
  volume:    673.471223253923     
  Acav:     7.626747102395068E-002
  Solving linear dielectric/ionic screening model
        iter                  A_solv                     rms
   LPB:       -0.529514003136954E+00   0.119008514189613E+00
   LPB:    0  -0.529497572435138E+00   0.812758227475525E-01  -0.996074E-03   0.000000E+00   0.331210E+02  -0.329909E-01
   LPB:    1  -0.529412992245631E+00   0.419344532575050E-01   0.135423E-01   0.000000E+00   0.104042E+03   0.257385E-17
   LPB:    2  -0.529401998335283E+00   0.727929154532630E-02   0.126206E-01   0.139475E+00   0.884339E+02  -0.153505E-15
   LPB:    3  -0.529399208228234E+00   0.410910603963055E-02   0.199905E-01   0.160223E+00   0.290515E+03  -0.172064E-15
   LPB:    4  -0.529398229244518E+00   0.316955548996419E-02   0.256885E-01   0.273048E+00   0.954577E+02  -0.174731E-15
   LPB:    5  -0.529397768918713E+00   0.283674673233847E-02   0.242393E-01   0.498320E+00   0.329575E+03  -0.158984E-15
   LPB:    6  -0.529397463720495E+00   0.106777431330886E-02   0.279486E-01   0.575011E+00   0.828400E+02  -0.148406E-15
   LPB:    7  -0.529397254477645E+00   0.698279251830330E-03   0.340401E-01   0.562909E+00   0.197202E+03  -0.137838E-15
   LPB:    8  -0.529397100383494E+00   0.456356958035199E-03   0.381884E-01   0.656441E+00   0.129305E+03  -0.131698E-15
   LPB:    9  -0.529396990619400E+00   0.420901494449957E-03   0.381788E-01   0.712497E+00   0.166767E+03  -0.121972E-15
   LPB:   10  -0.529396916232514E+00   0.369124420861118E-03   0.359456E-01   0.719802E+00   0.139921E+03  -0.115422E-15
   LPB:   11  -0.529396866142024E+00   0.293679534147396E-03   0.350761E-01   0.690070E+00   0.253846E+03  -0.113511E-15
   LPB:   12  -0.529396832032768E+00   0.201603950217049E-03   0.359591E-01   0.664231E+00   0.209615E+03  -0.112410E-15
  Finished solving LPB equations
  A_corr:   -0.453129361008817     
 End minimization
 Ecorr=   1483.96781932703     
 A_corr= -0.453129361008817     
 Ecorr_band=  -1484.42094868804     
 End Solvation calculations
RMM:  10    -0.137697231823E+03   -0.35614E-04   -0.18002E-05  2433   0.168E-02    0.147E-02
 Begin Solvation calculations
  rms_SCF =   2.522217020314477E-003 tol =   2.522217020314477E-004
 Begin minimization
 Creating dielectric and ionic cavities
  area:      145.277429448999     
  volume:    673.477162058182     
  Acav:     7.627065046072434E-002
  Solving linear dielectric/ionic screening model
        iter                  A_solv                     rms
   LPB:       -0.529808301617820E+00   0.318720411091784E-01
   LPB:    0  -0.529807143665701E+00   0.218318268568596E-01  -0.264430E-03   0.000000E+00   0.331207E+02  -0.875810E-02
   LPB:    1  -0.529801442236951E+00   0.494992953856069E-02   0.160178E-01   0.000000E+00   0.690553E+02  -0.245177E-18
   LPB:    2  -0.529800868762121E+00   0.301670801032468E-02   0.146353E-01   0.110086E+00   0.268740E+03   0.354843E-17
   LPB:    3  -0.529800715168755E+00   0.166157994406091E-02   0.180504E-01   0.217156E+00   0.104936E+03   0.323486E-17
   LPB:    4  -0.529800647576014E+00   0.105076463579361E-02   0.222392E-01   0.357187E+00   0.120216E+03  -0.340130E-17
   LPB:    5  -0.529800613448886E+00   0.690585827057291E-03   0.234470E-01   0.478886E+00   0.209301E+03  -0.647888E-17
   LPB:    6  -0.529800589846516E+00   0.265999060740998E-03   0.273137E-01   0.593693E+00   0.117156E+03  -0.606311E-17
   LPB:    7  -0.529800571476906E+00   0.203164181693105E-03   0.388961E-01   0.546536E+00   0.176232E+03  -0.843342E-17
  Finished solving LPB equations
  A_corr:   -0.453529921016182     
 End minimization
 Ecorr=   1483.84897237862     
 A_corr= -0.453529921016182     
 Ecorr_band=  -1484.30250229963     
 End Solvation calculations
RMM:  11    -0.137697239625E+03   -0.78028E-05   -0.76298E-06  2294   0.103E-02
 Begin Solvation calculations
  rms_SCF =   2.522217020314477E-003 tol =   2.522217020314477E-004
 Begin minimization
 Creating dielectric and ionic cavities
  area:      145.299833566302     
  volume:    673.497478154237     
  Acav:     7.628241262230857E-002
  Solving linear dielectric/ionic screening model
        iter                  A_solv                     rms
   LPB:       -0.531298092860786E+00   0.101477530491684E+00
   LPB:    0  -0.531285651243549E+00   0.651111352482306E-01  -0.866782E-03   0.000000E+00   0.331198E+02  -0.287076E-01
   LPB:    1  -0.531224392829798E+00   0.209945349332112E-01   0.157851E-01   0.000000E+00   0.783075E+02   0.137055E-17
   LPB:    2  -0.531218260285058E+00   0.833849642739760E-02   0.154177E-01   0.102495E+00   0.114416E+03   0.151475E-15
   LPB:    3  -0.531216719862286E+00   0.439113041148741E-02   0.184369E-01   0.210054E+00   0.175659E+03   0.165630E-15
   LPB:    4  -0.531216030743483E+00   0.351262801586641E-02   0.223925E-01   0.368333E+00   0.107394E+03   0.192006E-15
   LPB:    5  -0.531215658155823E+00   0.299031964416561E-02   0.230472E-01   0.525312E+00   0.239172E+03   0.206354E-15
   LPB:    6  -0.531215364194830E+00   0.100553187631985E-02   0.278887E-01   0.652007E+00   0.857685E+02   0.218265E-15
   LPB:    7  -0.531215144638235E+00   0.575727580171584E-03   0.361953E-01   0.575483E+00   0.183286E+03   0.234822E-15
   LPB:    8  -0.531214996496021E+00   0.435620871824210E-03   0.374665E-01   0.651840E+00   0.137940E+03   0.251913E-15
   LPB:    9  -0.531214897824963E+00   0.399004943067489E-03   0.367641E-01   0.678783E+00   0.209031E+03   0.267064E-15
   LPB:   10  -0.531214831649485E+00   0.329570270839618E-03   0.358751E-01   0.687288E+00   0.175571E+03   0.276825E-15
   LPB:   11  -0.531214787390028E+00   0.276531932273018E-03   0.353251E-01   0.679231E+00   0.289558E+03   0.284167E-15
   LPB:   12  -0.531214757170551E+00   0.193289140517099E-03   0.358254E-01   0.673246E+00   0.240825E+03   0.288572E-15
  Finished solving LPB equations
  A_corr:   -0.454932344548243     
 End minimization
 Ecorr=   1483.33853378375     
 A_corr= -0.454932344548243     
 Ecorr_band=  -1483.79346612830     
 End Solvation calculations
   2 F= -.13769724E+03 E0= -.13769676E+03  d E =-.705769E-02
quench:  g(F)=  0.000E+00 g(S)=  0.000E+00 dE (1.order)= 0.000E+00
 bond charge predicted
       N       E                     dE             d eps       ncg     rms          rms(c)
 Begin Solvation calculations
  rms_SCF =   2.522217020314477E-003 tol =   2.522217020314477E-004
 Begin minimization
 Creating dielectric and ionic cavities
  area:      145.433249915939     
  volume:    673.434197368952     
  Acav:     7.635245620586778E-002
  Solving linear dielectric/ionic screening model
        iter                  A_solv                     rms
   LPB:       -0.536894431656449E+00   0.722032003616002E-02
   LPB:    0  -0.536894430832450E+00   0.734949654011199E-02  -0.705367E-05   0.000000E+00   0.331227E+02  -0.233637E-03
   LPB:    1  -0.533165291738184E+00   0.265404344616513E-02   0.154895E-01   0.000000E+00   0.498327E+06  -0.378140E-20
   LPB:    2  -0.532859691600343E+00   0.305155529382661E-02   0.262549E-01   0.483472E-01   0.116823E+06   0.133793E-16
   LPB:    3  -0.532767997741264E+00   0.677415179870275E-02   0.322435E-01   0.244318E+00   0.232897E+05   0.114214E-16
   LPB:    4  -0.532728941884080E+00   0.178877707181873E-01   0.347129E-01   0.395637E+00   0.167099E+04   0.129042E-16
   LPB:    5  -0.532712492158350E+00   0.284343383262577E-01   0.256768E-01   0.569407E+00   0.228603E+03  -0.383260E-16
   LPB:    6  -0.532700996051335E+00   0.104327428996132E-01   0.200188E-01   0.896386E+00   0.238810E+03  -0.602410E-16
   LPB:    7  -0.532691778250146E+00   0.589360448300741E-02   0.342014E-01   0.469321E+00   0.684399E+03  -0.906805E-16
   LPB:    8  -0.532686528086153E+00   0.100760217689424E-01   0.331370E-01   0.587864E+00   0.442879E+03  -0.107310E-15
   LPB:    9  -0.532683538494818E+00   0.671751806688785E-02   0.241637E-01   0.780888E+00   0.132342E+03  -0.936132E-16
   LPB:   10  -0.532681098054447E+00   0.217713728438855E-02   0.309280E-01   0.637775E+00   0.694095E+03  -0.118385E-15
   LPB:   11  -0.532679419937937E+00   0.688798802535415E-03   0.386187E-01   0.550692E+00   0.109277E+04  -0.159109E-15
   LPB:   12  -0.532678364129777E+00   0.845801356587908E-03   0.401485E-01   0.605189E+00   0.154221E+04  -0.176930E-15
   LPB:   13  -0.532677662555794E+00   0.112760725844565E-02   0.387908E-01   0.687747E+00   0.147758E+04  -0.189096E-15
   LPB:   14  -0.532677237560598E+00   0.991345253112135E-03   0.336191E-01   0.698961E+00   0.676993E+03  -0.199096E-15
   LPB:   15  -0.532676943020399E+00   0.632303247737486E-03   0.346925E-01   0.671602E+00   0.121409E+04  -0.203378E-15
   LPB:   16  -0.532676739352697E+00   0.395054683319279E-03   0.366975E-01   0.653698E+00   0.129971E+04  -0.203899E-15
   LPB:   17  -0.532676606509785E+00   0.407592533775283E-03   0.384966E-01   0.621771E+00   0.117895E+04  -0.206536E-15
   LPB:   18  -0.532676513734110E+00   0.430402046328492E-03   0.373956E-01   0.718948E+00   0.145318E+04  -0.208011E-15
   LPB:   19  -0.532676450762783E+00   0.336997980500249E-03   0.354864E-01   0.715264E+00   0.762534E+03  -0.210238E-15
   LPB:   20  -0.532676406278519E+00   0.198090678088750E-03   0.361890E-01   0.692706E+00   0.165494E+04  -0.211202E-15
  Finished solving LPB equations
  A_corr:   -0.456323950072651     
 End minimization
 Ecorr=   1483.10373429842     
 A_corr= -0.456323950072651     
[...]
   LPB:    5  -0.565872960788807E+00   0.376778983987988E-03   0.243235E-01   0.605249E+00   0.191613E+03  -0.104233E-16
   LPB:    6  -0.565872950926121E+00   0.200177362644683E-03   0.318990E-01   0.505356E+00   0.333628E+03  -0.592391E-17
   LPB:    7  -0.565872944692198E+00   0.110598989336373E-03   0.339285E-01   0.594263E+00   0.573304E+03  -0.122014E-17
   LPB:    8  -0.565872940546759E+00   0.632251637985497E-04   0.354859E-01   0.635797E+00   0.102698E+04   0.222190E-17
  Finished solving LPB equations
  A_corr:   -0.489442672960918     
 End minimization
 Ecorr=   1479.01670558326     
 A_corr= -0.489442672960918     
 Ecorr_band=  -1479.50614825622     
 End Solvation calculations
RMM:   2    -0.137689641007E+03   -0.29966E-04   -0.32049E-04  4925   0.447E-02    0.160E-02
 Begin Solvation calculations
  rms_SCF =   1.020358247986536E-003 tol =   1.020358247986536E-004
 Begin minimization
 Creating dielectric and ionic cavities
  area:      145.581789540181     
  volume:    672.335663650033     
  Acav:     7.643043950859493E-002
  Solving linear dielectric/ionic screening model
        iter                  A_solv                     rms
   LPB:       -0.565893642854743E+00   0.880159348083433E-02
   LPB:    0  -0.565893637722028E+00   0.871940076090798E-02  -0.175909E-04   0.000000E+00   0.331742E+02  -0.583565E-03
   LPB:    1  -0.565893395152736E+00   0.893156497788962E-03   0.922520E-02   0.000000E+00   0.748703E+02  -0.260476E-19
   LPB:    2  -0.565893362622584E+00   0.249152400817070E-03   0.172908E-01   0.715503E-01   0.206375E+03   0.128622E-18
   LPB:    3  -0.565893353736791E+00   0.174632408483084E-03   0.277257E-01   0.170350E+00   0.398512E+03   0.147510E-18
   LPB:    4  -0.565893349631448E+00   0.189193604390395E-03   0.314157E-01   0.407746E+00   0.342585E+03  -0.543117E-18
   LPB:    5  -0.565893346718108E+00   0.219016457326126E-03   0.318993E-01   0.698887E+00   0.259839E+03   0.550775E-18
   LPB:    6  -0.565893344192678E+00   0.174703833986940E-03   0.304369E-01   0.908501E+00   0.214123E+03   0.156559E-17
   LPB:    7  -0.565893342174771E+00   0.944842914396401E-04   0.315781E-01   0.770159E+00   0.289678E+03  -0.455053E-18
  Finished solving LPB equations
  A_corr:   -0.489462902666176     
 End minimization
 Ecorr=   1479.02117720326     
 A_corr= -0.489462902666176     
 Ecorr_band=  -1479.51064010592     
 End Solvation calculations
RMM:   3    -0.137689636147E+03    0.48600E-05   -0.14485E-05  2419   0.119E-02
 Begin Solvation calculations
  rms_SCF =   1.020358247986536E-003 tol =   1.020358247986536E-004
 Begin minimization
 Creating dielectric and ionic cavities
  area:      145.580998674963     
  volume:    672.336226059285     
  Acav:     7.643002430435564E-002
  Solving linear dielectric/ionic screening model
        iter                  A_solv                     rms
   LPB:       -0.565887899396037E+00   0.135689809434631E-01
   LPB:    0  -0.565887899345380E+00   0.135713421104534E-01  -0.174758E-05   0.000000E+00   0.331742E+02  -0.579747E-04
   LPB:    1  -0.565887363298548E+00   0.128596133354315E-02   0.877424E-02   0.000000E+00   0.755564E+02   0.253269E-20
   LPB:    2  -0.565887312689751E+00   0.306390726526364E-03   0.175289E-01   0.472583E-01   0.133132E+03  -0.701574E-18
   LPB:    3  -0.565887304106090E+00   0.232360422980639E-03   0.246325E-01   0.120696E+00   0.196787E+03  -0.698378E-18
   LPB:    4  -0.565887300337429E+00   0.195684364804239E-03   0.289121E-01   0.374061E+00   0.222515E+03  -0.100766E-17
   LPB:    5  -0.565887298386571E+00   0.161658538148084E-03   0.260361E-01   0.574833E+00   0.226110E+03  -0.508970E-18
   LPB:    6  -0.565887296946567E+00   0.985989970231772E-04   0.293693E-01   0.654367E+00   0.265895E+03  -0.348616E-17
  Finished solving LPB equations
  A_corr:   -0.489457272642212     
 End minimization
 Ecorr=   1479.02264031287     
 A_corr= -0.489457272642212     
 Ecorr_band=  -1479.51209758551     
 End Solvation calculations
  71 F= -.13768964E+03 E0= -.13768947E+03  d E =0.187357E-03
quench:  g(F)=  0.000E+00 g(S)=  0.000E+00 dE (1.order)= 0.000E+00
 bond charge predicted
       N       E                     dE             d eps       ncg     rms          rms(c)
 Begin Solvation calculations
  rms_SCF =   1.020358247986536E-003 tol =   1.020358247986536E-004
 Begin minimization
 Creating dielectric and ionic cavities
  area:      145.584147939098     
  volume:    672.322429337862     
  Acav:     7.643167766802648E-002
  Solving linear dielectric/ionic screening model
        iter                  A_solv                     rms
   LPB:       -0.566108045981935E+00   0.126714224499175E-02
   LPB:    0  -0.566108045949260E+00   0.129415593535426E-02  -0.140352E-05   0.000000E+00   0.331748E+02  -0.465615E-04
   LPB:    1  -0.566005393522605E+00   0.483946042728410E-03   0.154398E-01   0.000000E+00   0.431220E+06  -0.288820E-20
   LPB:    2  -0.565997115620891E+00   0.592142036650961E-03   0.263891E-01   0.471811E-01   0.957754E+05  -0.179135E-17
   LPB:    3  -0.565994595249758E+00   0.137010405636963E-02   0.324138E-01   0.247878E+00   0.173901E+05  -0.487393E-17
   LPB:    4  -0.565993499379178E+00   0.361882785672544E-02   0.346203E-01   0.407094E+00   0.124266E+04  -0.465933E-17
   LPB:    5  -0.565993045986949E+00   0.473037872427506E-02   0.231989E-01   0.617415E+00   0.198148E+03  -0.453787E-17
   LPB:    6  -0.565992691230834E+00   0.144889305916922E-02   0.214326E-01   0.846932E+00   0.294179E+03  -0.361841E-17
   LPB:    7  -0.565992429112677E+00   0.893710359786182E-03   0.354803E-01   0.446329E+00   0.970943E+03  -0.950291E-19
   LPB:    8  -0.565992281783168E+00   0.158672942451311E-02   0.338279E-01   0.589529E+00   0.456019E+03   0.324320E-17
   LPB:    9  -0.565992199564236E+00   0.121095635685992E-02   0.248026E-01   0.761132E+00   0.140880E+03   0.686478E-17
   LPB:   10  -0.565992131733088E+00   0.392221365787196E-03   0.299071E-01   0.684196E+00   0.520751E+03   0.225228E-16
   LPB:   11  -0.565992086313821E+00   0.140703641351757E-03   0.374008E-01   0.535433E+00   0.142955E+04   0.424367E-16
   LPB:   12  -0.565992056098289E+00   0.172935122838375E-03   0.406418E-01   0.612207E+00   0.206373E+04   0.611896E-16
   LPB:   13  -0.565992037746633E+00   0.191275962507702E-03   0.356584E-01   0.692239E+00   0.159058E+04   0.738601E-16
   LPB:   14  -0.565992025955978E+00   0.150103351395417E-03   0.345445E-01   0.663201E+00   0.922738E+03   0.815090E-16
   LPB:   15  -0.565992017729039E+00   0.920314836997413E-04   0.357546E-01   0.674136E+00   0.160578E+04   0.860506E-16
  Finished solving LPB equations
  A_corr:   -0.489560340061012     
 End minimization
 Ecorr=   1479.00176341599     
 A_corr= -0.489560340061012     
 Ecorr_band=  -1479.49132375605     
 End Solvation calculations
DAV:   1    -0.137689428726E+03    0.21228E-03   -0.63640E-03  4239   0.173E-01    0.182E-02
 Begin Solvation calculations
  rms_SCF =   1.020358247986536E-003 tol =   1.020358247986536E-004
 Begin minimization
 Creating dielectric and ionic cavities
  area:      145.579304763562     
  volume:    672.331339788144     
  Acav:     7.642913500087010E-002
  Solving linear dielectric/ionic screening model
        iter                  A_solv                     rms
   LPB:       -0.565900790827104E+00   0.698623782434158E-02
   LPB:    0  -0.565900703333004E+00   0.412445500469227E-02   0.726278E-04   0.000000E+00   0.331744E+02   0.240938E-02
   LPB:    1  -0.565900190966661E+00   0.223168985128285E-02   0.164231E-01   0.000000E+00   0.175870E+03   0.514318E-19
   LPB:    2  -0.565900102284220E+00   0.127806850800538E-02   0.154492E-01   0.183995E+00   0.207226E+03  -0.190189E-16
   LPB:    3  -0.565900062613085E+00   0.840358622695138E-03   0.221442E-01   0.312092E+00   0.191436E+03  -0.218070E-16
   LPB:    4  -0.565900045755472E+00   0.608817585030383E-03   0.226495E-01   0.415453E+00   0.173241E+03  -0.239999E-16
   LPB:    5  -0.565900034526267E+00   0.300691032722215E-03   0.242254E-01   0.622789E+00   0.279430E+03  -0.239911E-16
   LPB:    6  -0.565900026102491E+00   0.141098952590620E-03   0.345766E-01   0.525589E+00   0.276846E+03  -0.198873E-16
   LPB:    7  -0.565900020573104E+00   0.113888213468990E-03   0.380340E-01   0.596734E+00   0.843189E+03  -0.154399E-16
   LPB:    8  -0.565900017004105E+00   0.985887111272058E-04   0.366776E-01   0.669330E+00   0.539169E+03  -0.119271E-16
  Finished solving LPB equations
  A_corr:   -0.489470882003235     
 End minimization
 Ecorr=   1479.00613704910     
 A_corr= -0.489470882003235     
 Ecorr_band=  -1479.49560793111     
 End Solvation calculations
RMM:   2    -0.137689459652E+03   -0.30927E-04   -0.32526E-04  4880   0.458E-02    0.174E-02
 Begin Solvation calculations
  rms_SCF =   1.020358247986536E-003 tol =   1.020358247986536E-004
 Begin minimization
 Creating dielectric and ionic cavities
  area:      145.577459990505     
  volume:    672.332011821070     
  Acav:     7.642816649501503E-002
  Solving linear dielectric/ionic screening model
        iter                  A_solv                     rms
   LPB:       -0.565837712458983E+00   0.200834984411199E-01
   LPB:    0  -0.565837703425191E+00   0.199656379705559E-01   0.233372E-04   0.000000E+00   0.331744E+02   0.774197E-03
   LPB:    1  -0.565836497475194E+00   0.187221095454810E-02   0.896982E-02   0.000000E+00   0.749277E+02   0.127018E-19
   LPB:    2  -0.565836382143147E+00   0.402726895929227E-03   0.160005E-01   0.536132E-01   0.175016E+03  -0.219089E-17
   LPB:    3  -0.565836360734153E+00   0.330727126748854E-03   0.258488E-01   0.114905E+00   0.301004E+03  -0.548451E-17
   LPB:    4  -0.565836353631377E+00   0.293861339076971E-03   0.259232E-01   0.330814E+00   0.188511E+03  -0.608447E-17
   LPB:    5  -0.565836349761539E+00   0.219344494219209E-03   0.253218E-01   0.557775E+00   0.258972E+03  -0.682064E-17
   LPB:    6  -0.565836346815645E+00   0.133765980877097E-03   0.314342E-01   0.613220E+00   0.194642E+03  -0.570338E-17
   LPB:    7  -0.565836344501670E+00   0.786998726219728E-04   0.345918E-01   0.713792E+00   0.479284E+03  -0.256569E-17
  Finished solving LPB equations
  A_corr:   -0.489408178006655     
 End minimization
 Ecorr=   1479.01311066745     
 A_corr= -0.489408178006655     
 Ecorr_band=  -1479.50251884545     
 End Solvation calculations
RMM:   3    -0.137689456407E+03    0.32448E-05   -0.17033E-05  2439   0.132E-02
 Begin Solvation calculations
  rms_SCF =   1.020358247986536E-003 tol =   1.020358247986536E-004
 Begin minimization
 Creating dielectric and ionic cavities
  area:      145.577984073390     
  volume:    672.332347465403     
  Acav:     7.642844163852974E-002
  Solving linear dielectric/ionic screening model
        iter                  A_solv                     rms
   LPB:       -0.565813590861596E+00   0.147330896027093E-01
   LPB:    0  -0.565813590735927E+00   0.147310492316628E-01   0.275249E-05   0.000000E+00   0.331744E+02   0.913123E-04
   LPB:    1  -0.565812926744627E+00   0.158325940449391E-02   0.900158E-02   0.000000E+00   0.755207E+02  -0.360642E-21
   LPB:    2  -0.565812842826509E+00   0.350408756623103E-03   0.179358E-01   0.634294E-01   0.143458E+03  -0.663107E-19
   LPB:    3  -0.565812829976344E+00   0.251218141176714E-03   0.247430E-01   0.111000E+00   0.210543E+03   0.174651E-17
   LPB:    4  -0.565812824402963E+00   0.201236492604235E-03   0.286585E-01   0.374463E+00   0.286432E+03   0.262129E-17
   LPB:    5  -0.565812821592744E+00   0.197924479454392E-03   0.288063E-01   0.501634E+00   0.186916E+03   0.464203E-17
   LPB:    6  -0.565812819727597E+00   0.142922122548188E-03   0.271431E-01   0.704371E+00   0.282591E+03   0.481420E-17
   LPB:    7  -0.565812818147429E+00   0.751052620173864E-04   0.330951E-01   0.694843E+00   0.266005E+03   0.426685E-17
  Finished solving LPB equations
  A_corr:   -0.489384376508899     
 End minimization
 Ecorr=   1479.02330537232     
 A_corr= -0.489384376508899     
 Ecorr_band=  -1479.51268974883     
 End Solvation calculations
  72 F= -.13768946E+03 E0= -.13768929E+03  d E =0.179739E-03
quench:  g(F)=  0.000E+00 g(S)=  0.000E+00 dE (1.order)= 0.000E+00
 bond charge predicted
       N       E                     dE             d eps       ncg     rms          rms(c)
 Begin Solvation calculations
  rms_SCF =   1.020358247986536E-003 tol =   1.020358247986536E-004
 Begin minimization
 Creating dielectric and ionic cavities
  area:      145.587510382385     
  volume:    672.327728027845     
  Acav:     7.643344295075191E-002
  Solving linear dielectric/ionic screening model
        iter                  A_solv                     rms
   LPB:       -0.565930301395409E+00   0.850620028341251E-03
   LPB:    0  -0.565930301390291E+00   0.856188776449644E-03  -0.555467E-06   0.000000E+00   0.331746E+02  -0.184274E-04
   LPB:    1  -0.565874421564235E+00   0.349473184657104E-03   0.153561E-01   0.000000E+00   0.617962E+06  -0.138945E-20
   LPB:    2  -0.565870217344155E+00   0.396967222330534E-03   0.259007E-01   0.446066E-01   0.947756E+05  -0.196160E-17
   LPB:    3  -0.565868998088357E+00   0.792362744978316E-03   0.318944E-01   0.235508E+00   0.176852E+05  -0.177014E-17
   LPB:    4  -0.565868474565675E+00   0.223426080382674E-02   0.348474E-01   0.392993E+00   0.187127E+04  -0.266109E-17
   LPB:    5  -0.565868253575242E+00   0.330261984158533E-02   0.248110E-01   0.592876E+00   0.202147E+03  -0.392194E-17
   LPB:    6  -0.565868091770665E+00   0.114247682527560E-02   0.205162E-01   0.885455E+00   0.266861E+03  -0.435108E-17
   LPB:    7  -0.565867964940838E+00   0.708602628633862E-03   0.346915E-01   0.463557E+00   0.125691E+04  -0.700262E-17
   LPB:    8  -0.565867892884241E+00   0.113309675931008E-02   0.327637E-01   0.601566E+00   0.282956E+03  -0.921734E-17
   LPB:    9  -0.565867850872410E+00   0.824795779181243E-03   0.245031E-01   0.779597E+00   0.205745E+03  -0.140260E-16
   LPB:   10  -0.565867815890614E+00   0.272742701850703E-03   0.311487E-01   0.655015E+00   0.322566E+03  -0.262979E-16
   LPB:   11  -0.565867793411985E+00   0.150003932874563E-03   0.371823E-01   0.538309E+00   0.232147E+04  -0.375143E-16
   LPB:   12  -0.565867778507204E+00   0.158668897777026E-03   0.394705E-01   0.624624E+00   0.115232E+04  -0.431290E-16
   LPB:   13  -0.565867769179850E+00   0.140831282921483E-03   0.342496E-01   0.721191E+00   0.126844E+04  -0.468816E-16
   LPB:   14  -0.565867762915526E+00   0.908044367926990E-04   0.347234E-01   0.662444E+00   0.106832E+04  -0.486896E-16
  Finished solving LPB equations
  A_corr:   -0.489434319964774     
 End minimization
 Ecorr=   1479.00512112281     
 A_corr= -0.489434319964774     
 Ecorr_band=  -1479.49455544277     
 End Solvation calculations
DAV:   1    -0.137689312392E+03    0.14726E-03   -0.40198E-03  4230   0.153E-01    0.177E-02
 Begin Solvation calculations
  rms_SCF =   1.020358247986536E-003 tol =   1.020358247986536E-004
 Begin minimization
 Creating dielectric and ionic cavities
  area:      145.580841599247     
  volume:    672.324202001708     
  Acav:     7.642994183960493E-002
  Solving linear dielectric/ionic screening model
        iter                  A_solv                     rms
   LPB:       -0.565929383885085E+00   0.733864393948797E-02
   LPB:    0  -0.565929274328381E+00   0.446140123889822E-02  -0.812701E-04   0.000000E+00   0.331748E+02  -0.269611E-02
   LPB:    1  -0.565928909708577E+00   0.241498990806359E-02   0.157537E-01   0.000000E+00   0.125560E+03   0.900952E-20
   LPB:    2  -0.565928833936496E+00   0.838519438566102E-03   0.158098E-01   0.207073E+00   0.194064E+03  -0.136673E-17
   LPB:    3  -0.565928802123470E+00   0.585214770412902E-03   0.220242E-01   0.301385E+00   0.479842E+03   0.743138E-18
   LPB:    4  -0.565928788333660E+00   0.621566704604653E-03   0.225794E-01   0.422805E+00   0.204579E+03   0.195397E-17
   LPB:    5  -0.565928778878724E+00   0.277252215249112E-03   0.246280E-01   0.628613E+00   0.178937E+03  -0.113719E-17
   LPB:    6  -0.565928772205892E+00   0.123641590737744E-03   0.354571E-01   0.490205E+00   0.475244E+03  -0.603280E-17
   LPB:    7  -0.565928767986091E+00   0.787845922453792E-04   0.370560E-01   0.605100E+00   0.745444E+03  -0.113210E-16
  Finished solving LPB equations
  A_corr:   -0.489498826146486     
 End minimization
 Ecorr=   1479.01652032890     
 A_corr= -0.489498826146486     
 Ecorr_band=  -1479.50601915504     
 End Solvation calculations
RMM:   2    -0.137689346461E+03   -0.34069E-04   -0.36045E-04  4857   0.445E-02    0.145E-02
 Begin Solvation calculations
  rms_SCF =   1.020358247986536E-003 tol =   1.020358247986536E-004
 Begin minimization
 Creating dielectric and ionic cavities
  area:      145.580923275247     
  volume:    672.326388405326     
  Acav:     7.642998471950455E-002
  Solving linear dielectric/ionic screening model
        iter                  A_solv                     rms
   LPB:       -0.565907294015755E+00   0.406007492688498E-02
   LPB:    0  -0.565907288146288E+00   0.366013541032578E-02   0.188110E-04   0.000000E+00   0.331747E+02   0.624047E-03
   LPB:    1  -0.565907215370879E+00   0.858535894689955E-03   0.104113E-01   0.000000E+00   0.927127E+02   0.129485E-19
   LPB:    2  -0.565907193442556E+00   0.399081855603678E-03   0.209543E-01   0.149711E+00   0.313818E+03   0.554924E-17
   LPB:    3  -0.565907185817185E+00   0.379639816085091E-03   0.239557E-01   0.304173E+00   0.175387E+03   0.728006E-17
   LPB:    4  -0.565907181012443E+00   0.244307385505206E-03   0.263080E-01   0.573759E+00   0.188354E+03   0.511666E-17
   LPB:    5  -0.565907177429360E+00   0.133439791861485E-03   0.304734E-01   0.643805E+00   0.390806E+03   0.591533E-17
   LPB:    6  -0.565907174495478E+00   0.664026531934795E-04   0.362696E-01   0.687959E+00   0.685246E+03   0.736636E-17
  Finished solving LPB equations
  A_corr:   -0.489477189775974     
 End minimization
 Ecorr=   1479.01974214212     
 A_corr= -0.489477189775974     
 Ecorr_band=  -1479.50921933189     
 End Solvation calculations
RMM:   3    -0.137689340568E+03    0.58924E-05   -0.16595E-05  2416   0.127E-02
 Begin Solvation calculations
  rms_SCF =   1.020358247986536E-003 tol =   1.020358247986536E-004
 Begin minimization
 Creating dielectric and ionic cavities
  area:      145.581529943417     
  volume:    672.325675831284     
  Acav:     7.643030322029379E-002
  Solving linear dielectric/ionic screening model
        iter                  A_solv                     rms
   LPB:       -0.565940213981230E+00   0.161781773745951E-01
   LPB:    0  -0.565940200845197E+00   0.160474948095184E-01  -0.281413E-04   0.000000E+00   0.331747E+02  -0.933578E-03
   LPB:    1  -0.565939433679747E+00   0.157457107308033E-02   0.901856E-02   0.000000E+00   0.731275E+02   0.164196E-19
   LPB:    2  -0.565939355394343E+00   0.335702455511498E-03   0.161243E-01   0.570752E-01   0.163529E+03   0.143655E-17
   LPB:    3  -0.565939341696316E+00   0.270018904702160E-03   0.254345E-01   0.110927E+00   0.250725E+03   0.616485E-18
   LPB:    4  -0.565939336656172E+00   0.255665006416129E-03   0.272021E-01   0.344038E+00   0.202427E+03  -0.121422E-17
   LPB:    5  -0.565939333866574E+00   0.179152032457410E-03   0.250829E-01   0.600236E+00   0.227324E+03   0.438661E-18
   LPB:    6  -0.565939331797803E+00   0.114552970325909E-03   0.311334E-01   0.597479E+00   0.245876E+03   0.144791E-17
   LPB:    7  -0.565939330168051E+00   0.697520027098893E-04   0.350791E-01   0.699177E+00   0.388355E+03   0.150148E-17
  Finished solving LPB equations
  A_corr:   -0.489509026947757     
 End minimization
 Ecorr=   1479.02549779057     
 A_corr= -0.489509026947757     
 Ecorr_band=  -1479.51500681751     
 End Solvation calculations
  73 F= -.13768934E+03 E0= -.13768918E+03  d E =0.115839E-03
quench:  g(F)=  0.000E+00 g(S)=  0.000E+00 dE (1.order)= 0.000E+00
 reached required accuracy - stopping structural energy minimisation
