 vasp.5.4.4.18Apr17-6-g9f103f2a35 (build Feb 06 2024 13:54:16) complex          
  
 POSCAR found type information on POSCAR  Ni N  O 
 04/POSCAR found :  3 types and      40 ions
 scaLAPACK will be used

 ----------------------------------------------------------------------------- 
|                                                                             |
|  ADVICE TO THIS USER RUNNING 'VASP/VAMP'   (HEAR YOUR MASTER'S VOICE ...):  |
|                                                                             |
|      You enforced a specific xc-type in the INCAR file,                     |
|      a different type was found on the POTCAR file                          |
|          I HOPE YOU KNOW, WHAT YOU ARE  DOING                               |
|                                                                             |
 ----------------------------------------------------------------------------- 

 LDA part: xc-table for Pade appr. of Perdew
 POSCAR found type information on POSCAR  Ni N  O 
 00/POSCAR found :  3 types and      40 ions
 POSCAR found type information on POSCAR  Ni N  O 
 06/POSCAR found :  3 types and      40 ions
 Jacobian:    19.3150482140651     
 POSCAR, INCAR and KPOINTS ok, starting setup
 FFT: planning ...
 WAVECAR not read
 entering main loop
       N       E                     dE             d eps       ncg     rms          rms(c)
DAV:   1     0.251169954242E+04    0.25117E+04   -0.12480E+05  5976   0.112E+03
DAV:   2     0.889611610391E+02   -0.24227E+04   -0.22872E+04  5976   0.312E+02
DAV:   3    -0.201528821157E+03   -0.29049E+03   -0.25138E+03  7389   0.127E+02
DAV:   4    -0.225627852059E+03   -0.24099E+02   -0.23020E+02  6651   0.340E+01
DAV:   5    -0.226236117107E+03   -0.60827E+00   -0.60094E+00  6786   0.492E+00    0.590E+01
DAV:   6    -0.242159319141E+03   -0.15923E+02   -0.34898E+02  6915   0.118E+02    0.847E+01
DAV:   7    -0.332491065023E+03   -0.90332E+02   -0.13712E+02  7377   0.192E+02    0.133E+02
DAV:   8    -0.207930336202E+03    0.12456E+03   -0.10104E+02  8019   0.904E+01    0.698E+01
DAV:   9    -0.204746757680E+03    0.31836E+01   -0.83208E+01  6678   0.890E+01    0.664E+01
DAV:  10    -0.200551170216E+03    0.41956E+01   -0.61592E+01  6717   0.859E+01    0.602E+01
DAV:  11    -0.193896916740E+03    0.66543E+01   -0.47156E+01  6531   0.745E+01    0.566E+01
DAV:  12    -0.192154953436E+03    0.17420E+01   -0.37412E+01  6525   0.556E+01    0.528E+01
DAV:  13    -0.192053903023E+03    0.10105E+00   -0.17966E+01  6510   0.467E+01    0.651E+01
DAV:  14    -0.191149416365E+03    0.90449E+00   -0.21326E+01  6408   0.287E+01    0.653E+01
DAV:  15    -0.185668206812E+03    0.54812E+01   -0.10548E+01  6489   0.242E+01    0.456E+01
DAV:  16    -0.182554572796E+03    0.31136E+01   -0.67310E+00  6462   0.213E+01    0.332E+01
DAV:  17    -0.183479030163E+03   -0.92446E+00   -0.12286E+01  6528   0.278E+01    0.324E+01
DAV:  18    -0.183304850273E+03    0.17418E+00   -0.45054E+00  6378   0.240E+01    0.315E+01
DAV:  19    -0.182095359381E+03    0.12095E+01   -0.38770E+00  6576   0.196E+01    0.264E+01
DAV:  20    -0.181838007648E+03    0.25735E+00   -0.20473E+00  6288   0.135E+01    0.200E+01
DAV:  21    -0.182132103111E+03   -0.29410E+00   -0.17109E+00  6441   0.112E+01    0.136E+01
DAV:  22    -0.182474811296E+03   -0.34271E+00   -0.85956E-01  6333   0.944E+00    0.995E+00
DAV:  23    -0.183529937635E+03   -0.10551E+01   -0.79543E-01  6234   0.826E+00    0.125E+01
DAV:  24    -0.183918937207E+03   -0.38900E+00   -0.74543E-01  6318   0.836E+00    0.869E+00
DAV:  25    -0.185943719828E+03   -0.20248E+01   -0.12374E+00  6327   0.997E+00    0.108E+01
DAV:  26    -0.186964745950E+03   -0.10210E+01   -0.10698E+00  6282   0.100E+01    0.107E+01
DAV:  27    -0.187813613854E+03   -0.84887E+00   -0.61267E-01  6288   0.576E+00    0.119E+01
DAV:  28    -0.188036928166E+03   -0.22331E+00   -0.24433E-01  6324   0.408E+00    0.111E+01
DAV:  29    -0.188415401625E+03   -0.37847E+00   -0.12467E-01  6300   0.301E+00    0.109E+01
DAV:  30    -0.188973949041E+03   -0.55855E+00   -0.23664E-01  6375   0.415E+00    0.106E+01
DAV:  31    -0.190025290106E+03   -0.10513E+01   -0.52591E-01  6345   0.582E+00    0.105E+01
DAV:  32    -0.190683190314E+03   -0.65790E+00   -0.56143E-01  6402   0.578E+00    0.746E+00
DAV:  33    -0.190783499980E+03   -0.10031E+00   -0.16641E-01  6528   0.327E+00    0.576E+00
DAV:  34    -0.190868227316E+03   -0.84727E-01   -0.86759E-02  6195   0.242E+00    0.443E+00
DAV:  35    -0.190912820895E+03   -0.44594E-01   -0.28706E-02  6264   0.138E+00    0.481E+00
DAV:  36    -0.191028043512E+03   -0.11522E+00   -0.17980E-02  6321   0.101E+00    0.492E+00
DAV:  37    -0.191215397324E+03   -0.18735E+00   -0.43789E-02  6426   0.193E+00    0.485E+00
DAV:  38    -0.191620073229E+03   -0.40468E+00   -0.18104E-01  6348   0.292E+00    0.440E+00
DAV:  39    -0.191792222049E+03   -0.17215E+00   -0.10650E-01  6318   0.283E+00    0.402E+00
DAV:  40    -0.192009469531E+03   -0.21725E+00   -0.13040E-01  6135   0.293E+00    0.309E+00
DAV:  41    -0.192056896580E+03   -0.47427E-01   -0.41534E-02  6408   0.161E+00    0.312E+00
DAV:  42    -0.192157801480E+03   -0.10090E+00   -0.24679E-02  6219   0.123E+00    0.283E+00
DAV:  43    -0.192211828239E+03   -0.54027E-01   -0.12630E-02  6213   0.106E+00    0.253E+00
DAV:  44    -0.192390626821E+03   -0.17880E+00   -0.21605E-02  6201   0.989E-01    0.204E+00
DAV:  45    -0.192528835726E+03   -0.13821E+00   -0.25097E-02  6309   0.149E+00    0.212E+00
DAV:  46    -0.192773135359E+03   -0.24430E+00   -0.73242E-02  6291   0.167E+00    0.170E+00
DAV:  47    -0.192797797980E+03   -0.24663E-01   -0.16692E-02  6372   0.101E+00    0.142E+00
DAV:  48    -0.192831968657E+03   -0.34171E-01   -0.91168E-03  6219   0.715E-01    0.111E+00
DAV:  49    -0.192846371360E+03   -0.14403E-01   -0.48061E-03  6462   0.649E-01    0.113E+00
DAV:  50    -0.192876039864E+03   -0.29669E-01   -0.59875E-03  6273   0.699E-01    0.930E-01
DAV:  51    -0.192887189493E+03   -0.11150E-01   -0.70266E-03  6546   0.893E-01    0.119E+00
DAV:  52    -0.192910137983E+03   -0.22948E-01   -0.10655E-02  6273   0.997E-01    0.122E+00
DAV:  53    -0.192914719729E+03   -0.45817E-02   -0.64805E-03  6417   0.763E-01    0.979E-01
DAV:  54    -0.192916698877E+03   -0.19791E-02   -0.60627E-03  6453   0.702E-01    0.656E-01
DAV:  55    -0.192917874164E+03   -0.11753E-02   -0.22335E-03  6390   0.411E-01    0.552E-01
DAV:  56    -0.192915333875E+03    0.25403E-02   -0.23371E-03  6159   0.448E-01    0.435E-01
DAV:  57    -0.192921800510E+03   -0.64666E-02   -0.11840E-03  6249   0.311E-01    0.393E-01
DAV:  58    -0.192923192914E+03   -0.13924E-02   -0.83718E-04  6183   0.308E-01    0.287E-01
DAV:  59    -0.192928274863E+03   -0.50819E-02   -0.87617E-04  5163   0.238E-01    0.505E-01
DAV:  60    -0.192928844909E+03   -0.57005E-03   -0.27444E-04  4065   0.159E-01    0.472E-01
DAV:  61    -0.192928799309E+03    0.45600E-04   -0.56409E-04  3756   0.186E-01
   1 F= -.19292880E+03 E0= -.19292543E+03  d E =-.192929E+03  mag=    25.1737
quench:  g(F)=  0.000E+00 g(S)=  0.000E+00 dE (1.order)= 0.000E+00
 bond charge predicted
       N       E                     dE             d eps       ncg     rms          rms(c)
DAV:   1    -0.192930405926E+03   -0.15610E-02   -0.22325E-02  6147   0.325E-01    0.198E-01
DAV:   2    -0.192976645414E+03   -0.46239E-01   -0.82207E-02  7020   0.223E+00    0.445E+00
DAV:   3    -0.192931318710E+03    0.45327E-01   -0.94365E-02  6627   0.235E+00    0.968E-01
DAV:   4    -0.192932065331E+03   -0.74662E-03   -0.28708E-03  6570   0.629E-01    0.158E-01
DAV:   5    -0.192932838528E+03   -0.77320E-03   -0.65079E-04  5328   0.278E-01    0.297E-01
DAV:   6    -0.192933315673E+03   -0.47715E-03   -0.49705E-04  4068   0.233E-01    0.100E-01
DAV:   7    -0.192933471397E+03   -0.15572E-03   -0.12693E-04  3438   0.102E-01    0.522E-02
DAV:   8    -0.192933984889E+03   -0.51349E-03   -0.45442E-05  3645   0.554E-02    0.786E-02
DAV:   9    -0.192934306600E+03   -0.32171E-03   -0.35790E-05  3528   0.534E-02    0.636E-02
DAV:  10    -0.192934936162E+03   -0.62956E-03   -0.24803E-05  3654   0.400E-02    0.752E-02
DAV:  11    -0.192935329014E+03   -0.39285E-03   -0.25006E-05  3573   0.420E-02    0.505E-02
DAV:  12    -0.192935605919E+03   -0.27691E-03   -0.16667E-05  3507   0.332E-02    0.323E-02
DAV:  13    -0.192935859923E+03   -0.25400E-03   -0.13369E-05  3564   0.270E-02    0.114E-02
DAV:  14    -0.192936022913E+03   -0.16299E-03   -0.88247E-06  3483   0.224E-02    0.252E-02
DAV:  15    -0.192936246410E+03   -0.22350E-03   -0.98511E-06  3555   0.231E-02    0.388E-02
DAV:  16    -0.192936360789E+03   -0.11438E-03   -0.45860E-06  3519   0.148E-02    0.415E-02
DAV:  17    -0.192936619957E+03   -0.25917E-03   -0.90027E-06  3567   0.159E-02    0.257E-02
DAV:  18    -0.192936685016E+03   -0.65059E-04   -0.33675E-06  3537   0.121E-02
   2 F= -.19293669E+03 E0= -.19293331E+03  d E =-.788571E-02  mag=    25.1467
quench:  g(F)=  0.000E+00 g(S)=  0.000E+00 dE (1.order)= 0.000E+00
 bond charge predicted
       N       E                     dE             d eps       ncg     rms          rms(c)
DAV:   1    -0.192936091677E+03    0.52828E-03   -0.85247E-02  6096   0.561E-01    0.785E-02
DAV:   2    -0.192937383276E+03   -0.12916E-02   -0.43566E-03  7983   0.359E-01    0.703E-01
DAV:   3    -0.192936268458E+03    0.11148E-02   -0.28214E-03  5211   0.399E-01    0.146E-01
DAV:   4    -0.192936506934E+03   -0.23848E-03   -0.40988E-04  3717   0.220E-01    0.227E-01
DAV:   5    -0.192936373064E+03    0.13387E-03   -0.26288E-04  3474   0.183E-01    0.736E-02
DAV:   6    -0.192936381439E+03   -0.83741E-05   -0.62876E-05  3447   0.843E-02
   3 F= -.19293638E+03 E0= -.19293300E+03  d E =0.303578E-03  mag=    25.1450
quench:  g(F)=  0.000E+00 g(S)=  0.000E+00 dE (1.order)= 0.000E+00
 bond charge predicted
       N       E                     dE             d eps       ncg     rms          rms(c)
DAV:   1    -0.192935261276E+03    0.11118E-02   -0.18859E-01  5976   0.838E-01    0.129E-01
DAV:   2    -0.192936801385E+03   -0.15401E-02   -0.71801E-03  8577   0.474E-01    0.632E-01
DAV:   3    -0.192936919025E+03   -0.11764E-03   -0.59019E-03  6528   0.633E-01    0.755E-01
DAV:   4    -0.192935821481E+03    0.10975E-02   -0.34511E-03  5598   0.462E-01    0.245E-01
DAV:   5    -0.192935968633E+03   -0.14715E-03   -0.56474E-04  4038   0.253E-01    0.244E-01
DAV:   6    -0.192935820079E+03    0.14855E-03   -0.31796E-04  3444   0.214E-01    0.696E-02
DAV:   7    -0.192935878672E+03   -0.58593E-04   -0.14361E-04  3474   0.136E-01
   4 F= -.19293588E+03 E0= -.19293248E+03  d E =0.502767E-03  mag=    25.1439
quench:  g(F)=  0.000E+00 g(S)=  0.000E+00 dE (1.order)= 0.000E+00
 bond charge predicted
       N       E                     dE             d eps       ncg     rms          rms(c)
DAV:   1    -0.192934274740E+03    0.15453E-02   -0.33532E-01  5976   0.113E+00    0.164E-01
DAV:   2    -0.192936170609E+03   -0.18959E-02   -0.11721E-02  8247   0.503E-01    0.602E-01
DAV:   3    -0.192937114683E+03   -0.94407E-03   -0.83492E-03  6588   0.735E-01    0.964E-01
DAV:   4    -0.192935369856E+03    0.17448E-02   -0.57328E-03  6345   0.607E-01    0.361E-01
DAV:   5    -0.192935536988E+03   -0.16713E-03   -0.11016E-03  4995   0.336E-01    0.314E-01
DAV:   6    -0.192935255420E+03    0.28157E-03   -0.47476E-04  3630   0.268E-01    0.733E-02
DAV:   7    -0.192935382202E+03   -0.12678E-03   -0.21229E-04  3465   0.173E-01    0.190E-01
DAV:   8    -0.192935299941E+03    0.82261E-04   -0.18757E-04  3417   0.158E-01
   5 F= -.19293530E+03 E0= -.19293184E+03  d E =0.578731E-03  mag=    25.1431
quench:  g(F)=  0.000E+00 g(S)=  0.000E+00 dE (1.order)= 0.000E+00
 bond charge predicted
       N       E                     dE             d eps       ncg     rms          rms(c)
DAV:   1    -0.192933012241E+03    0.23700E-02   -0.44805E-01  5976   0.128E+00    0.197E-01
DAV:   2    -0.192935248447E+03   -0.22362E-02   -0.16801E-02  7992   0.524E-01    0.608E-01
DAV:   3    -0.192936702734E+03   -0.14543E-02   -0.90506E-03  6534   0.807E-01    0.106E+00
DAV:   4    -0.192935134864E+03    0.15679E-02   -0.98769E-03  6453   0.761E-01    0.643E-01
DAV:   5    -0.192934508667E+03    0.62620E-03   -0.17701E-03  5592   0.412E-01    0.285E-01
DAV:   6    -0.192934361424E+03    0.14724E-03   -0.51206E-04  4464   0.275E-01    0.127E-01
DAV:   7    -0.192934473314E+03   -0.11189E-03   -0.28692E-04  3417   0.178E-01    0.204E-01
DAV:   8    -0.192934377099E+03    0.96215E-04   -0.27214E-04  3507   0.187E-01
   6 F= -.19293438E+03 E0= -.19293093E+03  d E =0.922841E-03  mag=    25.1417
quench:  g(F)=  0.000E+00 g(S)=  0.000E+00 dE (1.order)= 0.000E+00
 bond charge predicted
       N       E                     dE             d eps       ncg     rms          rms(c)
DAV:   1    -0.192934099855E+03    0.37346E-03   -0.18321E-01  5976   0.739E-01    0.217E-01
DAV:   2    -0.192941909764E+03   -0.78099E-02   -0.19493E-02  8466   0.118E+00    0.167E+00
DAV:   3    -0.192939572026E+03    0.23377E-02   -0.30133E-02  6882   0.139E+00    0.158E+00
DAV:   4    -0.192934356763E+03    0.52153E-02   -0.13071E-02  6651   0.919E-01    0.331E-01
DAV:   5    -0.192934912574E+03   -0.55581E-03   -0.14239E-03  6405   0.383E-01    0.356E-01
DAV:   6    -0.192934595679E+03    0.31689E-03   -0.79252E-04  6129   0.305E-01    0.126E-01
DAV:   7    -0.192934728089E+03   -0.13241E-03   -0.45220E-04  4203   0.242E-01    0.231E-01
DAV:   8    -0.192934606210E+03    0.12188E-03   -0.31193E-04  3612   0.196E-01    0.127E-01
DAV:   9    -0.192934585639E+03    0.20572E-04   -0.12868E-04  3438   0.129E-01
   7 F= -.19293459E+03 E0= -.19293114E+03  d E =-.208540E-03  mag=    25.1418
quench:  g(F)=  0.000E+00 g(S)=  0.000E+00 dE (1.order)= 0.000E+00
 bond charge predicted
       N       E                     dE             d eps       ncg     rms          rms(c)
DAV:   1    -0.192934588311E+03    0.17899E-04   -0.56316E-02  5976   0.423E-01    0.117E-01
DAV:   2    -0.192937338388E+03   -0.27501E-02   -0.66068E-03  8703   0.666E-01    0.103E+00
DAV:   3    -0.192936028653E+03    0.13097E-02   -0.98369E-03  6651   0.773E-01    0.789E-01
DAV:   4    -0.192934714962E+03    0.13137E-02   -0.34532E-03  5892   0.500E-01    0.163E-01
DAV:   5    -0.192934837259E+03   -0.12230E-03   -0.34165E-04  4224   0.196E-01    0.209E-01
DAV:   6    -0.192934723700E+03    0.11356E-03   -0.25694E-04  3834   0.173E-01    0.595E-02
DAV:   7    -0.192934786998E+03   -0.63298E-04   -0.14680E-04  3417   0.138E-01
   8 F= -.19293479E+03 E0= -.19293135E+03  d E =-.201359E-03  mag=    25.1418
quench:  g(F)=  0.000E+00 g(S)=  0.000E+00 dE (1.order)= 0.000E+00
 bond charge predicted
       N       E                     dE             d eps       ncg     rms          rms(c)
DAV:   1    -0.192934368680E+03    0.35502E-03   -0.62544E-02  5976   0.501E-01    0.968E-02
DAV:   2    -0.192940308270E+03   -0.59396E-02   -0.12434E-02  8523   0.823E-01    0.161E+00
DAV:   3    -0.192934352778E+03    0.59555E-02   -0.12862E-02  6660   0.854E-01    0.397E-01
DAV:   4    -0.192934536969E+03   -0.18419E-03   -0.84002E-04  4347   0.301E-01    0.118E-01
DAV:   5    -0.192934660393E+03   -0.12342E-03   -0.29246E-04  3546   0.185E-01    0.171E-01
DAV:   6    -0.192934572906E+03    0.87487E-04   -0.19632E-04  3492   0.156E-01
   9 F= -.19293457E+03 E0= -.19293107E+03  d E =0.214092E-03  mag=    25.1419
quench:  g(F)=  0.000E+00 g(S)=  0.000E+00 dE (1.order)= 0.000E+00
 bond charge predicted
       N       E                     dE             d eps       ncg     rms          rms(c)
DAV:   1    -0.192933890539E+03    0.76985E-03   -0.13698E-01  5976   0.715E-01    0.116E-01
DAV:   2    -0.192934994925E+03   -0.11044E-02   -0.54571E-03  8523   0.419E-01    0.536E-01
DAV:   3    -0.192934709509E+03    0.28542E-03   -0.27985E-03  6426   0.492E-01    0.485E-01
DAV:   4    -0.192934565904E+03    0.14361E-03   -0.27533E-03  4476   0.400E-01    0.377E-01
DAV:   5    -0.192934369553E+03    0.19635E-03   -0.64929E-04  3696   0.242E-01    0.185E-01
DAV:   6    -0.192934277492E+03    0.92061E-04   -0.22489E-04  3675   0.178E-01
  10 F= -.19293428E+03 E0= -.19293080E+03  d E =0.295414E-03  mag=    25.1418
quench:  g(F)=  0.000E+00 g(S)=  0.000E+00 dE (1.order)= 0.000E+00
 bond charge predicted
       N       E                     dE             d eps       ncg     rms          rms(c)
DAV:   1    -0.192933327884E+03    0.10417E-02   -0.23980E-01  6024   0.947E-01    0.188E-01
DAV:   2    -0.192938014015E+03   -0.46861E-02   -0.13890E-02  8457   0.930E-01    0.124E+00
DAV:   3    -0.192936157089E+03    0.18569E-02   -0.13945E-02  6471   0.104E+00    0.110E+00
DAV:   4    -0.192933925443E+03    0.22316E-02   -0.67965E-03  6357   0.644E-01    0.273E-01
DAV:   5    -0.192934362936E+03   -0.43749E-03   -0.14007E-03  6129   0.387E-01    0.344E-01
DAV:   6    -0.192934035253E+03    0.32768E-03   -0.63973E-04  4914   0.295E-01    0.132E-01
DAV:   7    -0.192934044824E+03   -0.95711E-05   -0.20648E-04  3474   0.162E-01
  11 F= -.19293404E+03 E0= -.19293052E+03  d E =0.232668E-03  mag=    25.1423
quench:  g(F)=  0.000E+00 g(S)=  0.000E+00 dE (1.order)= 0.000E+00
 bond charge predicted
       N       E                     dE             d eps       ncg     rms          rms(c)
DAV:   1    -0.192933333121E+03    0.70213E-03   -0.18336E-01  5976   0.779E-01    0.185E-01
DAV:   2    -0.192936865638E+03   -0.35325E-02   -0.12150E-02  8466   0.838E-01    0.106E+00
DAV:   3    -0.192933862941E+03    0.30027E-02   -0.58666E-03  6633   0.820E-01    0.332E-01
DAV:   4    -0.192935626389E+03   -0.17634E-02   -0.56769E-03  5574   0.562E-01    0.917E-01
DAV:   5    -0.192933861097E+03    0.17653E-02   -0.35212E-03  5997   0.480E-01    0.251E-01
DAV:   6    -0.192933816736E+03    0.44362E-04   -0.37623E-04  4437   0.240E-01
  12 F= -.19293382E+03 E0= -.19293025E+03  d E =0.228088E-03  mag=    25.1420
quench:  g(F)=  0.000E+00 g(S)=  0.000E+00 dE (1.order)= 0.000E+00
 bond charge predicted
       N       E                     dE             d eps       ncg     rms          rms(c)
DAV:   1    -0.192934211351E+03   -0.35025E-03   -0.71951E-02  5994   0.532E-01    0.264E-01
DAV:   2    -0.192949708379E+03   -0.15497E-01   -0.26017E-02  6849   0.177E+00    0.236E+00
DAV:   3    -0.192941619848E+03    0.80885E-02   -0.43218E-02  6660   0.192E+00    0.199E+00
DAV:   4    -0.192933809174E+03    0.78107E-02   -0.16589E-02  6435   0.999E-01    0.255E-01
DAV:   5    -0.192934344875E+03   -0.53570E-03   -0.10071E-03  6252   0.299E-01    0.171E-01
DAV:   6    -0.192934411860E+03   -0.66985E-04   -0.43426E-04  4383   0.203E-01
  13 F= -.19293441E+03 E0= -.19293093E+03  d E =-.595124E-03  mag=    25.1420
quench:  g(F)=  0.000E+00 g(S)=  0.000E+00 dE (1.order)= 0.000E+00
 bond charge predicted
       N       E                     dE             d eps       ncg     rms          rms(c)
DAV:   1    -0.192934197678E+03    0.14720E-03   -0.64644E-02  5976   0.536E-01    0.884E-02
DAV:   2    -0.192935980366E+03   -0.17827E-02   -0.48205E-03  8550   0.480E-01    0.831E-01
DAV:   3    -0.192934718648E+03    0.12617E-02   -0.53189E-03  5913   0.554E-01    0.470E-01
DAV:   4    -0.192934373414E+03    0.34523E-03   -0.11002E-03  4206   0.296E-01    0.102E-01
DAV:   5    -0.192934462306E+03   -0.88892E-04   -0.19571E-04  3468   0.136E-01
  14 F= -.19293446E+03 E0= -.19293091E+03  d E =-.504461E-04  mag=    25.1420
quench:  g(F)=  0.000E+00 g(S)=  0.000E+00 dE (1.order)= 0.000E+00
 bond charge predicted
       N       E                     dE             d eps       ncg     rms          rms(c)
DAV:   1    -0.192934138791E+03    0.23462E-03   -0.15300E-01  5976   0.774E-01    0.120E-01
DAV:   2    -0.192936398125E+03   -0.22593E-02   -0.79022E-03  8694   0.511E-01    0.900E-01
DAV:   3    -0.192934838264E+03    0.15599E-02   -0.64021E-03  6480   0.603E-01    0.449E-01
DAV:   4    -0.192934708768E+03    0.12950E-03   -0.13979E-03  5274   0.360E-01    0.262E-01
DAV:   5    -0.192934665439E+03    0.43330E-04   -0.42541E-04  3513   0.225E-01
  15 F= -.19293467E+03 E0= -.19293106E+03  d E =-.203133E-03  mag=    25.1421
quench:  g(F)=  0.000E+00 g(S)=  0.000E+00 dE (1.order)= 0.000E+00
 bond charge predicted
       N       E                     dE             d eps       ncg     rms          rms(c)
DAV:   1    -0.192934257702E+03    0.45107E-03   -0.25734E-01  5976   0.100E+00    0.159E-01
DAV:   2    -0.192935408291E+03   -0.11506E-02   -0.89576E-03  7761   0.378E-01    0.423E-01
DAV:   3    -0.192935235336E+03    0.17296E-03   -0.22628E-03  6540   0.509E-01    0.345E-01
DAV:   4    -0.192936902919E+03   -0.16676E-02   -0.43231E-03  5277   0.523E-01    0.950E-01
DAV:   5    -0.192934868301E+03    0.20346E-02   -0.41221E-03  4428   0.483E-01    0.155E-01
DAV:   6    -0.192935036401E+03   -0.16810E-03   -0.31679E-04  3669   0.212E-01    0.149E-01
DAV:   7    -0.192935059452E+03   -0.23050E-04   -0.22047E-04  3486   0.161E-01
  16 F= -.19293506E+03 E0= -.19293141E+03  d E =-.394013E-03  mag=    25.1416
quench:  g(F)=  0.000E+00 g(S)=  0.000E+00 dE (1.order)= 0.000E+00
 bond charge predicted
       N       E                     dE             d eps       ncg     rms          rms(c)
DAV:   1    -0.192934258381E+03    0.77802E-03   -0.28937E-01  5976   0.991E-01    0.178E-01
DAV:   2    -0.192938235806E+03   -0.39774E-02   -0.15765E-02  8316   0.690E-01    0.118E+00
DAV:   3    -0.192936131152E+03    0.21047E-02   -0.13320E-02  6912   0.876E-01    0.783E-01
DAV:   4    -0.192935311140E+03    0.82001E-03   -0.32185E-03  6384   0.511E-01    0.344E-01
DAV:   5    -0.192935186428E+03    0.12471E-03   -0.61702E-04  4902   0.263E-01    0.191E-01
DAV:   6    -0.192935178130E+03    0.82976E-05   -0.47259E-04  4122   0.241E-01
  17 F= -.19293518E+03 E0= -.19293159E+03  d E =-.118679E-03  mag=    25.1418
quench:  g(F)=  0.000E+00 g(S)=  0.000E+00 dE (1.order)= 0.000E+00
 bond charge predicted
       N       E                     dE             d eps       ncg     rms          rms(c)
DAV:   1    -0.192935931869E+03   -0.74544E-03   -0.99248E-02  5976   0.567E-01    0.235E-01
DAV:   2    -0.192944635279E+03   -0.87034E-02   -0.17385E-02  7392   0.143E+00    0.168E+00
DAV:   3    -0.192937916759E+03    0.67185E-02   -0.17898E-02  6795   0.138E+00    0.100E+00
DAV:   4    -0.192936381525E+03    0.15352E-02   -0.77958E-03  6816   0.666E-01    0.472E-01
DAV:   5    -0.192936163130E+03    0.21840E-03   -0.12191E-03  5706   0.345E-01    0.191E-01
DAV:   6    -0.192936107778E+03    0.55353E-04   -0.30064E-04  4236   0.179E-01
  18 F= -.19293611E+03 E0= -.19293244E+03  d E =-.929647E-03  mag=    25.1417
quench:  g(F)=  0.000E+00 g(S)=  0.000E+00 dE (1.order)= 0.000E+00
 bond charge predicted
       N       E                     dE             d eps       ncg     rms          rms(c)
DAV:   1    -0.192936441081E+03   -0.27795E-03   -0.34686E-02  5988   0.400E-01    0.129E-01
DAV:   2    -0.192940035301E+03   -0.35942E-02   -0.61250E-03  7218   0.832E-01    0.114E+00
DAV:   3    -0.192937864681E+03    0.21706E-02   -0.91780E-03  6663   0.891E-01    0.873E-01
DAV:   4    -0.192936391130E+03    0.14736E-02   -0.34171E-03  5616   0.452E-01    0.868E-02
DAV:   5    -0.192936603003E+03   -0.21187E-03   -0.25858E-04  3663   0.165E-01    0.171E-01
DAV:   6    -0.192936541190E+03    0.61812E-04   -0.20058E-04  3528   0.146E-01
  19 F= -.19293654E+03 E0= -.19293295E+03  d E =-.433413E-03  mag=    25.1416
quench:  g(F)=  0.000E+00 g(S)=  0.000E+00 dE (1.order)= 0.000E+00
 bond charge predicted
       N       E                     dE             d eps       ncg     rms          rms(c)
DAV:   1    -0.192937045582E+03   -0.44258E-03   -0.84505E-02  5976   0.562E-01    0.994E-02
DAV:   2    -0.192938266208E+03   -0.12206E-02   -0.40297E-03  8622   0.432E-01    0.647E-01
DAV:   3    -0.192937964342E+03    0.30187E-03   -0.49024E-03  6441   0.549E-01    0.608E-01
DAV:   4    -0.192937211321E+03    0.75302E-03   -0.19023E-03  4521   0.361E-01    0.144E-01
DAV:   5    -0.192937299714E+03   -0.88393E-04   -0.26352E-04  3558   0.172E-01
  20 F= -.19293730E+03 E0= -.19293374E+03  d E =-.758524E-03  mag=    25.1415
quench:  g(F)=  0.000E+00 g(S)=  0.000E+00 dE (1.order)= 0.000E+00
 bond charge predicted
       N       E                     dE             d eps       ncg     rms          rms(c)
DAV:   1    -0.192937847118E+03   -0.63580E-03   -0.17512E-01  5976   0.808E-01    0.128E-01
DAV:   2    -0.192939047368E+03   -0.12003E-02   -0.58606E-03  8316   0.399E-01    0.557E-01
DAV:   3    -0.192939023619E+03    0.23750E-04   -0.43369E-03  6318   0.546E-01    0.621E-01
DAV:   4    -0.192938438930E+03    0.58469E-03   -0.29817E-03  5007   0.429E-01    0.316E-01
DAV:   5    -0.192938365098E+03    0.73832E-04   -0.55776E-04  3591   0.231E-01
  21 F= -.19293837E+03 E0= -.19293475E+03  d E =-.106538E-02  mag=    25.1413
quench:  g(F)=  0.000E+00 g(S)=  0.000E+00 dE (1.order)= 0.000E+00
 bond charge predicted
       N       E                     dE             d eps       ncg     rms          rms(c)
DAV:   1    -0.192938686017E+03   -0.24709E-03   -0.22101E-01  5976   0.874E-01    0.170E-01
DAV:   2    -0.192940469085E+03   -0.17831E-02   -0.92361E-03  8331   0.547E-01    0.684E-01
DAV:   3    -0.192939737539E+03    0.73155E-03   -0.41731E-03  6699   0.649E-01    0.510E-01
DAV:   4    -0.192940585761E+03   -0.84822E-03   -0.56694E-03  5832   0.571E-01    0.789E-01
DAV:   5    -0.192939289949E+03    0.12958E-02   -0.30671E-03  4800   0.437E-01    0.232E-01
DAV:   6    -0.192939271737E+03    0.18212E-04   -0.40007E-04  4485   0.231E-01
  22 F= -.19293927E+03 E0= -.19293557E+03  d E =-.906639E-03  mag=    25.1405
quench:  g(F)=  0.000E+00 g(S)=  0.000E+00 dE (1.order)= 0.000E+00
 bond charge predicted
       N       E                     dE             d eps       ncg     rms          rms(c)
DAV:   1    -0.192939924284E+03   -0.63433E-03   -0.10994E-01  5976   0.604E-01    0.266E-01
DAV:   2    -0.192953981108E+03   -0.14057E-01   -0.23422E-02  7182   0.170E+00    0.222E+00
DAV:   3    -0.192939835118E+03    0.14146E-01   -0.17972E-02  6573   0.158E+00    0.486E-01
DAV:   4    -0.192940414888E+03   -0.57977E-03   -0.32385E-03  6537   0.427E-01    0.447E-01
DAV:   5    -0.192940194395E+03    0.22049E-03   -0.17135E-03  5316   0.354E-01    0.233E-01
DAV:   6    -0.192940198748E+03   -0.43535E-05   -0.41790E-04  4095   0.208E-01
  23 F= -.19294020E+03 E0= -.19293663E+03  d E =-.927011E-03  mag=    25.1402
quench:  g(F)=  0.000E+00 g(S)=  0.000E+00 dE (1.order)= 0.000E+00
 bond charge predicted
       N       E                     dE             d eps       ncg     rms          rms(c)
DAV:   1    -0.192940513212E+03   -0.31882E-03   -0.26652E-02  6066   0.358E-01    0.913E-02
DAV:   2    -0.192943550817E+03   -0.30376E-02   -0.58959E-03  8010   0.657E-01    0.111E+00
DAV:   3    -0.192941391121E+03    0.21597E-02   -0.90604E-03  6336   0.739E-01    0.680E-01
DAV:   4    -0.192940539797E+03    0.85132E-03   -0.20804E-03  4200   0.392E-01    0.915E-02
DAV:   5    -0.192940651326E+03   -0.11153E-03   -0.17614E-04  3627   0.120E-01    0.134E-01
DAV:   6    -0.192940610604E+03    0.40722E-04   -0.14975E-04  3495   0.119E-01
  24 F= -.19294061E+03 E0= -.19293694E+03  d E =-.411856E-03  mag=    25.1400
quench:  g(F)=  0.000E+00 g(S)=  0.000E+00 dE (1.order)= 0.000E+00
 bond charge predicted
       N       E                     dE             d eps       ncg     rms          rms(c)
DAV:   1    -0.192941238482E+03   -0.58716E-03   -0.61116E-02  5976   0.467E-01    0.987E-02
DAV:   2    -0.192942626721E+03   -0.13882E-02   -0.34989E-03  8613   0.524E-01    0.678E-01
DAV:   3    -0.192942184898E+03    0.44182E-03   -0.44263E-03  6543   0.590E-01    0.644E-01
DAV:   4    -0.192941315867E+03    0.86903E-03   -0.21678E-03  4356   0.362E-01    0.129E-01
DAV:   5    -0.192941446394E+03   -0.13053E-03   -0.29517E-04  3519   0.181E-01    0.174E-01
DAV:   6    -0.192941372480E+03    0.73914E-04   -0.17492E-04  3429   0.144E-01
  25 F= -.19294137E+03 E0= -.19293773E+03  d E =-.761875E-03  mag=    25.1398
quench:  g(F)=  0.000E+00 g(S)=  0.000E+00 dE (1.order)= 0.000E+00
 bond charge predicted
       N       E                     dE             d eps       ncg     rms          rms(c)
DAV:   1    -0.192942250648E+03   -0.80425E-03   -0.13765E-01  5976   0.694E-01    0.137E-01
DAV:   2    -0.192944518135E+03   -0.22675E-02   -0.64794E-03  8922   0.643E-01    0.863E-01
DAV:   3    -0.192943144737E+03    0.13734E-02   -0.51753E-03  6780   0.700E-01    0.597E-01
DAV:   4    -0.192942606271E+03    0.53847E-03   -0.28032E-03  5220   0.402E-01    0.266E-01
DAV:   5    -0.192942645204E+03   -0.38933E-04   -0.62305E-04  3987   0.236E-01
  26 F= -.19294265E+03 E0= -.19293907E+03  d E =-.127272E-02  mag=    25.1396
quench:  g(F)=  0.000E+00 g(S)=  0.000E+00 dE (1.order)= 0.000E+00
 bond charge predicted
       N       E                     dE             d eps       ncg     rms          rms(c)
DAV:   1    -0.192943369312E+03   -0.76304E-03   -0.24761E-01  5976   0.931E-01    0.159E-01
DAV:   2    -0.192945977342E+03   -0.26080E-02   -0.94857E-03  8595   0.612E-01    0.899E-01
DAV:   3    -0.192945178978E+03    0.79836E-03   -0.85393E-03  6516   0.757E-01    0.804E-01
DAV:   4    -0.192944022122E+03    0.11569E-02   -0.44420E-03  6027   0.528E-01    0.306E-01
DAV:   5    -0.192944203897E+03   -0.18178E-03   -0.86700E-04  4869   0.294E-01    0.275E-01
DAV:   6    -0.192943983240E+03    0.22066E-03   -0.49267E-04  4158   0.264E-01    0.969E-02
DAV:   7    -0.192944131956E+03   -0.14872E-03   -0.26908E-04  3387   0.195E-01    0.205E-01
DAV:   8    -0.192944019888E+03    0.11207E-03   -0.23116E-04  3501   0.180E-01    0.756E-02
DAV:   9    -0.192944031465E+03   -0.11577E-04   -0.75054E-05  3390   0.929E-02
  27 F= -.19294403E+03 E0= -.19294037E+03  d E =-.138626E-02  mag=    25.1393
quench:  g(F)=  0.000E+00 g(S)=  0.000E+00 dE (1.order)= 0.000E+00
 bond charge predicted
       N       E                     dE             d eps       ncg     rms          rms(c)
DAV:   1    -0.192944210227E+03   -0.19034E-03   -0.21269E-01  5976   0.781E-01    0.155E-01
DAV:   2    -0.192945050167E+03   -0.83994E-03   -0.84903E-03  7398   0.297E-01    0.349E-01
DAV:   3    -0.192946564518E+03   -0.15144E-02   -0.57165E-03  7065   0.604E-01    0.917E-01
DAV:   4    -0.192945401584E+03    0.11629E-02   -0.70428E-03  6210   0.644E-01    0.572E-01
DAV:   5    -0.192944708306E+03    0.69328E-03   -0.10936E-03  4326   0.332E-01    0.147E-01
DAV:   6    -0.192944773501E+03   -0.65194E-04   -0.28364E-04  4128   0.208E-01
  28 F= -.19294477E+03 E0= -.19294116E+03  d E =-.742036E-03  mag=    25.1382
quench:  g(F)=  0.000E+00 g(S)=  0.000E+00 dE (1.order)= 0.000E+00
 bond charge predicted
       N       E                     dE             d eps       ncg     rms          rms(c)
DAV:   1    -0.192945566361E+03   -0.85805E-03   -0.92964E-02  6114   0.536E-01    0.204E-01
DAV:   2    -0.192955696193E+03   -0.10130E-01   -0.19510E-02  7587   0.133E+00    0.197E+00
DAV:   3    -0.192951390193E+03    0.43060E-02   -0.36180E-02  6858   0.154E+00    0.169E+00
DAV:   4    -0.192945354630E+03    0.60356E-02   -0.11308E-02  6549   0.864E-01    0.159E-01
DAV:   5    -0.192945882367E+03   -0.52774E-03   -0.74582E-04  6054   0.283E-01    0.222E-01
DAV:   6    -0.192945825140E+03    0.57227E-04   -0.43334E-04  4905   0.216E-01
  29 F= -.19294583E+03 E0= -.19294215E+03  d E =-.105164E-02  mag=    25.1378
quench:  g(F)=  0.000E+00 g(S)=  0.000E+00 dE (1.order)= 0.000E+00
 bond charge predicted
       N       E                     dE             d eps       ncg     rms          rms(c)
DAV:   1    -0.192946345936E+03   -0.46357E-03   -0.36749E-02  5976   0.395E-01    0.105E-01
DAV:   2    -0.192948374787E+03   -0.20289E-02   -0.37632E-03  8028   0.628E-01    0.857E-01
DAV:   3    -0.192946946184E+03    0.14286E-02   -0.45135E-03  6273   0.648E-01    0.574E-01
DAV:   4    -0.192946371648E+03    0.57454E-03   -0.16710E-03  3894   0.315E-01    0.890E-02
DAV:   5    -0.192946479192E+03   -0.10754E-03   -0.18013E-04  3564   0.147E-01    0.141E-01
DAV:   6    -0.192946436790E+03    0.42401E-04   -0.13478E-04  3441   0.125E-01
  30 F= -.19294644E+03 E0= -.19294274E+03  d E =-.611651E-03  mag=    25.1375
quench:  g(F)=  0.000E+00 g(S)=  0.000E+00 dE (1.order)= 0.000E+00
 bond charge predicted
       N       E                     dE             d eps       ncg     rms          rms(c)
DAV:   1    -0.192947210611E+03   -0.73142E-03   -0.93150E-02  5976   0.554E-01    0.970E-02
DAV:   2    -0.192948318267E+03   -0.11077E-02   -0.38454E-03  8346   0.398E-01    0.613E-01
DAV:   3    -0.192947966735E+03    0.35153E-03   -0.40219E-03  5781   0.498E-01    0.543E-01
DAV:   4    -0.192947381667E+03    0.58507E-03   -0.16419E-03  4134   0.333E-01    0.147E-01
DAV:   5    -0.192947462609E+03   -0.80942E-04   -0.20258E-04  3480   0.156E-01
  31 F= -.19294746E+03 E0= -.19294377E+03  d E =-.102582E-02  mag=    25.1373
quench:  g(F)=  0.000E+00 g(S)=  0.000E+00 dE (1.order)= 0.000E+00
 bond charge predicted
       N       E                     dE             d eps       ncg     rms          rms(c)
DAV:   1    -0.192948286944E+03   -0.90528E-03   -0.16661E-01  5976   0.747E-01    0.139E-01
DAV:   2    -0.192949621201E+03   -0.13343E-02   -0.60098E-03  8427   0.466E-01    0.632E-01
DAV:   3    -0.192948802706E+03    0.81850E-03   -0.24833E-03  6849   0.521E-01    0.320E-01
DAV:   4    -0.192950057864E+03   -0.12552E-02   -0.44638E-03  4572   0.499E-01    0.811E-01
DAV:   5    -0.192948537113E+03    0.15208E-02   -0.24723E-03  4167   0.386E-01    0.868E-02
DAV:   6    -0.192948730443E+03   -0.19333E-03   -0.28530E-04  4119   0.184E-01    0.175E-01
DAV:   7    -0.192948712596E+03    0.17847E-04   -0.24838E-04  3459   0.167E-01
  32 F= -.19294871E+03 E0= -.19294502E+03  d E =-.124999E-02  mag=    25.1366
quench:  g(F)=  0.000E+00 g(S)=  0.000E+00 dE (1.order)= 0.000E+00
 bond charge predicted
       N       E                     dE             d eps       ncg     rms          rms(c)
DAV:   1    -0.192948900907E+03   -0.17046E-03   -0.21585E-01  5976   0.812E-01    0.146E-01
DAV:   2    -0.192950049429E+03   -0.11485E-02   -0.78132E-03  7893   0.404E-01    0.478E-01
DAV:   3    -0.192950479704E+03   -0.43028E-03   -0.42559E-03  6687   0.553E-01    0.710E-01
DAV:   4    -0.192949626290E+03    0.85341E-03   -0.35665E-03  5544   0.465E-01    0.326E-01
DAV:   5    -0.192949705328E+03   -0.79038E-04   -0.82427E-04  4899   0.303E-01
  33 F= -.19294971E+03 E0= -.19294605E+03  d E =-.992732E-03  mag=    25.1366
quench:  g(F)=  0.000E+00 g(S)=  0.000E+00 dE (1.order)= 0.000E+00
 bond charge predicted
       N       E                     dE             d eps       ncg     rms          rms(c)
DAV:   1    -0.192950073446E+03   -0.44716E-03   -0.68250E-02  6039   0.513E-01    0.109E-01
DAV:   2    -0.192951380630E+03   -0.13072E-02   -0.44502E-03  8640   0.474E-01    0.640E-01
DAV:   3    -0.192950325305E+03    0.10553E-02   -0.18939E-03  6561   0.475E-01    0.170E-01
DAV:   4    -0.192951176923E+03   -0.85162E-03   -0.22351E-03  3741   0.352E-01    0.634E-01
DAV:   5    -0.192950307813E+03    0.86911E-03   -0.17324E-03  3834   0.325E-01    0.146E-01
DAV:   6    -0.192950327103E+03   -0.19291E-04   -0.14913E-04  3687   0.144E-01
  34 F= -.19295033E+03 E0= -.19294663E+03  d E =-.621775E-03  mag=    25.1364
quench:  g(F)=  0.000E+00 g(S)=  0.000E+00 dE (1.order)= 0.000E+00
 bond charge predicted
       N       E                     dE             d eps       ncg     rms          rms(c)
DAV:   1    -0.192950880797E+03   -0.57298E-03   -0.37101E-02  5976   0.368E-01    0.142E-01
DAV:   2    -0.192955828799E+03   -0.49480E-02   -0.83383E-03  7371   0.980E-01    0.133E+00
DAV:   3    -0.192953761847E+03    0.20670E-02   -0.16109E-02  6687   0.110E+00    0.121E+00
DAV:   4    -0.192950708269E+03    0.30536E-02   -0.59462E-03  6048   0.603E-01    0.127E-01
DAV:   5    -0.192950947831E+03   -0.23956E-03   -0.27816E-04  3876   0.174E-01    0.111E-01
DAV:   6    -0.192950968137E+03   -0.20305E-04   -0.17584E-04  3537   0.131E-01
  35 F= -.19295097E+03 E0= -.19294735E+03  d E =-.641034E-03  mag=    25.1362
quench:  g(F)=  0.000E+00 g(S)=  0.000E+00 dE (1.order)= 0.000E+00
 bond charge predicted
       N       E                     dE             d eps       ncg     rms          rms(c)
DAV:   1    -0.192951627690E+03   -0.67986E-03   -0.82479E-02  5976   0.526E-01    0.889E-02
DAV:   2    -0.192952114911E+03   -0.48722E-03   -0.27255E-03  7941   0.268E-01    0.348E-01
DAV:   3    -0.192952011564E+03    0.10335E-03   -0.12625E-03  5739   0.331E-01    0.333E-01
DAV:   4    -0.192951991849E+03    0.19715E-04   -0.14682E-03  3645   0.292E-01    0.309E-01
DAV:   5    -0.192951801334E+03    0.19052E-03   -0.51569E-04  3777   0.183E-01    0.933E-02
DAV:   6    -0.192951820980E+03   -0.19646E-04   -0.11577E-04  3582   0.114E-01
  36 F= -.19295182E+03 E0= -.19294810E+03  d E =-.852843E-03  mag=    25.1360
quench:  g(F)=  0.000E+00 g(S)=  0.000E+00 dE (1.order)= 0.000E+00
 bond charge predicted
       N       E                     dE             d eps       ncg     rms          rms(c)
DAV:   1    -0.192952435970E+03   -0.63464E-03   -0.15839E-01  5976   0.717E-01    0.140E-01
DAV:   2    -0.192956658965E+03   -0.42230E-02   -0.10413E-02  9225   0.785E-01    0.128E+00
DAV:   3    -0.192954239191E+03    0.24198E-02   -0.14065E-02  6696   0.923E-01    0.876E-01
DAV:   4    -0.192952711975E+03    0.15272E-02   -0.35593E-03  5946   0.506E-01    0.156E-01
DAV:   5    -0.192953008405E+03   -0.29643E-03   -0.65344E-04  4848   0.280E-01    0.271E-01
DAV:   6    -0.192952812340E+03    0.19606E-03   -0.41917E-04  4038   0.235E-01    0.902E-02
DAV:   7    -0.192952838420E+03   -0.26080E-04   -0.14386E-04  3414   0.138E-01
  37 F= -.19295284E+03 E0= -.19294913E+03  d E =-.101744E-02  mag=    25.1358
quench:  g(F)=  0.000E+00 g(S)=  0.000E+00 dE (1.order)= 0.000E+00
 bond charge predicted
       N       E                     dE             d eps       ncg     rms          rms(c)
DAV:   1    -0.192953063285E+03   -0.25094E-03   -0.13432E-01  5976   0.624E-01    0.147E-01
DAV:   2    -0.192957565839E+03   -0.45026E-02   -0.12154E-02  9120   0.779E-01    0.136E+00
DAV:   3    -0.192954367736E+03    0.31981E-02   -0.13791E-02  7317   0.893E-01    0.743E-01
DAV:   4    -0.192953491513E+03    0.87622E-03   -0.37999E-03  6273   0.545E-01    0.272E-01
DAV:   5    -0.192953496380E+03   -0.48678E-05   -0.55269E-04  4716   0.239E-01
  38 F= -.19295350E+03 E0= -.19294977E+03  d E =-.657960E-03  mag=    25.1355
quench:  g(F)=  0.000E+00 g(S)=  0.000E+00 dE (1.order)= 0.000E+00
 bond charge predicted
       N       E                     dE             d eps       ncg     rms          rms(c)
DAV:   1    -0.192953809070E+03   -0.31756E-03   -0.54466E-02  6063   0.457E-01    0.990E-02
DAV:   2    -0.192957083257E+03   -0.32742E-02   -0.74359E-03  8526   0.650E-01    0.116E+00
DAV:   3    -0.192954628208E+03    0.24550E-02   -0.91161E-03  6477   0.724E-01    0.597E-01
DAV:   4    -0.192954002227E+03    0.62598E-03   -0.18296E-03  4233   0.390E-01    0.141E-01
DAV:   5    -0.192954101204E+03   -0.98977E-04   -0.21289E-04  3609   0.158E-01
  39 F= -.19295410E+03 E0= -.19295038E+03  d E =-.604823E-03  mag=    25.1353
quench:  g(F)=  0.000E+00 g(S)=  0.000E+00 dE (1.order)= 0.000E+00
 bond charge predicted
       N       E                     dE             d eps       ncg     rms          rms(c)
DAV:   1    -0.192954409580E+03   -0.40735E-03   -0.38281E-02  5976   0.398E-01    0.702E-02
DAV:   2    -0.192955002882E+03   -0.59330E-03   -0.18231E-03  7554   0.314E-01    0.428E-01
DAV:   3    -0.192954706683E+03    0.29620E-03   -0.14922E-03  4254   0.342E-01    0.324E-01
DAV:   4    -0.192954519760E+03    0.18692E-03   -0.70684E-04  3489   0.209E-01    0.113E-01
DAV:   5    -0.192954554244E+03   -0.34484E-04   -0.13143E-04  3360   0.125E-01
  40 F= -.19295455E+03 E0= -.19295085E+03  d E =-.453041E-03  mag=    25.1351
quench:  g(F)=  0.000E+00 g(S)=  0.000E+00 dE (1.order)= 0.000E+00
 bond charge predicted
       N       E                     dE             d eps       ncg     rms          rms(c)
DAV:   1    -0.192954995228E+03   -0.47547E-03   -0.95232E-02  5976   0.579E-01    0.922E-02
DAV:   2    -0.192955578743E+03   -0.58351E-03   -0.32397E-03  8022   0.266E-01    0.391E-01
DAV:   3    -0.192955640420E+03   -0.61678E-04   -0.24196E-03  4599   0.379E-01    0.458E-01
DAV:   4    -0.192955311263E+03    0.32916E-03   -0.14592E-03  3846   0.319E-01    0.225E-01
DAV:   5    -0.192955276967E+03    0.34295E-04   -0.24603E-04  3384   0.175E-01
  41 F= -.19295528E+03 E0= -.19295152E+03  d E =-.722723E-03  mag=    25.1351
quench:  g(F)=  0.000E+00 g(S)=  0.000E+00 dE (1.order)= 0.000E+00
 bond charge predicted
       N       E                     dE             d eps       ncg     rms          rms(c)
DAV:   1    -0.192955717306E+03   -0.40604E-03   -0.16420E-01  5976   0.752E-01    0.131E-01
DAV:   2    -0.192956745402E+03   -0.10281E-02   -0.59798E-03  8244   0.398E-01    0.488E-01
DAV:   3    -0.192956238720E+03    0.50668E-03   -0.19233E-03  6720   0.461E-01    0.268E-01
DAV:   4    -0.192957946052E+03   -0.17073E-02   -0.46446E-03  4185   0.513E-01    0.918E-01
DAV:   5    -0.192956022557E+03    0.19235E-02   -0.35438E-03  4365   0.449E-01    0.161E-01
DAV:   6    -0.192956127843E+03   -0.10529E-03   -0.24426E-04  3957   0.171E-01    0.104E-01
DAV:   7    -0.192956183537E+03   -0.55694E-04   -0.13657E-04  3423   0.122E-01
  42 F= -.19295618E+03 E0= -.19295244E+03  d E =-.906569E-03  mag=    25.1346
quench:  g(F)=  0.000E+00 g(S)=  0.000E+00 dE (1.order)= 0.000E+00
 bond charge predicted
       N       E                     dE             d eps       ncg     rms          rms(c)
DAV:   1    -0.192956016972E+03    0.11087E-03   -0.20334E-01  5976   0.800E-01    0.143E-01
DAV:   2    -0.192958076697E+03   -0.20597E-02   -0.93266E-03  8232   0.513E-01    0.796E-01
DAV:   3    -0.192957507681E+03    0.56902E-03   -0.76575E-03  6723   0.673E-01    0.712E-01
DAV:   4    -0.192956619710E+03    0.88797E-03   -0.23753E-03  5580   0.420E-01    0.228E-01
DAV:   5    -0.192956659755E+03   -0.40044E-04   -0.33581E-04  4125   0.200E-01
  43 F= -.19295666E+03 E0= -.19295295E+03  d E =-.476218E-03  mag=    25.1346
quench:  g(F)=  0.000E+00 g(S)=  0.000E+00 dE (1.order)= 0.000E+00
 bond charge predicted
       N       E                     dE             d eps       ncg     rms          rms(c)
DAV:   1    -0.192957087334E+03   -0.46762E-03   -0.65956E-02  6009   0.477E-01    0.134E-01
DAV:   2    -0.192959882947E+03   -0.27956E-02   -0.65786E-03  8346   0.736E-01    0.100E+00
DAV:   3    -0.192957344656E+03    0.25383E-02   -0.41108E-03  6798   0.702E-01    0.301E-01
DAV:   4    -0.192957506331E+03   -0.16168E-03   -0.14763E-03  3792   0.291E-01    0.330E-01
DAV:   5    -0.192957399318E+03    0.10701E-03   -0.89827E-04  3819   0.263E-01    0.204E-01
DAV:   6    -0.192957299818E+03    0.99499E-04   -0.21698E-04  3825   0.164E-01
  44 F= -.19295730E+03 E0= -.19295361E+03  d E =-.640064E-03  mag=    25.1345
quench:  g(F)=  0.000E+00 g(S)=  0.000E+00 dE (1.order)= 0.000E+00
 bond charge predicted
       N       E                     dE             d eps       ncg     rms          rms(c)
DAV:   1    -0.192957607745E+03   -0.20843E-03   -0.31959E-02  5976   0.362E-01    0.157E-01
DAV:   2    -0.192962592481E+03   -0.49847E-02   -0.83144E-03  7272   0.100E+00    0.136E+00
DAV:   3    -0.192957527557E+03    0.50649E-02   -0.70085E-03  6444   0.931E-01    0.336E-01
DAV:   4    -0.192957726731E+03   -0.19917E-03   -0.12166E-03  3957   0.266E-01    0.246E-01
DAV:   5    -0.192957650198E+03    0.76533E-04   -0.41844E-04  3591   0.185E-01
  45 F= -.19295765E+03 E0= -.19295394E+03  d E =-.350380E-03  mag=    25.1345
quench:  g(F)=  0.000E+00 g(S)=  0.000E+00 dE (1.order)= 0.000E+00
 bond charge predicted
       N       E                     dE             d eps       ncg     rms          rms(c)
DAV:   1    -0.192957859698E+03   -0.13297E-03   -0.75613E-02  5976   0.528E-01    0.118E-01
DAV:   2    -0.192959864031E+03   -0.20043E-02   -0.52070E-03  8508   0.638E-01    0.817E-01
DAV:   3    -0.192958227285E+03    0.16367E-02   -0.35957E-03  6525   0.622E-01    0.373E-01
DAV:   4    -0.192958185442E+03    0.41843E-04   -0.16179E-03  3819   0.305E-01    0.289E-01
DAV:   5    -0.192958113396E+03    0.72045E-04   -0.55903E-04  3738   0.228E-01
  46 F= -.19295811E+03 E0= -.19295448E+03  d E =-.463198E-03  mag=    25.1346
quench:  g(F)=  0.000E+00 g(S)=  0.000E+00 dE (1.order)= 0.000E+00
 bond charge predicted
       N       E                     dE             d eps       ncg     rms          rms(c)
DAV:   1    -0.192958047244E+03    0.13820E-03   -0.15337E-01  6024   0.756E-01    0.128E-01
DAV:   2    -0.192961601082E+03   -0.35538E-02   -0.97546E-03  9027   0.689E-01    0.114E+00
DAV:   3    -0.192959165618E+03    0.24355E-02   -0.98484E-03  6426   0.778E-01    0.643E-01
DAV:   4    -0.192958473257E+03    0.69236E-03   -0.22408E-03  5580   0.417E-01    0.179E-01
DAV:   5    -0.192958707782E+03   -0.23452E-03   -0.57757E-04  4659   0.267E-01    0.267E-01
DAV:   6    -0.192958505538E+03    0.20224E-03   -0.35342E-04  3594   0.228E-01    0.806E-02
DAV:   7    -0.192958542747E+03   -0.37209E-04   -0.12922E-04  3411   0.126E-01
  47 F= -.19295854E+03 E0= -.19295477E+03  d E =-.429350E-03  mag=    25.1353
quench:  g(F)=  0.000E+00 g(S)=  0.000E+00 dE (1.order)= 0.000E+00
 bond charge predicted
       N       E                     dE             d eps       ncg     rms          rms(c)
DAV:   1    -0.192958340096E+03    0.16544E-03   -0.15524E-01  5976   0.710E-01    0.132E-01
DAV:   2    -0.192959882990E+03   -0.15429E-02   -0.79684E-03  8502   0.464E-01    0.652E-01
DAV:   3    -0.192959815324E+03    0.67666E-04   -0.64741E-03  6885   0.617E-01    0.706E-01
DAV:   4    -0.192958948352E+03    0.86697E-03   -0.33615E-03  5946   0.482E-01    0.308E-01
DAV:   5    -0.192958849930E+03    0.98422E-04   -0.45754E-04  4122   0.228E-01
  48 F= -.19295885E+03 E0= -.19295502E+03  d E =-.307183E-03  mag=    25.1353
quench:  g(F)=  0.000E+00 g(S)=  0.000E+00 dE (1.order)= 0.000E+00
 bond charge predicted
       N       E                     dE             d eps       ncg     rms          rms(c)
DAV:   1    -0.192959128973E+03   -0.18062E-03   -0.56610E-02  5994   0.460E-01    0.112E-01
DAV:   2    -0.192964596645E+03   -0.54677E-02   -0.11336E-02  8598   0.832E-01    0.152E+00
DAV:   3    -0.192960101785E+03    0.44949E-02   -0.14091E-02  6582   0.898E-01    0.686E-01
DAV:   4    -0.192959313716E+03    0.78807E-03   -0.22739E-03  5256   0.448E-01    0.149E-01
DAV:   5    -0.192959433713E+03   -0.12000E-03   -0.35410E-04  3894   0.197E-01    0.170E-01
DAV:   6    -0.192959348725E+03    0.84988E-04   -0.24779E-04  3744   0.169E-01
  49 F= -.19295935E+03 E0= -.19295562E+03  d E =-.498795E-03  mag=    25.1355
quench:  g(F)=  0.000E+00 g(S)=  0.000E+00 dE (1.order)= 0.000E+00
 bond charge predicted
       N       E                     dE             d eps       ncg     rms          rms(c)
DAV:   1    -0.192959591097E+03   -0.15738E-03   -0.42786E-02  5976   0.408E-01    0.109E-01
DAV:   2    -0.192961869343E+03   -0.22782E-02   -0.43813E-03  8100   0.656E-01    0.917E-01
DAV:   3    -0.192960688796E+03    0.11805E-02   -0.61085E-03  6453   0.714E-01    0.721E-01
DAV:   4    -0.192959622715E+03    0.10661E-02   -0.25352E-03  4875   0.387E-01    0.964E-02
DAV:   5    -0.192959748112E+03   -0.12540E-03   -0.22197E-04  3537   0.161E-01    0.135E-01
DAV:   6    -0.192959710602E+03    0.37511E-04   -0.14467E-04  3573   0.124E-01
  50 F= -.19295971E+03 E0= -.19295592E+03  d E =-.361877E-03  mag=    25.1356
quench:  g(F)=  0.000E+00 g(S)=  0.000E+00 dE (1.order)= 0.000E+00
 bond charge predicted
       N       E                     dE             d eps       ncg     rms          rms(c)
DAV:   1    -0.192959932422E+03   -0.18431E-03   -0.10685E-01  5976   0.624E-01    0.101E-01
DAV:   2    -0.192960799646E+03   -0.86722E-03   -0.41713E-03  8385   0.377E-01    0.465E-01
DAV:   3    -0.192960224385E+03    0.57526E-03   -0.12782E-03  6342   0.385E-01    0.143E-01
DAV:   4    -0.192961295442E+03   -0.10711E-02   -0.24594E-03  3810   0.372E-01    0.703E-01
DAV:   5    -0.192960240934E+03    0.10545E-02   -0.23150E-03  3741   0.369E-01    0.167E-01
DAV:   6    -0.192960245876E+03   -0.49420E-05   -0.16308E-04  3366   0.149E-01
  51 F= -.19296025E+03 E0= -.19295649E+03  d E =-.535274E-03  mag=    25.1358
quench:  g(F)=  0.000E+00 g(S)=  0.000E+00 dE (1.order)= 0.000E+00
 bond charge predicted
       N       E                     dE             d eps       ncg     rms          rms(c)
DAV:   1    -0.192960422579E+03   -0.18165E-03   -0.18628E-01  5976   0.824E-01    0.165E-01
DAV:   2    -0.192963482121E+03   -0.30595E-02   -0.10011E-02  8670   0.794E-01    0.940E-01
DAV:   3    -0.192960938139E+03    0.25440E-02   -0.45928E-03  6525   0.771E-01    0.257E-01
DAV:   4    -0.192962079797E+03   -0.11417E-02   -0.32924E-03  5352   0.453E-01    0.741E-01
DAV:   5    -0.192961107894E+03    0.97190E-03   -0.36348E-03  5580   0.463E-01    0.316E-01
DAV:   6    -0.192960934703E+03    0.17319E-03   -0.53713E-04  4194   0.249E-01    0.973E-02
DAV:   7    -0.192961004044E+03   -0.69341E-04   -0.21188E-04  3546   0.163E-01
  52 F= -.19296100E+03 E0= -.19295724E+03  d E =-.758168E-03  mag=    25.1359
quench:  g(F)=  0.000E+00 g(S)=  0.000E+00 dE (1.order)= 0.000E+00
 bond charge predicted
       N       E                     dE             d eps       ncg     rms          rms(c)
DAV:   1    -0.192960614361E+03    0.32034E-03   -0.21849E-01  5976   0.857E-01    0.142E-01
DAV:   2    -0.192961597741E+03   -0.98338E-03   -0.81033E-03  8040   0.350E-01    0.357E-01
DAV:   3    -0.192961341181E+03    0.25656E-03   -0.14405E-03  6642   0.422E-01    0.227E-01
DAV:   4    -0.192961531365E+03   -0.19018E-03   -0.68795E-04  5172   0.298E-01    0.307E-01
DAV:   5    -0.192961444469E+03    0.86897E-04   -0.95820E-04  4050   0.303E-01
  53 F= -.19296144E+03 E0= -.19295759E+03  d E =-.440425E-03  mag=    25.1364
quench:  g(F)=  0.000E+00 g(S)=  0.000E+00 dE (1.order)= 0.000E+00
 bond charge predicted
       N       E                     dE             d eps       ncg     rms          rms(c)
DAV:   1    -0.192961729870E+03   -0.19851E-03   -0.72166E-02  6066   0.525E-01    0.199E-01
DAV:   2    -0.193023471383E+03   -0.61742E-01   -0.10922E-01  7866   0.252E+00    0.529E+00
DAV:   3    -0.192957843340E+03    0.65628E-01   -0.10297E-01  7380   0.248E+00    0.449E-01
DAV:   4    -0.192961912830E+03   -0.40695E-02   -0.19712E-03  8424   0.439E-01    0.248E-01
DAV:   5    -0.192962094443E+03   -0.18161E-03   -0.61087E-04  5580   0.252E-01    0.221E-01
DAV:   6    -0.192961981965E+03    0.11248E-03   -0.35144E-04  4200   0.203E-01    0.957E-02
DAV:   7    -0.192962016243E+03   -0.34278E-04   -0.12271E-04  3438   0.118E-01
  54 F= -.19296202E+03 E0= -.19295822E+03  d E =-.571774E-03  mag=    25.1366
quench:  g(F)=  0.000E+00 g(S)=  0.000E+00 dE (1.order)= 0.000E+00
 bond charge predicted
       N       E                     dE             d eps       ncg     rms          rms(c)
DAV:   1    -0.192962168575E+03   -0.18661E-03   -0.41319E-02  5976   0.405E-01    0.653E-02
DAV:   2    -0.192962723749E+03   -0.55517E-03   -0.20270E-03  7839   0.296E-01    0.417E-01
DAV:   3    -0.192962591496E+03    0.13225E-03   -0.18072E-03  4104   0.351E-01    0.387E-01
DAV:   4    -0.192962293006E+03    0.29849E-03   -0.82868E-04  3630   0.230E-01    0.949E-02
DAV:   5    -0.192962348529E+03   -0.55524E-04   -0.12136E-04  3357   0.128E-01
  55 F= -.19296235E+03 E0= -.19295854E+03  d E =-.332287E-03  mag=    25.1369
quench:  g(F)=  0.000E+00 g(S)=  0.000E+00 dE (1.order)= 0.000E+00
 bond charge predicted
       N       E                     dE             d eps       ncg     rms          rms(c)
DAV:   1    -0.192962525293E+03   -0.23229E-03   -0.96290E-02  5976   0.603E-01    0.893E-02
DAV:   2    -0.192963046218E+03   -0.52092E-03   -0.35580E-03  7950   0.260E-01    0.298E-01
DAV:   3    -0.192962880938E+03    0.16528E-03   -0.85122E-04  6009   0.307E-01    0.171E-01
DAV:   4    -0.192963637328E+03   -0.75639E-03   -0.18547E-03  3825   0.328E-01    0.606E-01
DAV:   5    -0.192962803729E+03    0.83360E-03   -0.16887E-03  3654   0.314E-01    0.129E-01
DAV:   6    -0.192962827582E+03   -0.23852E-04   -0.10064E-04  3462   0.126E-01
  56 F= -.19296283E+03 E0= -.19295896E+03  d E =-.479052E-03  mag=    25.1371
quench:  g(F)=  0.000E+00 g(S)=  0.000E+00 dE (1.order)= 0.000E+00
 bond charge predicted
       N       E                     dE             d eps       ncg     rms          rms(c)
DAV:   1    -0.192963029082E+03   -0.22535E-03   -0.18084E-01  5976   0.813E-01    0.157E-01
DAV:   2    -0.192966056964E+03   -0.30279E-02   -0.93724E-03  8322   0.772E-01    0.960E-01
DAV:   3    -0.192963446313E+03    0.26107E-02   -0.39923E-03  6351   0.734E-01    0.211E-01
DAV:   4    -0.192964575546E+03   -0.11292E-02   -0.28257E-03  4800   0.421E-01    0.700E-01
DAV:   5    -0.192963743191E+03    0.83235E-03   -0.33964E-03  5103   0.447E-01    0.319E-01
DAV:   6    -0.192963563081E+03    0.18011E-03   -0.43698E-04  3504   0.232E-01    0.964E-02
DAV:   7    -0.192963582071E+03   -0.18990E-04   -0.14296E-04  3474   0.131E-01
  57 F= -.19296358E+03 E0= -.19295965E+03  d E =-.754489E-03  mag=    25.1377
quench:  g(F)=  0.000E+00 g(S)=  0.000E+00 dE (1.order)= 0.000E+00
 bond charge predicted
       N       E                     dE             d eps       ncg     rms          rms(c)
DAV:   1    -0.192963552036E+03    0.11044E-04   -0.17620E-01  5976   0.773E-01    0.177E-01
DAV:   2    -0.192967042930E+03   -0.34909E-02   -0.11291E-02  8712   0.847E-01    0.103E+00
DAV:   3    -0.192964291032E+03    0.27519E-02   -0.59006E-03  6741   0.835E-01    0.423E-01
DAV:   4    -0.192964800666E+03   -0.50963E-03   -0.37329E-03  5607   0.459E-01    0.601E-01
DAV:   5    -0.192964280046E+03    0.52062E-03   -0.27007E-03  5412   0.440E-01    0.324E-01
DAV:   6    -0.192964041881E+03    0.23817E-03   -0.46167E-04  4248   0.244E-01    0.102E-01
DAV:   7    -0.192964145107E+03   -0.10323E-03   -0.26827E-04  3498   0.192E-01    0.195E-01
DAV:   8    -0.192964070348E+03    0.74759E-04   -0.25645E-04  3582   0.178E-01
  58 F= -.19296407E+03 E0= -.19296020E+03  d E =-.488277E-03  mag=    25.1373
quench:  g(F)=  0.000E+00 g(S)=  0.000E+00 dE (1.order)= 0.000E+00
 bond charge predicted
       N       E                     dE             d eps       ncg     rms          rms(c)
DAV:   1    -0.192964530870E+03   -0.38576E-03   -0.69092E-02  5976   0.471E-01    0.109E-01
DAV:   2    -0.192966396454E+03   -0.18656E-02   -0.53914E-03  8469   0.536E-01    0.823E-01
DAV:   3    -0.192965762151E+03    0.63430E-03   -0.73598E-03  6552   0.665E-01    0.719E-01
DAV:   4    -0.192964691695E+03    0.10705E-02   -0.22272E-03  4980   0.396E-01    0.120E-01
DAV:   5    -0.192964857191E+03   -0.16550E-03   -0.31456E-04  3888   0.194E-01    0.213E-01
DAV:   6    -0.192964739526E+03    0.11767E-03   -0.24963E-04  3717   0.181E-01    0.613E-02
DAV:   7    -0.192964796744E+03   -0.57218E-04   -0.14382E-04  3465   0.137E-01
  59 F= -.19296480E+03 E0= -.19296093E+03  d E =-.726396E-03  mag=    25.1375
quench:  g(F)=  0.000E+00 g(S)=  0.000E+00 dE (1.order)= 0.000E+00
 bond charge predicted
       N       E                     dE             d eps       ncg     rms          rms(c)
DAV:   1    -0.192965081654E+03   -0.34213E-03   -0.49705E-02  5976   0.448E-01    0.858E-02
DAV:   2    -0.192966233027E+03   -0.11514E-02   -0.31767E-03  8277   0.460E-01    0.619E-01
DAV:   3    -0.192965671745E+03    0.56128E-03   -0.31712E-03  6336   0.504E-01    0.493E-01
DAV:   4    -0.192965233196E+03    0.43855E-03   -0.14909E-03  3777   0.300E-01    0.143E-01
DAV:   5    -0.192965280149E+03   -0.46953E-04   -0.23619E-04  3519   0.161E-01
  60 F= -.19296528E+03 E0= -.19296140E+03  d E =-.483406E-03  mag=    25.1376
quench:  g(F)=  0.000E+00 g(S)=  0.000E+00 dE (1.order)= 0.000E+00
 bond charge predicted
       N       E                     dE             d eps       ncg     rms          rms(c)
DAV:   1    -0.192965613826E+03   -0.38063E-03   -0.12459E-01  5976   0.688E-01    0.104E-01
DAV:   2    -0.192966936236E+03   -0.13224E-02   -0.52245E-03  8604   0.420E-01    0.639E-01
DAV:   3    -0.192966590984E+03    0.34525E-03   -0.42872E-03  6450   0.533E-01    0.560E-01
DAV:   4    -0.192966030581E+03    0.56040E-03   -0.21093E-03  4428   0.366E-01    0.204E-01
DAV:   5    -0.192966093081E+03   -0.62500E-04   -0.33374E-04  3447   0.196E-01
  61 F= -.19296609E+03 E0= -.19296219E+03  d E =-.812931E-03  mag=    25.1378
quench:  g(F)=  0.000E+00 g(S)=  0.000E+00 dE (1.order)= 0.000E+00
 bond charge predicted
       N       E                     dE             d eps       ncg     rms          rms(c)
DAV:   1    -0.192966368475E+03   -0.33789E-03   -0.21610E-01  5976   0.908E-01    0.138E-01
DAV:   2    -0.192967420998E+03   -0.10525E-02   -0.78926E-03  7731   0.339E-01    0.412E-01
DAV:   3    -0.192968229198E+03   -0.80820E-03   -0.45446E-03  6858   0.567E-01    0.754E-01
DAV:   4    -0.192967485586E+03    0.74361E-03   -0.47958E-03  5805   0.530E-01    0.485E-01
DAV:   5    -0.192967044208E+03    0.44138E-03   -0.99456E-04  4035   0.294E-01    0.139E-01
DAV:   6    -0.192967057871E+03   -0.13663E-04   -0.21293E-04  3795   0.170E-01
  62 F= -.19296706E+03 E0= -.19296306E+03  d E =-.964791E-03  mag=    25.1378
quench:  g(F)=  0.000E+00 g(S)=  0.000E+00 dE (1.order)= 0.000E+00
 bond charge predicted
       N       E                     dE             d eps       ncg     rms          rms(c)
DAV:   1    -0.192967033726E+03    0.10482E-04   -0.23587E-01  6054   0.893E-01    0.190E-01
DAV:   2    -0.192971518058E+03   -0.44843E-02   -0.14345E-02  8700   0.933E-01    0.115E+00
DAV:   3    -0.192970718487E+03    0.79957E-03   -0.15986E-02  6531   0.107E+00    0.125E+00
DAV:   4    -0.192967562194E+03    0.31563E-02   -0.89205E-03  6354   0.741E-01    0.320E-01
DAV:   5    -0.192967961640E+03   -0.39945E-03   -0.12276E-03  6177   0.369E-01    0.321E-01
DAV:   6    -0.192967699463E+03    0.26218E-03   -0.63973E-04  5463   0.291E-01    0.132E-01
DAV:   7    -0.192967749136E+03   -0.49673E-04   -0.29550E-04  3519   0.200E-01
  63 F= -.19296775E+03 E0= -.19296366E+03  d E =-.691265E-03  mag=    25.1382
quench:  g(F)=  0.000E+00 g(S)=  0.000E+00 dE (1.order)= 0.000E+00
 bond charge predicted
       N       E                     dE             d eps       ncg     rms          rms(c)
DAV:   1    -0.192968400107E+03   -0.70064E-03   -0.79654E-02  5976   0.502E-01    0.150E-01
DAV:   2    -0.192971646082E+03   -0.32460E-02   -0.80080E-03  8526   0.803E-01    0.105E+00
DAV:   3    -0.192970120425E+03    0.15257E-02   -0.95356E-03  6777   0.883E-01    0.898E-01
DAV:   4    -0.192968628732E+03    0.14917E-02   -0.50490E-03  6147   0.549E-01    0.275E-01
DAV:   5    -0.192968719052E+03   -0.90320E-04   -0.67405E-04  4674   0.261E-01
  64 F= -.19296872E+03 E0= -.19296468E+03  d E =-.969916E-03  mag=    25.1382
quench:  g(F)=  0.000E+00 g(S)=  0.000E+00 dE (1.order)= 0.000E+00
 bond charge predicted
       N       E                     dE             d eps       ncg     rms          rms(c)
DAV:   1    -0.192969050295E+03   -0.42156E-03   -0.55481E-02  5997   0.499E-01    0.991E-02
DAV:   2    -0.192971509856E+03   -0.24596E-02   -0.54181E-03  8451   0.604E-01    0.978E-01
DAV:   3    -0.192970246161E+03    0.12637E-02   -0.80834E-03  6309   0.704E-01    0.721E-01
DAV:   4    -0.192969155252E+03    0.10909E-02   -0.24334E-03  4782   0.409E-01    0.105E-01
DAV:   5    -0.192969312660E+03   -0.15741E-03   -0.27881E-04  3762   0.184E-01    0.162E-01
DAV:   6    -0.192969246803E+03    0.65857E-04   -0.18104E-04  3402   0.146E-01
  65 F= -.19296925E+03 E0= -.19296528E+03  d E =-.527751E-03  mag=    25.1382
quench:  g(F)=  0.000E+00 g(S)=  0.000E+00 dE (1.order)= 0.000E+00
 bond charge predicted
       N       E                     dE             d eps       ncg     rms          rms(c)
DAV:   1    -0.192969857894E+03   -0.54523E-03   -0.13469E-01  5976   0.704E-01    0.110E-01
DAV:   2    -0.192970909122E+03   -0.10512E-02   -0.54131E-03  8397   0.386E-01    0.516E-01
DAV:   3    -0.192971117218E+03   -0.20810E-03   -0.43472E-03  6564   0.528E-01    0.656E-01
DAV:   4    -0.192970284014E+03    0.83320E-03   -0.25243E-03  5058   0.398E-01    0.210E-01
DAV:   5    -0.192970326610E+03   -0.42596E-04   -0.30773E-04  3627   0.186E-01
  66 F= -.19297033E+03 E0= -.19296632E+03  d E =-.107981E-02  mag=    25.1381
quench:  g(F)=  0.000E+00 g(S)=  0.000E+00 dE (1.order)= 0.000E+00
 bond charge predicted
       N       E                     dE             d eps       ncg     rms          rms(c)
DAV:   1    -0.192970829341E+03   -0.54533E-03   -0.25282E-01  5976   0.974E-01    0.149E-01
DAV:   2    -0.192972491923E+03   -0.16626E-02   -0.92303E-03  7968   0.475E-01    0.624E-01
DAV:   3    -0.192972160550E+03    0.33137E-03   -0.39726E-03  6438   0.573E-01    0.560E-01
DAV:   4    -0.192972155748E+03    0.48022E-05   -0.42434E-03  5631   0.500E-01    0.533E-01
DAV:   5    -0.192971679006E+03    0.47674E-03   -0.12864E-03  3708   0.315E-01    0.188E-01
DAV:   6    -0.192971620851E+03    0.58155E-04   -0.24345E-04  3417   0.187E-01
  67 F= -.19297162E+03 E0= -.19296759E+03  d E =-.129424E-02  mag=    25.1381
quench:  g(F)=  0.000E+00 g(S)=  0.000E+00 dE (1.order)= 0.000E+00
 bond charge predicted
       N       E                     dE             d eps       ncg     rms          rms(c)
DAV:   1    -0.192971853681E+03   -0.17468E-03   -0.26335E-01  5976   0.960E-01    0.234E-01
DAV:   2    -0.192978754308E+03   -0.69006E-02   -0.19599E-02  8604   0.122E+00    0.143E+00
DAV:   3    -0.192973984425E+03    0.47699E-02   -0.14301E-02  6777   0.122E+00    0.889E-01
DAV:   4    -0.192973249611E+03    0.73481E-03   -0.81014E-03  6984   0.685E-01    0.611E-01
DAV:   5    -0.192972816995E+03    0.43262E-03   -0.26350E-03  6507   0.468E-01    0.315E-01
DAV:   6    -0.192972570547E+03    0.24645E-03   -0.72287E-04  5892   0.293E-01    0.131E-01
DAV:   7    -0.192972691025E+03   -0.12048E-03   -0.41325E-04  3891   0.229E-01    0.229E-01
DAV:   8    -0.192972574986E+03    0.11604E-03   -0.28850E-04  3618   0.184E-01    0.107E-01
DAV:   9    -0.192972583383E+03   -0.83970E-05   -0.15645E-04  3429   0.137E-01
  68 F= -.19297258E+03 E0= -.19296851E+03  d E =-.962532E-03  mag=    25.1369
quench:  g(F)=  0.000E+00 g(S)=  0.000E+00 dE (1.order)= 0.000E+00
 bond charge predicted
       N       E                     dE             d eps       ncg     rms          rms(c)
DAV:   1    -0.192973347194E+03   -0.77221E-03   -0.10053E-01  5976   0.550E-01    0.135E-01
DAV:   2    -0.192974841675E+03   -0.14945E-02   -0.57220E-03  8424   0.546E-01    0.651E-01
DAV:   3    -0.192973737626E+03    0.11040E-02   -0.23003E-03  6498   0.545E-01    0.291E-01
DAV:   4    -0.192974426142E+03   -0.68852E-03   -0.28066E-03  3879   0.403E-01    0.606E-01
DAV:   5    -0.192973754422E+03    0.67172E-03   -0.18396E-03  4527   0.353E-01    0.239E-01
DAV:   6    -0.192973646911E+03    0.10751E-03   -0.27171E-04  4095   0.201E-01    0.718E-02
DAV:   7    -0.192973763282E+03   -0.11637E-03   -0.24990E-04  3564   0.179E-01    0.206E-01
DAV:   8    -0.192973647251E+03    0.11603E-03   -0.19996E-04  3447   0.161E-01    0.585E-02
DAV:   9    -0.192973658441E+03   -0.11190E-04   -0.54936E-05  3438   0.840E-02
  69 F= -.19297366E+03 E0= -.19296962E+03  d E =-.107506E-02  mag=    25.1368
quench:  g(F)=  0.000E+00 g(S)=  0.000E+00 dE (1.order)= 0.000E+00
 bond charge predicted
       N       E                     dE             d eps       ncg     rms          rms(c)
DAV:   1    -0.192974262628E+03   -0.61538E-03   -0.62322E-02  5976   0.477E-01    0.808E-02
DAV:   2    -0.192975249917E+03   -0.98729E-03   -0.34464E-03  8478   0.385E-01    0.569E-01
DAV:   3    -0.192974956187E+03    0.29373E-03   -0.35222E-03  5652   0.467E-01    0.503E-01
DAV:   4    -0.192974453148E+03    0.50304E-03   -0.15418E-03  3903   0.326E-01    0.153E-01
DAV:   5    -0.192974490661E+03   -0.37513E-04   -0.20822E-04  3438   0.155E-01
  70 F= -.19297449E+03 E0= -.19297048E+03  d E =-.832220E-03  mag=    25.1368
quench:  g(F)=  0.000E+00 g(S)=  0.000E+00 dE (1.order)= 0.000E+00
 bond charge predicted
       N       E                     dE             d eps       ncg     rms          rms(c)
DAV:   1    -0.192975247287E+03   -0.79414E-03   -0.16574E-01  5976   0.783E-01    0.109E-01
DAV:   2    -0.192976071845E+03   -0.82456E-03   -0.56953E-03  7767   0.303E-01    0.355E-01
DAV:   3    -0.192976268672E+03   -0.19683E-03   -0.21189E-03  6489   0.430E-01    0.493E-01
DAV:   4    -0.192976182418E+03    0.86254E-04   -0.29593E-03  4398   0.413E-01    0.441E-01
DAV:   5    -0.192975822530E+03    0.35989E-03   -0.82415E-04  3609   0.254E-01    0.135E-01
DAV:   6    -0.192975789269E+03    0.33262E-04   -0.11109E-04  3360   0.139E-01
  71 F= -.19297579E+03 E0= -.19297165E+03  d E =-.129861E-02  mag=    25.1370
quench:  g(F)=  0.000E+00 g(S)=  0.000E+00 dE (1.order)= 0.000E+00
 bond charge predicted
       N       E                     dE             d eps       ncg     rms          rms(c)
DAV:   1    -0.192976756058E+03   -0.93353E-03   -0.30255E-01  5976   0.105E+00    0.188E-01
DAV:   2    -0.192980567029E+03   -0.38110E-02   -0.14839E-02  8655   0.862E-01    0.101E+00
DAV:   3    -0.192978361931E+03    0.22051E-02   -0.77764E-03  6522   0.892E-01    0.660E-01
DAV:   4    -0.192978177508E+03    0.18442E-03   -0.52063E-03  6372   0.548E-01    0.528E-01
DAV:   5    -0.192977974094E+03    0.20341E-03   -0.22378E-03  6015   0.433E-01    0.338E-01
DAV:   6    -0.192977680561E+03    0.29353E-03   -0.60717E-04  4542   0.289E-01    0.116E-01
DAV:   7    -0.192977731846E+03   -0.51285E-04   -0.22398E-04  3519   0.175E-01
  72 F= -.19297773E+03 E0= -.19297350E+03  d E =-.194258E-02  mag=    25.1364
quench:  g(F)=  0.000E+00 g(S)=  0.000E+00 dE (1.order)= 0.000E+00
 bond charge predicted
       N       E                     dE             d eps       ncg     rms          rms(c)
DAV:   1    -0.192978003285E+03   -0.32272E-03   -0.38092E-01  5976   0.115E+00    0.189E-01
DAV:   2    -0.192980597380E+03   -0.25941E-02   -0.15528E-02  8139   0.598E-01    0.755E-01
DAV:   3    -0.192981478300E+03   -0.88092E-03   -0.10668E-02  6804   0.850E-01    0.107E+00
DAV:   4    -0.192979309112E+03    0.21692E-02   -0.62615E-03  6417   0.628E-01    0.365E-01
DAV:   5    -0.192979441895E+03   -0.13278E-03   -0.98474E-04  5559   0.338E-01    0.312E-01
DAV:   6    -0.192979195922E+03    0.24597E-03   -0.53341E-04  4374   0.286E-01    0.113E-01
DAV:   7    -0.192979398548E+03   -0.20263E-03   -0.42835E-04  3708   0.242E-01    0.266E-01
DAV:   8    -0.192979210248E+03    0.18830E-03   -0.35288E-04  3582   0.220E-01    0.931E-02
DAV:   9    -0.192979221755E+03   -0.11508E-04   -0.11576E-04  3432   0.123E-01
  73 F= -.19297922E+03 E0= -.19297498E+03  d E =-.148991E-02  mag=    25.1368
quench:  g(F)=  0.000E+00 g(S)=  0.000E+00 dE (1.order)= 0.000E+00
 bond charge predicted
       N       E                     dE             d eps       ncg     rms          rms(c)
DAV:   1    -0.192980259575E+03   -0.10493E-02   -0.15049E-01  5976   0.669E-01    0.155E-01
DAV:   2    -0.192981775771E+03   -0.15162E-02   -0.82639E-03  8358   0.511E-01    0.635E-01
DAV:   3    -0.192981338389E+03    0.43738E-03   -0.44857E-03  7119   0.607E-01    0.569E-01
DAV:   4    -0.192981214479E+03    0.12391E-03   -0.39190E-03  5481   0.482E-01    0.498E-01
DAV:   5    -0.192980768667E+03    0.44581E-03   -0.13592E-03  4386   0.332E-01    0.225E-01
DAV:   6    -0.192980679444E+03    0.89222E-04   -0.35349E-04  4410   0.221E-01
  74 F= -.19298068E+03 E0= -.19297650E+03  d E =-.145769E-02  mag=    25.1364
quench:  g(F)=  0.000E+00 g(S)=  0.000E+00 dE (1.order)= 0.000E+00
 bond charge predicted
       N       E                     dE             d eps       ncg     rms          rms(c)
DAV:   1    -0.192981757292E+03   -0.98863E-03   -0.93803E-02  6000   0.625E-01    0.252E-01
DAV:   2    -0.192994393934E+03   -0.12637E-01   -0.21878E-02  7005   0.167E+00    0.207E+00
DAV:   3    -0.192982205610E+03    0.12188E-01   -0.18152E-02  6489   0.154E+00    0.649E-01
DAV:   4    -0.192982134166E+03    0.71444E-04   -0.38828E-03  6612   0.467E-01    0.394E-01
DAV:   5    -0.192981944448E+03    0.18972E-03   -0.11700E-03  5130   0.311E-01    0.153E-01
DAV:   6    -0.192982014028E+03   -0.69580E-04   -0.29216E-04  3537   0.177E-01
  75 F= -.19298201E+03 E0= -.19297767E+03  d E =-.133458E-02  mag=    25.1362
quench:  g(F)=  0.000E+00 g(S)=  0.000E+00 dE (1.order)= 0.000E+00
 bond charge predicted
       N       E                     dE             d eps       ncg     rms          rms(c)
DAV:   1    -0.192983219453E+03   -0.12750E-02   -0.22662E-01  5976   0.903E-01    0.130E-01
DAV:   2    -0.192986719969E+03   -0.35005E-02   -0.12284E-02  8676   0.613E-01    0.112E+00
DAV:   3    -0.192983967469E+03    0.27525E-02   -0.77930E-03  6453   0.666E-01    0.333E-01
DAV:   4    -0.192984246517E+03   -0.27905E-03   -0.14287E-03  5883   0.383E-01    0.342E-01
DAV:   5    -0.192983995505E+03    0.25101E-03   -0.62700E-04  4764   0.267E-01    0.131E-01
DAV:   6    -0.192983988600E+03    0.69050E-05   -0.17869E-04  3438   0.158E-01
  76 F= -.19298399E+03 E0= -.19297971E+03  d E =-.197457E-02  mag=    25.1357
quench:  g(F)=  0.000E+00 g(S)=  0.000E+00 dE (1.order)= 0.000E+00
 bond charge predicted
       N       E                     dE             d eps       ncg     rms          rms(c)
DAV:   1    -0.192985566747E+03   -0.15712E-02   -0.45507E-01  5976   0.128E+00    0.221E-01
DAV:   2    -0.192991052452E+03   -0.54857E-02   -0.20479E-02  8604   0.100E+00    0.124E+00
DAV:   3    -0.192987120611E+03    0.39318E-02   -0.81350E-03  6402   0.999E-01    0.489E-01
DAV:   4    -0.192988893222E+03   -0.17726E-02   -0.75584E-03  6702   0.661E-01    0.955E-01
DAV:   5    -0.192987389940E+03    0.15033E-02   -0.49994E-03  6384   0.596E-01    0.408E-01
DAV:   6    -0.192986992696E+03    0.39724E-03   -0.81821E-04  5148   0.350E-01    0.142E-01
DAV:   7    -0.192987019398E+03   -0.26702E-04   -0.25748E-04  3483   0.183E-01
  77 F= -.19298702E+03 E0= -.19298276E+03  d E =-.303080E-02  mag=    25.1355
quench:  g(F)=  0.000E+00 g(S)=  0.000E+00 dE (1.order)= 0.000E+00
 bond charge predicted
       N       E                     dE             d eps       ncg     rms          rms(c)
DAV:   1    -0.192987949076E+03   -0.95638E-03   -0.58619E-01  5976   0.144E+00    0.252E-01
DAV:   2    -0.192998978144E+03   -0.11029E-01   -0.37187E-02  8952   0.122E+00    0.198E+00
DAV:   3    -0.192992708728E+03    0.62694E-02   -0.34510E-02  7065   0.143E+00    0.127E+00
DAV:   4    -0.192990032858E+03    0.26759E-02   -0.98378E-03  6516   0.905E-01    0.464E-01
DAV:   5    -0.192990183602E+03   -0.15074E-03   -0.19247E-03  6738   0.459E-01    0.410E-01
DAV:   6    -0.192989749019E+03    0.43458E-03   -0.10814E-03  6732   0.377E-01    0.139E-01
DAV:   7    -0.192990027753E+03   -0.27873E-03   -0.63493E-04  4995   0.294E-01    0.307E-01
DAV:   8    -0.192989759001E+03    0.26875E-03   -0.55214E-04  4104   0.277E-01    0.120E-01
DAV:   9    -0.192989809393E+03   -0.50392E-04   -0.24561E-04  3438   0.180E-01
  78 F= -.19298981E+03 E0= -.19298545E+03  d E =-.278999E-02  mag=    25.1335
quench:  g(F)=  0.000E+00 g(S)=  0.000E+00 dE (1.order)= 0.000E+00
 bond charge predicted
       N       E                     dE             d eps       ncg     rms          rms(c)
DAV:   1    -0.192991048023E+03   -0.12890E-02   -0.29346E-01  5976   0.954E-01    0.208E-01
DAV:   2    -0.192996314547E+03   -0.52665E-02   -0.19182E-02  8418   0.841E-01    0.137E+00
DAV:   3    -0.192993726195E+03    0.25884E-02   -0.16707E-02  7209   0.101E+00    0.963E-01
DAV:   4    -0.192992259033E+03    0.14672E-02   -0.66908E-03  6543   0.700E-01    0.437E-01
DAV:   5    -0.192992225495E+03    0.33537E-04   -0.13733E-03  6069   0.365E-01    0.328E-01
DAV:   6    -0.192991971147E+03    0.25435E-03   -0.82625E-04  6201   0.321E-01    0.134E-01
DAV:   7    -0.192992234449E+03   -0.26330E-03   -0.61960E-04  4635   0.275E-01    0.304E-01
DAV:   8    -0.192991935952E+03    0.29850E-03   -0.50239E-04  4293   0.260E-01    0.850E-02
DAV:   9    -0.192991975148E+03   -0.39197E-04   -0.15035E-04  3447   0.140E-01
  79 F= -.19299198E+03 E0= -.19298761E+03  d E =-.216576E-02  mag=    25.1332
quench:  g(F)=  0.000E+00 g(S)=  0.000E+00 dE (1.order)= 0.000E+00
 bond charge predicted
       N       E                     dE             d eps       ncg     rms          rms(c)
DAV:   1    -0.192993325990E+03   -0.13900E-02   -0.10236E-01  5976   0.596E-01    0.126E-01
DAV:   2    -0.192996420384E+03   -0.30944E-02   -0.89414E-03  8949   0.670E-01    0.107E+00
DAV:   3    -0.192994653504E+03    0.17669E-02   -0.10220E-02  6804   0.779E-01    0.725E-01
DAV:   4    -0.192993677485E+03    0.97602E-03   -0.29100E-03  5811   0.480E-01    0.208E-01
DAV:   5    -0.192993758682E+03   -0.81197E-04   -0.47408E-04  4338   0.233E-01
  80 F= -.19299376E+03 E0= -.19298942E+03  d E =-.178353E-02  mag=    25.1330
quench:  g(F)=  0.000E+00 g(S)=  0.000E+00 dE (1.order)= 0.000E+00
 bond charge predicted
       N       E                     dE             d eps       ncg     rms          rms(c)
DAV:   1    -0.192995618544E+03   -0.19411E-02   -0.23789E-01  5976   0.940E-01    0.134E-01
DAV:   2    -0.192998197822E+03   -0.25793E-02   -0.10407E-02  8262   0.554E-01    0.904E-01
DAV:   3    -0.192997070252E+03    0.11276E-02   -0.72450E-03  6372   0.675E-01    0.609E-01
DAV:   4    -0.192996557966E+03    0.51229E-03   -0.28540E-03  5769   0.459E-01    0.297E-01
DAV:   5    -0.192996524211E+03    0.33755E-04   -0.53018E-04  3990   0.246E-01
  81 F= -.19299652E+03 E0= -.19299213E+03  d E =-.276553E-02  mag=    25.1328
quench:  g(F)=  0.000E+00 g(S)=  0.000E+00 dE (1.order)= 0.000E+00
 bond charge predicted
       N       E                     dE             d eps       ncg     rms          rms(c)
DAV:   1    -0.192999042305E+03   -0.24843E-02   -0.54852E-01  5976   0.141E+00    0.202E-01
DAV:   2    -0.193001519454E+03   -0.24771E-02   -0.18789E-02  7398   0.514E-01    0.573E-01
DAV:   3    -0.193002677445E+03   -0.11580E-02   -0.70899E-03  6759   0.778E-01    0.950E-01
DAV:   4    -0.193002354638E+03    0.32281E-03   -0.10654E-02  6417   0.792E-01    0.854E-01
DAV:   5    -0.193000927114E+03    0.14275E-02   -0.29547E-03  5616   0.484E-01    0.258E-01
DAV:   6    -0.193000832921E+03    0.94193E-04   -0.39725E-04  3942   0.253E-01
  82 F= -.19300083E+03 E0= -.19299626E+03  d E =-.430871E-02  mag=    25.1323
quench:  g(F)=  0.000E+00 g(S)=  0.000E+00 dE (1.order)= 0.000E+00
 bond charge predicted
       N       E                     dE             d eps       ncg     rms          rms(c)
DAV:   1    -0.193003363545E+03   -0.24364E-02   -0.92448E-01  5976   0.184E+00    0.313E-01
DAV:   2    -0.193020492121E+03   -0.17129E-01   -0.53423E-02  8856   0.163E+00    0.238E+00
DAV:   3    -0.193013729659E+03    0.67625E-02   -0.53476E-02  6582   0.187E+00    0.198E+00
DAV:   4    -0.193005836101E+03    0.78936E-02   -0.21741E-02  6417   0.124E+00    0.490E-01
DAV:   5    -0.193007336483E+03   -0.15004E-02   -0.40261E-03  6531   0.666E-01    0.620E-01
DAV:   6    -0.193006187220E+03    0.11493E-02   -0.21234E-03  6312   0.550E-01    0.201E-01
DAV:   7    -0.193006286762E+03   -0.99542E-04   -0.58464E-04  5085   0.279E-01
  83 F= -.19300629E+03 E0= -.19300160E+03  d E =-.545384E-02  mag=    25.1312
quench:  g(F)=  0.000E+00 g(S)=  0.000E+00 dE (1.order)= 0.000E+00
 bond charge predicted
       N       E                     dE             d eps       ncg     rms          rms(c)
DAV:   1    -0.193006874038E+03   -0.68682E-03   -0.80254E-01  5976   0.165E+00    0.342E-01
DAV:   2    -0.193016960121E+03   -0.10086E-01   -0.42459E-02  8733   0.142E+00    0.163E+00
DAV:   3    -0.193012450316E+03    0.45098E-02   -0.23619E-02  6579   0.156E+00    0.132E+00
DAV:   4    -0.193011511457E+03    0.93886E-03   -0.20077E-02  6615   0.110E+00    0.108E+00
DAV:   5    -0.193009897679E+03    0.16138E-02   -0.72467E-03  6849   0.754E-01    0.549E-01
DAV:   6    -0.193009192442E+03    0.70524E-03   -0.18302E-03  7020   0.506E-01    0.204E-01
DAV:   7    -0.193009789511E+03   -0.59707E-03   -0.13532E-03  6408   0.425E-01    0.478E-01
DAV:   8    -0.193009144282E+03    0.64523E-03   -0.10561E-03  5940   0.381E-01    0.145E-01
DAV:   9    -0.193009241965E+03   -0.97683E-04   -0.38612E-04  3618   0.236E-01
  84 F= -.19300924E+03 E0= -.19300454E+03  d E =-.295520E-02  mag=    25.1275
quench:  g(F)=  0.000E+00 g(S)=  0.000E+00 dE (1.order)= 0.000E+00
 bond charge predicted
       N       E                     dE             d eps       ncg     rms          rms(c)
DAV:   1    -0.193011980826E+03   -0.28365E-02   -0.33919E-01  5976   0.101E+00    0.248E-01
DAV:   2    -0.193017967370E+03   -0.59865E-02   -0.21825E-02  8589   0.103E+00    0.134E+00
DAV:   3    -0.193014850401E+03    0.31170E-02   -0.14639E-02  6921   0.115E+00    0.991E-01
DAV:   4    -0.193013407848E+03    0.14426E-02   -0.73462E-03  6615   0.667E-01    0.479E-01
DAV:   5    -0.193013562383E+03   -0.15454E-03   -0.25123E-03  6471   0.474E-01    0.435E-01
DAV:   6    -0.193013059077E+03    0.50331E-03   -0.11150E-03  6426   0.382E-01    0.133E-01
DAV:   7    -0.193013458357E+03   -0.39928E-03   -0.78354E-04  5517   0.326E-01    0.391E-01
DAV:   8    -0.193013036312E+03    0.42204E-03   -0.65214E-04  5238   0.298E-01    0.121E-01
DAV:   9    -0.193013061745E+03   -0.25433E-04   -0.16836E-04  3456   0.158E-01
  85 F= -.19301306E+03 E0= -.19300838E+03  d E =-.381978E-02  mag=    25.1263
quench:  g(F)=  0.000E+00 g(S)=  0.000E+00 dE (1.order)= 0.000E+00
 bond charge predicted
       N       E                     dE             d eps       ncg     rms          rms(c)
DAV:   1    -0.193015485803E+03   -0.24495E-02   -0.19073E-01  5976   0.832E-01    0.143E-01
DAV:   2    -0.193018667542E+03   -0.31817E-02   -0.10431E-02  8769   0.707E-01    0.101E+00
DAV:   3    -0.193017797888E+03    0.86965E-03   -0.11594E-02  6579   0.867E-01    0.944E-01
DAV:   4    -0.193016049480E+03    0.17484E-02   -0.47491E-03  6300   0.568E-01    0.237E-01
DAV:   5    -0.193016232909E+03   -0.18343E-03   -0.66445E-04  4854   0.268E-01    0.246E-01
DAV:   6    -0.193016067480E+03    0.16543E-03   -0.37661E-04  4104   0.224E-01    0.791E-02
DAV:   7    -0.193016114598E+03   -0.47119E-04   -0.15175E-04  3432   0.139E-01
  86 F= -.19301611E+03 E0= -.19301138E+03  d E =-.305285E-02  mag=    25.1256
quench:  g(F)=  0.000E+00 g(S)=  0.000E+00 dE (1.order)= 0.000E+00
 bond charge predicted
       N       E                     dE             d eps       ncg     rms          rms(c)
DAV:   1    -0.193019645571E+03   -0.35781E-02   -0.51087E-01  5976   0.135E+00    0.185E-01
DAV:   2    -0.193022153449E+03   -0.25079E-02   -0.17735E-02  7893   0.510E-01    0.630E-01
DAV:   3    -0.193023321497E+03   -0.11680E-02   -0.88683E-03  6615   0.782E-01    0.101E+00
DAV:   4    -0.193021777013E+03    0.15445E-02   -0.70736E-03  6408   0.676E-01    0.520E-01
DAV:   5    -0.193021441464E+03    0.33555E-03   -0.13604E-03  4959   0.370E-01    0.251E-01
DAV:   6    -0.193021302980E+03    0.13848E-03   -0.31491E-04  3501   0.226E-01    0.102E-01
DAV:   7    -0.193021437533E+03   -0.13455E-03   -0.25035E-04  3474   0.190E-01    0.212E-01
DAV:   8    -0.193021322117E+03    0.11542E-03   -0.23258E-04  3429   0.179E-01    0.706E-02
[...]
DAV:   2    -0.193366334867E+03   -0.21179E-02   -0.37858E-03  8058   0.560E-01    0.917E-01
DAV:   3    -0.193364956042E+03    0.13788E-02   -0.53884E-03  6372   0.635E-01    0.603E-01
DAV:   4    -0.193364281936E+03    0.67411E-03   -0.17632E-03  4122   0.345E-01    0.996E-02
DAV:   5    -0.193364376969E+03   -0.95033E-04   -0.17075E-04  3645   0.124E-01
 202 F= -.19336438E+03 E0= -.19335793E+03  d E =-.357694E-03  mag=    25.0696
quench:  g(F)=  0.000E+00 g(S)=  0.000E+00 dE (1.order)= 0.000E+00
 bond charge predicted
       N       E                     dE             d eps       ncg     rms          rms(c)
DAV:   1    -0.193364545784E+03   -0.26385E-03   -0.27885E-02  5976   0.329E-01    0.517E-02
DAV:   2    -0.193364920341E+03   -0.37456E-03   -0.11476E-03  6102   0.244E-01    0.334E-01
DAV:   3    -0.193364752920E+03    0.16742E-03   -0.79480E-04  3891   0.274E-01    0.261E-01
DAV:   4    -0.193364628276E+03    0.12464E-03   -0.40838E-04  3399   0.163E-01    0.766E-02
DAV:   5    -0.193364652910E+03   -0.24634E-04   -0.72722E-05  3366   0.851E-02
 203 F= -.19336465E+03 E0= -.19335825E+03  d E =-.275941E-03  mag=    25.0694
quench:  g(F)=  0.000E+00 g(S)=  0.000E+00 dE (1.order)= 0.000E+00
 bond charge predicted
       N       E                     dE             d eps       ncg     rms          rms(c)
DAV:   1    -0.193364913332E+03   -0.28506E-03   -0.61430E-02  5976   0.454E-01    0.636E-02
DAV:   2    -0.193365159245E+03   -0.24591E-03   -0.18843E-03  6411   0.162E-01    0.182E-01
DAV:   3    -0.193365145605E+03    0.13640E-04   -0.45324E-04  3885   0.209E-01
 204 F= -.19336515E+03 E0= -.19335886E+03  d E =-.492695E-03  mag=    25.0693
quench:  g(F)=  0.000E+00 g(S)=  0.000E+00 dE (1.order)= 0.000E+00
 bond charge predicted
       N       E                     dE             d eps       ncg     rms          rms(c)
DAV:   1    -0.193365421144E+03   -0.26190E-03   -0.91405E-02  6138   0.616E-01    0.347E-01
DAV:   2    -0.193577787184E+03   -0.21237E+00   -0.36656E-01  7218   0.473E+00    0.966E+00
DAV:   3    -0.193352459449E+03    0.22533E+00   -0.34939E-01  7023   0.467E+00    0.715E-01
DAV:   4    -0.193364974853E+03   -0.12515E-01   -0.45511E-03  8319   0.712E-01    0.350E-01
DAV:   5    -0.193366027492E+03   -0.10526E-02   -0.17401E-03  6507   0.444E-01    0.470E-01
DAV:   6    -0.193365447306E+03    0.58019E-03   -0.10414E-03  6147   0.371E-01    0.789E-02
DAV:   7    -0.193365516950E+03   -0.69644E-04   -0.17246E-04  3501   0.133E-01
 205 F= -.19336552E+03 E0= -.19335906E+03  d E =-.371345E-03  mag=    25.0687
quench:  g(F)=  0.000E+00 g(S)=  0.000E+00 dE (1.order)= 0.000E+00
 bond charge predicted
       N       E                     dE             d eps       ncg     rms          rms(c)
DAV:   1    -0.193365626413E+03   -0.17911E-03   -0.29479E-02  6117   0.312E-01    0.780E-02
DAV:   2    -0.193368752245E+03   -0.31258E-02   -0.60996E-03  7413   0.600E-01    0.116E+00
DAV:   3    -0.193365575819E+03    0.31764E-02   -0.57416E-03  6399   0.599E-01    0.230E-01
DAV:   4    -0.193365739034E+03   -0.16321E-03   -0.41911E-04  3681   0.220E-01    0.134E-01
DAV:   5    -0.193365761872E+03   -0.22839E-04   -0.18318E-04  3690   0.146E-01
 206 F= -.19336576E+03 E0= -.19335933E+03  d E =-.244922E-03  mag=    25.0686
quench:  g(F)=  0.000E+00 g(S)=  0.000E+00 dE (1.order)= 0.000E+00
 bond charge predicted
       N       E                     dE             d eps       ncg     rms          rms(c)
DAV:   1    -0.193365782364E+03   -0.43330E-04   -0.87984E-03  6408   0.228E-01    0.465E-02
DAV:   2    -0.193366453615E+03   -0.67125E-03   -0.12910E-03  5067   0.315E-01    0.510E-01
DAV:   3    -0.193366045045E+03    0.40857E-03   -0.18807E-03  3702   0.356E-01    0.340E-01
DAV:   4    -0.193365812656E+03    0.23239E-03   -0.49943E-04  3642   0.201E-01    0.504E-02
DAV:   5    -0.193365848774E+03   -0.36118E-04   -0.69052E-05  3519   0.823E-02
 207 F= -.19336585E+03 E0= -.19335945E+03  d E =-.869018E-04  mag=    25.0686
quench:  g(F)=  0.000E+00 g(S)=  0.000E+00 dE (1.order)= 0.000E+00
 bond charge predicted
       N       E                     dE             d eps       ncg     rms          rms(c)
DAV:   1    -0.193365839645E+03   -0.26988E-04   -0.17954E-02  6036   0.275E-01    0.424E-02
DAV:   2    -0.193366002469E+03   -0.16282E-03   -0.66491E-04  5400   0.159E-01    0.212E-01
DAV:   3    -0.193366003586E+03   -0.11174E-05   -0.60804E-04  3561   0.208E-01
 208 F= -.19336600E+03 E0= -.19335971E+03  d E =-.154812E-03  mag=    25.0687
quench:  g(F)=  0.000E+00 g(S)=  0.000E+00 dE (1.order)= 0.000E+00
 bond charge predicted
       N       E                     dE             d eps       ncg     rms          rms(c)
DAV:   1    -0.193365857522E+03    0.14495E-03   -0.39985E-02  6117   0.429E-01    0.905E-02
DAV:   2    -0.193369812742E+03   -0.39552E-02   -0.66257E-03  8019   0.720E-01    0.129E+00
DAV:   3    -0.193366382638E+03    0.34301E-02   -0.91321E-03  6552   0.785E-01    0.558E-01
DAV:   4    -0.193365936518E+03    0.44612E-03   -0.12264E-03  4134   0.321E-01    0.670E-02
DAV:   5    -0.193366034033E+03   -0.97515E-04   -0.17744E-04  3546   0.141E-01
 209 F= -.19336603E+03 E0= -.19335963E+03  d E =-.304466E-04  mag=    25.0690
quench:  g(F)=  0.000E+00 g(S)=  0.000E+00 dE (1.order)= 0.000E+00
 bond charge predicted
       N       E                     dE             d eps       ncg     rms          rms(c)
DAV:   1    -0.193365847167E+03    0.89351E-04   -0.55810E-02  6000   0.476E-01    0.814E-02
DAV:   2    -0.193366488985E+03   -0.64182E-03   -0.28010E-03  8379   0.302E-01    0.429E-01
DAV:   3    -0.193366371280E+03    0.11771E-03   -0.20220E-03  4932   0.385E-01    0.414E-01
DAV:   4    -0.193366092877E+03    0.27840E-03   -0.11570E-03  3642   0.289E-01    0.187E-01
DAV:   5    -0.193366089550E+03    0.33272E-05   -0.22778E-04  3375   0.161E-01
 210 F= -.19336609E+03 E0= -.19335968E+03  d E =-.555170E-04  mag=    25.0693
quench:  g(F)=  0.000E+00 g(S)=  0.000E+00 dE (1.order)= 0.000E+00
 bond charge predicted
       N       E                     dE             d eps       ncg     rms          rms(c)
DAV:   1    -0.193366004567E+03    0.88310E-04   -0.31207E-02  6081   0.357E-01    0.711E-02
DAV:   2    -0.193367423457E+03   -0.14189E-02   -0.34286E-03  7410   0.419E-01    0.755E-01
DAV:   3    -0.193366346400E+03    0.10771E-02   -0.34401E-03  5085   0.468E-01    0.354E-01
DAV:   4    -0.193366135295E+03    0.21110E-03   -0.63142E-04  3651   0.249E-01    0.102E-01
DAV:   5    -0.193366170902E+03   -0.35607E-04   -0.12518E-04  3432   0.114E-01
 211 F= -.19336617E+03 E0= -.19335977E+03  d E =-.813519E-04  mag=    25.0696
quench:  g(F)=  0.000E+00 g(S)=  0.000E+00 dE (1.order)= 0.000E+00
 bond charge predicted
       N       E                     dE             d eps       ncg     rms          rms(c)
DAV:   1    -0.193366112669E+03    0.22626E-04   -0.16093E-02  6009   0.264E-01    0.489E-02
DAV:   2    -0.193366750987E+03   -0.63832E-03   -0.14378E-03  5412   0.289E-01    0.506E-01
DAV:   3    -0.193366308174E+03    0.44281E-03   -0.16902E-03  3693   0.332E-01    0.269E-01
DAV:   4    -0.193366161863E+03    0.14631E-03   -0.32418E-04  3408   0.169E-01    0.519E-02
DAV:   5    -0.193366188668E+03   -0.26805E-04   -0.66620E-05  3420   0.824E-02
 212 F= -.19336619E+03 E0= -.19335981E+03  d E =-.177658E-04  mag=    25.0700
quench:  g(F)=  0.000E+00 g(S)=  0.000E+00 dE (1.order)= 0.000E+00
 bond charge predicted
       N       E                     dE             d eps       ncg     rms          rms(c)
DAV:   1    -0.193365967657E+03    0.19421E-03   -0.38522E-02  5976   0.377E-01    0.554E-02
DAV:   2    -0.193366210899E+03   -0.24324E-03   -0.12146E-03  5871   0.179E-01    0.226E-01
DAV:   3    -0.193366196618E+03    0.14281E-04   -0.65627E-04  3609   0.227E-01
 213 F= -.19336620E+03 E0= -.19335993E+03  d E =-.795016E-05  mag=    25.0702
quench:  g(F)=  0.000E+00 g(S)=  0.000E+00 dE (1.order)= 0.000E+00
 bond charge predicted
       N       E                     dE             d eps       ncg     rms          rms(c)
DAV:   1    -0.193365584148E+03    0.62675E-03   -0.10120E-01  6111   0.616E-01    0.172E-01
DAV:   2    -0.193400837307E+03   -0.35253E-01   -0.60082E-02  7524   0.198E+00    0.395E+00
DAV:   3    -0.193363908909E+03    0.36928E-01   -0.62470E-02  6978   0.197E+00    0.630E-01
DAV:   4    -0.193365661470E+03   -0.17526E-02   -0.21568E-03  7173   0.471E-01    0.140E-01
DAV:   5    -0.193366040044E+03   -0.37857E-03   -0.61513E-04  5193   0.265E-01    0.294E-01
DAV:   6    -0.193365804412E+03    0.23563E-03   -0.48082E-04  4461   0.246E-01    0.732E-02
DAV:   7    -0.193365858471E+03   -0.54059E-04   -0.11042E-04  3456   0.120E-01
 214 F= -.19336586E+03 E0= -.19335949E+03  d E =0.338147E-03  mag=    25.0710
quench:  g(F)=  0.000E+00 g(S)=  0.000E+00 dE (1.order)= 0.000E+00
 bond charge predicted
       N       E                     dE             d eps       ncg     rms          rms(c)
DAV:   1    -0.193365004457E+03    0.79995E-03   -0.16041E-01  6006   0.735E-01    0.111E-01
DAV:   2    -0.193367268491E+03   -0.22640E-02   -0.76591E-03  8697   0.507E-01    0.916E-01
DAV:   3    -0.193365558635E+03    0.17099E-02   -0.51346E-03  6441   0.572E-01    0.344E-01
DAV:   4    -0.193365559700E+03   -0.10650E-05   -0.99523E-04  4839   0.327E-01
 215 F= -.19336556E+03 E0= -.19335923E+03  d E =0.298772E-03  mag=    25.0717
quench:  g(F)=  0.000E+00 g(S)=  0.000E+00 dE (1.order)= 0.000E+00
 bond charge predicted
       N       E                     dE             d eps       ncg     rms          rms(c)
DAV:   1    -0.193364888948E+03    0.66969E-03   -0.11390E-01  5988   0.630E-01    0.186E-01
DAV:   2    -0.193370138316E+03   -0.52494E-02   -0.11478E-02  8157   0.107E+00    0.130E+00
DAV:   3    -0.193365135793E+03    0.50025E-02   -0.67869E-03  6591   0.100E+00    0.252E-01
DAV:   4    -0.193365460804E+03   -0.32501E-03   -0.12277E-03  6066   0.328E-01    0.364E-01
DAV:   5    -0.193365621472E+03   -0.16067E-03   -0.21111E-03  3870   0.370E-01    0.448E-01
DAV:   6    -0.193365181941E+03    0.43953E-03   -0.70646E-04  3909   0.233E-01    0.837E-02
DAV:   7    -0.193365260986E+03   -0.79045E-04   -0.19952E-04  3657   0.157E-01
 216 F= -.19336526E+03 E0= -.19335896E+03  d E =0.298714E-03  mag=    25.0723
quench:  g(F)=  0.000E+00 g(S)=  0.000E+00 dE (1.order)= 0.000E+00
 bond charge predicted
       N       E                     dE             d eps       ncg     rms          rms(c)
DAV:   1    -0.193365275093E+03   -0.93153E-04   -0.40048E-02  6105   0.377E-01    0.127E-01
DAV:   2    -0.193369157432E+03   -0.38823E-02   -0.74520E-03  7515   0.832E-01    0.119E+00
DAV:   3    -0.193367528145E+03    0.16293E-02   -0.13294E-02  6549   0.960E-01    0.105E+00
DAV:   4    -0.193365263653E+03    0.22645E-02   -0.39071E-03  6039   0.552E-01    0.123E-01
DAV:   5    -0.193365443709E+03   -0.18006E-03   -0.33364E-04  4077   0.190E-01    0.145E-01
DAV:   6    -0.193365397865E+03    0.45844E-04   -0.18202E-04  3663   0.135E-01
 217 F= -.19336540E+03 E0= -.19335904E+03  d E =-.136879E-03  mag=    25.0729
quench:  g(F)=  0.000E+00 g(S)=  0.000E+00 dE (1.order)= 0.000E+00
 bond charge predicted
       N       E                     dE             d eps       ncg     rms          rms(c)
DAV:   1    -0.193365128351E+03    0.31536E-03   -0.47158E-02  6024   0.414E-01    0.105E-01
DAV:   2    -0.193367080432E+03   -0.19521E-02   -0.35973E-03  7515   0.634E-01    0.808E-01
DAV:   3    -0.193365434836E+03    0.16456E-02   -0.30458E-03  6390   0.624E-01    0.403E-01
DAV:   4    -0.193365246581E+03    0.18826E-03   -0.10215E-03  3783   0.260E-01    0.157E-01
DAV:   5    -0.193365264096E+03   -0.17515E-04   -0.25545E-04  3537   0.163E-01
 218 F= -.19336526E+03 E0= -.19335886E+03  d E =0.133769E-03  mag=    25.0733
quench:  g(F)=  0.000E+00 g(S)=  0.000E+00 dE (1.order)= 0.000E+00
 bond charge predicted
       N       E                     dE             d eps       ncg     rms          rms(c)
DAV:   1    -0.193364597935E+03    0.64865E-03   -0.11987E-01  5976   0.638E-01    0.108E-01
DAV:   2    -0.193365828722E+03   -0.12308E-02   -0.44178E-03  8505   0.476E-01    0.580E-01
DAV:   3    -0.193365011167E+03    0.81756E-03   -0.19820E-03  6375   0.477E-01    0.294E-01
DAV:   4    -0.193365136398E+03   -0.12523E-03   -0.14240E-03  3666   0.305E-01    0.367E-01
DAV:   5    -0.193364983978E+03    0.15242E-03   -0.82087E-04  3642   0.278E-01    0.212E-01
DAV:   6    -0.193364896185E+03    0.87793E-04   -0.17786E-04  3441   0.168E-01
 219 F= -.19336490E+03 E0= -.19335859E+03  d E =0.367912E-03  mag=    25.0738
quench:  g(F)=  0.000E+00 g(S)=  0.000E+00 dE (1.order)= 0.000E+00
 bond charge predicted
       N       E                     dE             d eps       ncg     rms          rms(c)
DAV:   1    -0.193363885301E+03    0.10987E-02   -0.22328E-01  5976   0.867E-01    0.148E-01
DAV:   2    -0.193366087510E+03   -0.22022E-02   -0.83363E-03  8226   0.626E-01    0.797E-01
DAV:   3    -0.193364851617E+03    0.12359E-02   -0.42149E-03  6450   0.658E-01    0.537E-01
DAV:   4    -0.193364575502E+03    0.27611E-03   -0.26748E-03  5469   0.417E-01    0.336E-01
DAV:   5    -0.193364630414E+03   -0.54912E-04   -0.88338E-04  4470   0.299E-01
 220 F= -.19336463E+03 E0= -.19335840E+03  d E =0.265770E-03  mag=    25.0741
quench:  g(F)=  0.000E+00 g(S)=  0.000E+00 dE (1.order)= 0.000E+00
 bond charge predicted
       N       E                     dE             d eps       ncg     rms          rms(c)
DAV:   1    -0.193362910889E+03    0.16646E-02   -0.24400E-01  6111   0.927E-01    0.167E-01
DAV:   2    -0.193365444005E+03   -0.25331E-02   -0.10989E-02  8649   0.628E-01    0.854E-01
DAV:   3    -0.193365232273E+03    0.21173E-03   -0.83575E-03  6993   0.798E-01    0.897E-01
DAV:   4    -0.193363808578E+03    0.14237E-02   -0.56337E-03  6309   0.617E-01    0.402E-01
DAV:   5    -0.193363758091E+03    0.50487E-04   -0.96801E-04  5346   0.315E-01
 221 F= -.19336376E+03 E0= -.19335749E+03  d E =0.872323E-03  mag=    25.0747
quench:  g(F)=  0.000E+00 g(S)=  0.000E+00 dE (1.order)= 0.000E+00
 bond charge predicted
       N       E                     dE             d eps       ncg     rms          rms(c)
DAV:   1    -0.193363758795E+03    0.49783E-04   -0.73891E-02  6072   0.528E-01    0.123E-01
DAV:   2    -0.193367192568E+03   -0.34338E-02   -0.82752E-03  8871   0.713E-01    0.113E+00
DAV:   3    -0.193365330267E+03    0.18623E-02   -0.10075E-02  6516   0.828E-01    0.816E-01
DAV:   4    -0.193363994112E+03    0.13362E-02   -0.30904E-03  5502   0.497E-01    0.175E-01
DAV:   5    -0.193364176159E+03   -0.18205E-03   -0.40933E-04  4383   0.207E-01    0.226E-01
DAV:   6    -0.193364043262E+03    0.13290E-03   -0.29989E-04  4077   0.182E-01    0.506E-02
DAV:   7    -0.193364102155E+03   -0.58893E-04   -0.10748E-04  3456   0.128E-01
 222 F= -.19336410E+03 E0= -.19335781E+03  d E =-.344064E-03  mag=    25.0752
quench:  g(F)=  0.000E+00 g(S)=  0.000E+00 dE (1.order)= 0.000E+00
 bond charge predicted
       N       E                     dE             d eps       ncg     rms          rms(c)
DAV:   1    -0.193363897173E+03    0.14609E-03   -0.19171E-02  6111   0.283E-01    0.539E-02
DAV:   2    -0.193365218603E+03   -0.13214E-02   -0.24249E-03  5040   0.403E-01    0.752E-01
DAV:   3    -0.193364000705E+03    0.12179E-02   -0.29823E-03  4248   0.443E-01    0.270E-01
DAV:   4    -0.193363942024E+03    0.58682E-04   -0.36879E-04  3465   0.181E-01
 223 F= -.19336394E+03 E0= -.19335766E+03  d E =0.160131E-03  mag=    25.0754
quench:  g(F)=  0.000E+00 g(S)=  0.000E+00 dE (1.order)= 0.000E+00
 bond charge predicted
       N       E                     dE             d eps       ncg     rms          rms(c)
DAV:   1    -0.193363555394E+03    0.44531E-03   -0.58069E-02  5976   0.447E-01    0.112E-01
DAV:   2    -0.193365581422E+03   -0.20260E-02   -0.39232E-03  7317   0.650E-01    0.815E-01
DAV:   3    -0.193363645282E+03    0.19361E-02   -0.24632E-03  6306   0.612E-01    0.222E-01
DAV:   4    -0.193363802092E+03   -0.15681E-03   -0.79778E-04  3753   0.234E-01    0.279E-01
DAV:   5    -0.193363703573E+03    0.98518E-04   -0.52113E-04  3525   0.199E-01
 224 F= -.19336370E+03 E0= -.19335747E+03  d E =0.238450E-03  mag=    25.0756
quench:  g(F)=  0.000E+00 g(S)=  0.000E+00 dE (1.order)= 0.000E+00
 bond charge predicted
       N       E                     dE             d eps       ncg     rms          rms(c)
DAV:   1    -0.193362959898E+03    0.84219E-03   -0.12235E-01  6183   0.644E-01    0.123E-01
DAV:   2    -0.193365139189E+03   -0.21793E-02   -0.62532E-03  8670   0.623E-01    0.841E-01
DAV:   3    -0.193364684552E+03    0.45464E-03   -0.78180E-03  6417   0.749E-01    0.856E-01
DAV:   4    -0.193363150020E+03    0.15345E-02   -0.30418E-03  5592   0.478E-01    0.152E-01
DAV:   5    -0.193363380969E+03   -0.23095E-03   -0.45288E-04  4332   0.238E-01    0.221E-01
DAV:   6    -0.193363260914E+03    0.12005E-03   -0.26574E-04  3591   0.189E-01    0.771E-02
DAV:   7    -0.193363285701E+03   -0.24787E-04   -0.12265E-04  3546   0.123E-01
 225 F= -.19336329E+03 E0= -.19335703E+03  d E =0.417872E-03  mag=    25.0762
quench:  g(F)=  0.000E+00 g(S)=  0.000E+00 dE (1.order)= 0.000E+00
 bond charge predicted
       N       E                     dE             d eps       ncg     rms          rms(c)
DAV:   1    -0.193362288305E+03    0.97261E-03   -0.16181E-01  5976   0.722E-01    0.114E-01
DAV:   2    -0.193362988683E+03   -0.70038E-03   -0.53026E-03  7854   0.302E-01    0.352E-01
DAV:   3    -0.193363150027E+03   -0.16134E-03   -0.19991E-03  6309   0.415E-01    0.488E-01
DAV:   4    -0.193363019116E+03    0.13091E-03   -0.25072E-03  3960   0.408E-01    0.410E-01
DAV:   5    -0.193362735316E+03    0.28380E-03   -0.76607E-04  3789   0.258E-01    0.170E-01
DAV:   6    -0.193362687316E+03    0.48000E-04   -0.15741E-04  3498   0.167E-01
 226 F= -.19336269E+03 E0= -.19335643E+03  d E =0.598385E-03  mag=    25.0762
quench:  g(F)=  0.000E+00 g(S)=  0.000E+00 dE (1.order)= 0.000E+00
 bond charge predicted
       N       E                     dE             d eps       ncg     rms          rms(c)
DAV:   1    -0.193362816162E+03   -0.80846E-04   -0.40105E-02  6066   0.376E-01    0.191E-01
DAV:   2    -0.193371339572E+03   -0.85234E-02   -0.13249E-02  6921   0.129E+00    0.176E+00
DAV:   3    -0.193367270276E+03    0.40693E-02   -0.24720E-02  6597   0.143E+00    0.151E+00
DAV:   4    -0.193362533898E+03    0.47364E-02   -0.98299E-03  6453   0.811E-01    0.215E-01
DAV:   5    -0.193362910671E+03   -0.37677E-03   -0.55830E-04  5067   0.234E-01    0.145E-01
DAV:   6    -0.193362927474E+03   -0.16803E-04   -0.26098E-04  3615   0.155E-01
 227 F= -.19336293E+03 E0= -.19335664E+03  d E =-.240158E-03  mag=    25.0763
quench:  g(F)=  0.000E+00 g(S)=  0.000E+00 dE (1.order)= 0.000E+00
 bond charge predicted
       N       E                     dE             d eps       ncg     rms          rms(c)
DAV:   1    -0.193362686071E+03    0.22460E-03   -0.25106E-02  6108   0.324E-01    0.620E-02
DAV:   2    -0.193363237214E+03   -0.55114E-03   -0.12892E-03  6363   0.322E-01    0.437E-01
DAV:   3    -0.193362926389E+03    0.31083E-03   -0.12929E-03  4275   0.351E-01    0.337E-01
DAV:   4    -0.193362732323E+03    0.19407E-03   -0.59964E-04  3519   0.199E-01    0.690E-02
DAV:   5    -0.193362772987E+03   -0.40664E-04   -0.79969E-05  3537   0.884E-02
 228 F= -.19336277E+03 E0= -.19335646E+03  d E =0.154487E-03  mag=    25.0765
quench:  g(F)=  0.000E+00 g(S)=  0.000E+00 dE (1.order)= 0.000E+00
 bond charge predicted
       N       E                     dE             d eps       ncg     rms          rms(c)
DAV:   1    -0.193362342321E+03    0.39000E-03   -0.59964E-02  5994   0.459E-01    0.704E-02
DAV:   2    -0.193362722446E+03   -0.38012E-03   -0.18315E-03  7317   0.240E-01    0.305E-01
DAV:   3    -0.193362688395E+03    0.34051E-04   -0.99798E-04  4437   0.308E-01
