 vasp.5.4.4.18Apr17-6-g9f103f2a35 (build Feb 06 2024 13:54:16) complex          
  
 POSCAR found type information on POSCAR  Pd N  O 
 04/POSCAR found :  3 types and      40 ions
 scaLAPACK will be used

 ----------------------------------------------------------------------------- 
|                                                                             |
|  ADVICE TO THIS USER RUNNING 'VASP/VAMP'   (HEAR YOUR MASTER'S VOICE ...):  |
|                                                                             |
|      You enforced a specific xc-type in the INCAR file,                     |
|      a different type was found on the POTCAR file                          |
|          I HOPE YOU KNOW, WHAT YOU ARE  DOING                               |
|                                                                             |
 ----------------------------------------------------------------------------- 

 LDA part: xc-table for Pade appr. of Perdew
 POSCAR found type information on POSCAR  Pd N  O 
 00/POSCAR found :  3 types and      40 ions
 POSCAR found type information on POSCAR  Pd N  O 
 06/POSCAR found :  3 types and      40 ions
 Jacobian:    21.0960049830057     
 POSCAR, INCAR and KPOINTS ok, starting setup
 FFT: planning ...
 WAVECAR not read
 entering main loop
       N       E                     dE             d eps       ncg     rms          rms(c)
  Solvation turned off during non-self-consistent phase (first NELMDL steps)
DAV:   1     0.266376245441E+04    0.26638E+04   -0.17927E+05 11097   0.149E+03
DAV:   2    -0.107505626027E+02   -0.26745E+04   -0.25078E+04 12243   0.321E+02
DAV:   3    -0.183660727804E+03   -0.17291E+03   -0.15613E+03 13050   0.728E+01
DAV:   4    -0.191295523392E+03   -0.76348E+01   -0.71280E+01 12996   0.144E+01
DAV:   5    -0.191507489454E+03   -0.21197E+00   -0.20777E+00 13656   0.254E+00    0.377E+01
 Begin Solvation calculations
  rms_SCF =    2.30490706936974      tol =   0.230490706936974     
 Begin minimization
 Creating dielectric and ionic cavities
  area:      180.820821538116     
  volume:    806.587926096516     
  Acav:     9.493093130751085E-002
  Solving linear dielectric/ionic screening model
        iter                  A_solv                     rms
   LPB:       -0.617992454108541E+03   0.348300678518136E+03
   LPB:    0  -0.263914037138335E+01   0.124323893195840E+02  -0.622300E+01   0.000000E+00   0.317801E+02  -0.197768E+03
   LPB:    1  -0.707814528941412E+00   0.562420564193103E+01   0.144209E-01   0.000000E+00   0.861942E+02  -0.361735E-14
   LPB:    2  -0.413899029154663E+00   0.180277439425252E+01   0.138862E-01   0.158043E+00   0.110065E+03   0.783152E-14
   LPB:    3  -0.269339274286153E+00   0.804348041138790E+00   0.239647E-01   0.284994E+00   0.178388E+03   0.290726E-14
   LPB:    4  -0.211282779658063E+00   0.761779396326956E+00   0.287183E-01   0.335133E+00   0.662764E+02   0.245070E-14
   LPB:    5  -0.184071902822893E+00   0.703960853854924E+00   0.238808E-01   0.563640E+00   0.362980E+03   0.133246E-13
   LPB:    6  -0.165870961405858E+00   0.210140586079568E+00   0.283415E-01   0.563608E+00   0.578433E+02   0.212573E-13
  Finished solving LPB equations
  A_corr:   -7.094003009834715E-002
 End minimization
 Ecorr=   2221.27909743051     
 A_corr= -7.094003009834715E-002
 Ecorr_band=  -2221.35003746060     
 End Solvation calculations
RMM:   6    -0.186668350902E+03    0.48391E+01   -0.40938E+01 11096   0.137E+01    0.252E+01
 Begin Solvation calculations
  rms_SCF =    2.30490706936974      tol =   0.230490706936974     
 Begin minimization
 Creating dielectric and ionic cavities
  area:      178.522189474546     
  volume:    818.911901866594     
  Acav:     9.372414947413647E-002
  Solving linear dielectric/ionic screening model
        iter                  A_solv                     rms
   LPB:       -0.325028703261191E+01   0.289177316889095E+02
   LPB:    0  -0.141280476737752E+01   0.162780438317045E+02   0.343189E+00   0.000000E+00   0.312023E+02   0.107083E+02
   LPB:    1  -0.394317986712367E+00   0.238669027593902E+01   0.100312E-01   0.000000E+00   0.684022E+02   0.161236E-15
   LPB:    2  -0.220878980124283E+00   0.982474045353545E+00   0.175112E-01   0.975498E-01   0.153421E+03   0.125454E-13
   LPB:    3  -0.185946766704683E+00   0.638325654726191E+00   0.194191E-01   0.181621E+00   0.180949E+03   0.113089E-13
   LPB:    4  -0.167905481384783E+00   0.437039297797212E+00   0.250247E-01   0.400777E+00   0.270311E+03   0.105738E-13
   LPB:    5  -0.158595070008376E+00   0.181522066456146E+00   0.291984E-01   0.442294E+00   0.122486E+03   0.100758E-13
  Finished solving LPB equations
  A_corr:   -6.487092053424000E-002
 End minimization
 Ecorr=   2135.30556063679     
 A_corr= -6.487092053424000E-002
 Ecorr_band=  -2135.37043155732     
 End Solvation calculations
RMM:   7    -0.194454878492E+03   -0.77865E+01   -0.18886E+01 11101   0.723E+00    0.328E+01
 Begin Solvation calculations
  rms_SCF =    2.30490706936974      tol =   0.230490706936974     
 Begin minimization
 Creating dielectric and ionic cavities
  area:      190.355966083206     
  volume:    818.003612321207     
  Acav:     9.993688219368310E-002
  Solving linear dielectric/ionic screening model
        iter                  A_solv                     rms
   LPB:       -0.125443358867219E+02   0.635335832568170E+02
   LPB:    0  -0.125257226950058E+02   0.634130847370661E+02  -0.345172E-01   0.000000E+00   0.312449E+02  -0.107849E+01
   LPB:    1  -0.136467537079490E+01   0.620897659689951E+01   0.892730E-02   0.000000E+00   0.694635E+02  -0.100048E-15
   LPB:    2  -0.420158839480669E+00   0.122603920406655E+01   0.166283E-01   0.454336E-01   0.114060E+03   0.160290E-13
   LPB:    3  -0.272658460597999E+00   0.393974822857468E+00   0.223505E-01   0.116183E+00   0.171407E+03   0.288568E-13
   LPB:    4  -0.232856966967217E+00   0.196821338540561E+00   0.279004E-01   0.216164E+00   0.213497E+03   0.306504E-13
  Finished solving LPB equations
  A_corr:   -0.132920084773534     
 End minimization
 Ecorr=   2098.95792838747     
 A_corr= -0.132920084773534     
 Ecorr_band=  -2099.09084847224     
 End Solvation calculations
RMM:   8    -0.209057589817E+03   -0.14603E+02   -0.16319E+01 11101   0.708E+00    0.415E+01
 Begin Solvation calculations
  rms_SCF =    2.30490706936974      tol =   0.230490706936974     
 Begin minimization
 Creating dielectric and ionic cavities
  area:      228.228237693027     
  volume:    813.454542977117     
  Acav:     0.119819824788839     
  Solving linear dielectric/ionic screening model
        iter                  A_solv                     rms
   LPB:       -0.131149992461212E+02   0.645991997469238E+02
   LPB:    0  -0.131149990197295E+02   0.645990123777416E+02  -0.119972E-03   0.000000E+00   0.314582E+02  -0.377409E-02
   LPB:    1  -0.129779253497800E+01   0.568744320027474E+01   0.894228E-02   0.000000E+00   0.707942E+02  -0.130484E-18
   LPB:    2  -0.394737765781597E+00   0.101758670778565E+01   0.153379E-01   0.445535E-01   0.156569E+03   0.197275E-14
   LPB:    3  -0.264606506973417E+00   0.445948737321348E+00   0.225198E-01   0.981451E-01   0.267998E+03   0.618702E-15
   LPB:    4  -0.236779710982880E+00   0.239128452666259E+00   0.253881E-01   0.189678E+00   0.245159E+03   0.733220E-15
   LPB:    5  -0.226209137947743E+00   0.367535465806841E+00   0.275094E-01   0.350578E+00   0.377379E+03  -0.381878E-14
   LPB:    6  -0.220565398691571E+00   0.260705929659258E+00   0.274833E-01   0.534417E+00   0.535911E+02  -0.519954E-14
   LPB:    7  -0.216610944678839E+00   0.182291476488196E+00   0.290427E-01   0.663058E+00   0.269328E+03  -0.185824E-14
  Finished solving LPB equations
  A_corr:   -9.679111989000042E-002
 End minimization
 Ecorr=   2063.30287552687     
 A_corr= -9.679111989000042E-002
 Ecorr_band=  -2063.39966664676     
 End Solvation calculations
RMM:   9    -0.192498826063E+03    0.16559E+02   -0.11884E+01 11103   0.606E+00    0.250E+01
 Begin Solvation calculations
  rms_SCF =    2.30490706936974      tol =   0.230490706936974     
 Begin minimization
 Creating dielectric and ionic cavities
  area:      171.272556253010     
  volume:    806.037676139630     
  Acav:     8.991809203283010E-002
  Solving linear dielectric/ionic screening model
        iter                  A_solv                     rms
   LPB:       -0.558570616658202E+00   0.102737543817069E+02
   LPB:    0  -0.525654117030430E+00   0.931919145968597E+01  -0.454954E-01   0.000000E+00   0.318059E+02  -0.144702E+01
   LPB:    1  -0.264574270997153E+00   0.110276555858621E+01   0.917248E-02   0.000000E+00   0.668148E+02  -0.926273E-16
   LPB:    2  -0.232256420104674E+00   0.324552550840040E+00   0.174640E-01   0.650147E-01   0.965465E+02  -0.926415E-14
   LPB:    3  -0.225094617865850E+00   0.334728343047216E+00   0.228277E-01   0.169536E+00   0.200482E+03  -0.935466E-14
   LPB:    4  -0.221200341649288E+00   0.181171348446502E+00   0.264326E-01   0.469598E+00   0.754913E+02  -0.100186E-13
  Finished solving LPB equations
  A_corr:   -0.131282249616458     
 End minimization
 Ecorr=   2051.29980627237     
 A_corr= -0.131282249616458     
 Ecorr_band=  -2051.43108852199     
 End Solvation calculations
RMM:  10    -0.183587692703E+03    0.89111E+01   -0.66078E+00 11102   0.498E+00    0.118E+01
 Begin Solvation calculations
  rms_SCF =    2.30490706936974      tol =   0.230490706936974     
 Begin minimization
 Creating dielectric and ionic cavities
  area:      178.152843781042     
  volume:    803.617951227491     
  Acav:     9.353024298504725E-002
  Solving linear dielectric/ionic screening model
        iter                  A_solv                     rms
   LPB:       -0.271770273805799E+00   0.253100154599800E+01
   LPB:    0  -0.250151629288027E+00   0.123984236852106E+01   0.368046E-01   0.000000E+00   0.319194E+02   0.117478E+01
   LPB:    1  -0.226900626119428E+00   0.737051946366008E+00   0.140334E-01   0.000000E+00   0.151961E+03  -0.872419E-17
   LPB:    2  -0.219729786154607E+00   0.246595368612306E+00   0.162113E-01   0.266976E+00   0.208105E+03  -0.604538E-15
   LPB:    3  -0.216351728528863E+00   0.178915443367072E+00   0.266624E-01   0.286428E+00   0.396215E+03  -0.367871E-15
   LPB:    4  -0.213468293970980E+00   0.109564500549209E+00   0.396606E-01   0.573829E+00   0.119737E+03  -0.270999E-15
  Finished solving LPB equations
  A_corr:   -0.119938050985933     
 End minimization
 Ecorr=   2036.28057131538     
 A_corr= -0.119938050985933     
 Ecorr_band=  -2036.40050936637     
 End Solvation calculations
RMM:  11    -0.183844020787E+03   -0.25633E+00   -0.39274E+00 11107   0.366E+00    0.134E+01
 Begin Solvation calculations
  rms_SCF =    2.30490706936974      tol =   0.230490706936974     
 Begin minimization
 Creating dielectric and ionic cavities
  area:      161.759082050567     
  volume:    801.046369647818     
  Acav:     8.492351807654785E-002
  Solving linear dielectric/ionic screening model
        iter                  A_solv                     rms
   LPB:       -0.262171509428406E+00   0.311456140259442E+01
   LPB:    0  -0.232047703462305E+00   0.202584422569755E+01   0.433635E-01   0.000000E+00   0.320399E+02   0.138936E+01
   LPB:    1  -0.217472442197243E+00   0.314288496715057E+00   0.101586E-01   0.000000E+00   0.688286E+02   0.924961E-17
   LPB:    2  -0.213635486847965E+00   0.113715754064397E+00   0.193975E-01   0.137866E+00   0.209347E+03   0.372267E-16
   LPB:    3  -0.211788028921898E+00   0.646425483458705E-01   0.342483E-01   0.272706E+00   0.146307E+03  -0.271612E-15
   LPB:    4  -0.210086496986137E+00   0.113733261953131E+00   0.430877E-01   0.732068E+00   0.214991E+03  -0.218497E-15
  Finished solving LPB equations
  A_corr:   -0.125162978909589     
 End minimization
 Ecorr=   2014.98924912562     
 A_corr= -0.125162978909589     
 Ecorr_band=  -2015.11441210453     
 End Solvation calculations
RMM:  12    -0.182325044525E+03    0.15190E+01   -0.14648E+00 11113   0.231E+00    0.828E+00
 Begin Solvation calculations
  rms_SCF =    2.23965139711315      tol =   0.223965139711315     
 Begin minimization
 Creating dielectric and ionic cavities
  area:      175.214570704279     
  volume:    799.369010218297     
  Acav:     9.198764961974652E-002
  Solving linear dielectric/ionic screening model
        iter                  A_solv                     rms
   LPB:       -0.234910647944976E+00   0.219193659731367E+01
   LPB:    0  -0.228965059876934E+00   0.144166910783834E+01  -0.192413E-01   0.000000E+00   0.321185E+02  -0.618003E+00
   LPB:    1  -0.217551947596634E+00   0.316394910253236E+00   0.105767E-01   0.000000E+00   0.798145E+02   0.187568E-16
   LPB:    2  -0.215999536337874E+00   0.102679047579974E+00   0.153966E-01   0.934386E-01   0.153813E+03  -0.374001E-14
   LPB:    3  -0.215221654333734E+00   0.126485543821364E+00   0.277324E-01   0.278191E+00   0.285697E+03  -0.383985E-14
   LPB:    4  -0.214507494552006E+00   0.113726571078398E+00   0.309152E-01   0.823564E+00   0.560509E+02  -0.390713E-14
  Finished solving LPB equations
  A_corr:   -0.122519844932259     
 End minimization
 Ecorr=   2012.26737975425     
 A_corr= -0.122519844932259     
 Ecorr_band=  -2012.38989959918     
 End Solvation calculations
RMM:  13    -0.181790027387E+03    0.53502E+00   -0.45576E-01 11096   0.129E+00    0.484E+00
 Begin Solvation calculations
  rms_SCF =    2.23965139711315      tol =   0.223965139711315     
 Begin minimization
 Creating dielectric and ionic cavities
  area:      161.161012632415     
  volume:    798.212920242023     
  Acav:     8.460953163201800E-002
  Solving linear dielectric/ionic screening model
        iter                  A_solv                     rms
   LPB:       -0.228932522231427E+00   0.222270765022021E+01
   LPB:    0  -0.217548627781813E+00   0.132127292635826E+01   0.266021E-01   0.000000E+00   0.321727E+02   0.855863E+00
   LPB:    1  -0.211434658570493E+00   0.174709310633611E+00   0.996994E-02   0.000000E+00   0.656163E+02  -0.357150E-16
   LPB:    2  -0.210303537965534E+00   0.879742005823078E-01   0.173474E-01   0.106327E+00   0.196934E+03   0.676095E-15
   LPB:    3  -0.209852537139265E+00   0.836186344700171E-01   0.279140E-01   0.247789E+00   0.138443E+03   0.602374E-15
   LPB:    4  -0.209473825500231E+00   0.941383844018722E-01   0.315941E-01   0.741903E+00   0.356270E+03   0.756351E-15
  Finished solving LPB equations
  A_corr:   -0.124864293868213     
 End minimization
 Ecorr=   2004.78912023819     
 A_corr= -0.124864293868213     
 Ecorr_band=  -2004.91398453206     
 End Solvation calculations
RMM:  14    -0.181727769560E+03    0.62258E-01   -0.22094E-01 11092   0.868E-01    0.413E+00
 Begin Solvation calculations
  rms_SCF =    2.23965139711315      tol =   0.223965139711315     
 Begin minimization
 Creating dielectric and ionic cavities
  area:      167.725298444734     
  volume:    795.080260919582     
  Acav:     8.805578168348543E-002
  Solving linear dielectric/ionic screening model
        iter                  A_solv                     rms
   LPB:       -0.239845185802920E+00   0.235674014023315E+01
   LPB:    0  -0.233887938326654E+00   0.153403790775962E+01  -0.192002E-01   0.000000E+00   0.323196E+02  -0.620542E+00
   LPB:    1  -0.219105780031582E+00   0.380162380758179E+00   0.106730E-01   0.000000E+00   0.831903E+02   0.370358E-17
   LPB:    2  -0.217274482006862E+00   0.116433529673555E+00   0.149975E-01   0.881638E-01   0.137973E+03  -0.245940E-14
   LPB:    3  -0.216743766450922E+00   0.105806616834429E+00   0.204280E-01   0.212763E+00   0.295252E+03  -0.253249E-14
   LPB:    4  -0.216346185623608E+00   0.747693752417356E-01   0.276802E-01   0.552865E+00   0.880134E+02  -0.257560E-14
  Finished solving LPB equations
  A_corr:   -0.128290403940123     
 End minimization
 Ecorr=   2002.77755945959     
 A_corr= -0.128290403940123     
 Ecorr_band=  -2002.90584986353     
 End Solvation calculations
RMM:  15    -0.181654342370E+03    0.73427E-01   -0.11052E-01 11099   0.584E-01    0.343E+00
 Begin Solvation calculations
  rms_SCF =    2.23965139711315      tol =   0.223965139711315     
 Begin minimization
 Creating dielectric and ionic cavities
  area:      159.078000547734     
  volume:    793.700078869662     
  Acav:     8.351595028756054E-002
  Solving linear dielectric/ionic screening model
        iter                  A_solv                     rms
   LPB:       -0.224969820191750E+00   0.155212664334723E+01
   LPB:    0  -0.220539779508025E+00   0.118861521016481E+01   0.165406E-01   0.000000E+00   0.323843E+02   0.535656E+00
   LPB:    1  -0.215308297711456E+00   0.196109105312267E+00   0.104598E-01   0.000000E+00   0.671253E+02  -0.292628E-16
   LPB:    2  -0.214246762893725E+00   0.497426983491629E-01   0.158574E-01   0.133845E+00   0.230176E+03  -0.949361E-16
   LPB:    3  -0.213831741114406E+00   0.313677595969530E-01   0.326984E-01   0.189601E+00   0.213353E+03  -0.365187E-15
   LPB:    4  -0.213466893079779E+00   0.678539933642246E-01   0.437723E-01   0.656701E+00   0.372178E+03  -0.481067E-15
  Finished solving LPB equations
  A_corr:   -0.129950942792218     
 End minimization
 Ecorr=   1997.08595643883     
 A_corr= -0.129950942792218     
 Ecorr_band=  -1997.21590738162     
 End Solvation calculations
RMM:  16    -0.181608061852E+03    0.46281E-01   -0.59506E-02 11093   0.487E-01    0.236E+00
 Begin Solvation calculations
  rms_SCF =   0.871755320366536      tol =   8.717553203665358E-002
 Begin minimization
 Creating dielectric and ionic cavities
  area:      158.799505157438     
  volume:    790.109067842316     
  Acav:     8.336974020765500E-002
  Solving linear dielectric/ionic screening model
        iter                  A_solv                     rms
   LPB:       -0.230349841489025E+00   0.662432812630268E+00
   LPB:    0  -0.228611138942682E+00   0.849227965708996E+00   0.103356E-01   0.000000E+00   0.325527E+02   0.336450E+00
   LPB:    1  -0.217375927778180E+00   0.327606693287599E+00   0.139664E-01   0.000000E+00   0.128584E+03   0.240654E-17
   LPB:    2  -0.215829131454495E+00   0.799296838596464E-01   0.157302E-01   0.122237E+00   0.101316E+03  -0.102265E-14
   LPB:    3  -0.215324958764564E+00   0.377786423694571E-01   0.288116E-01   0.177957E+00   0.204047E+03  -0.124724E-14
   LPB:    4  -0.214962290945777E+00   0.590928593705179E-01   0.380110E-01   0.545240E+00   0.316827E+03  -0.114317E-14
  Finished solving LPB equations
  A_corr:   -0.131592550738122     
 End minimization
 Ecorr=   1989.77620832497     
 A_corr= -0.131592550738122     
 Ecorr_band=  -1989.90780087571     
 End Solvation calculations
RMM:  17    -0.181589215002E+03    0.18847E-01   -0.69193E-02 11096   0.506E-01    0.215E+00
 Begin Solvation calculations
  rms_SCF =   0.838977338102701      tol =   8.389773381027008E-002
 Begin minimization
 Creating dielectric and ionic cavities
  area:      158.743394675691     
  volume:    787.728034862868     
  Acav:     8.334028220473795E-002
  Solving linear dielectric/ionic screening model
        iter                  A_solv                     rms
   LPB:       -0.225941650049390E+00   0.785055722442309E+00
   LPB:    0  -0.222969336692909E+00   0.632637094605561E+00   0.134904E-01   0.000000E+00   0.326643E+02   0.440655E+00
   LPB:    1  -0.216430719057414E+00   0.199212465701055E+00   0.152323E-01   0.000000E+00   0.133537E+03  -0.205165E-16
   LPB:    2  -0.215628298788688E+00   0.841066869828872E-01   0.159444E-01   0.117240E+00   0.117675E+03   0.125055E-15
   LPB:    3  -0.215234746030429E+00   0.670308461830296E-01   0.298069E-01   0.262356E+00   0.145679E+03   0.191443E-14
   LPB:    4  -0.214922213726044E+00   0.109811457188579E+00   0.334166E-01   0.708348E+00   0.275128E+03   0.325347E-14
   LPB:    5  -0.214705234930060E+00   0.937675699301790E-01   0.219713E-01   0.105592E+01   0.107217E+03   0.364531E-14
   LPB:    6  -0.214481225642033E+00   0.267461572281444E-01   0.293458E-01   0.772961E+00   0.109559E+03   0.376215E-14
  Finished solving LPB equations
  A_corr:   -0.131140943437296     
 End minimization
 Ecorr=   1982.80467097943     
 A_corr= -0.131140943437296     
 Ecorr_band=  -1982.93581192287     
 End Solvation calculations
RMM:  18    -0.181563517676E+03    0.25697E-01   -0.40148E-02 11097   0.381E-01    0.167E+00
 Begin Solvation calculations
  rms_SCF =   0.796795764377530      tol =   7.967957643775302E-002
 Begin minimization
 Creating dielectric and ionic cavities
  area:      160.358142286249     
  volume:    786.017389884921     
  Acav:     8.418802470028072E-002
  Solving linear dielectric/ionic screening model
        iter                  A_solv                     rms
   LPB:       -0.225048800590015E+00   0.519995781054002E+00
   LPB:    0  -0.224938454028938E+00   0.590837358037821E+00   0.259612E-02   0.000000E+00   0.327445E+02   0.850087E-01
   LPB:    1  -0.218543841982155E+00   0.238477900230592E+00   0.146145E-01   0.000000E+00   0.144166E+03   0.585655E-17
   LPB:    2  -0.217707190458747E+00   0.727321038888984E-01   0.152788E-01   0.125148E+00   0.109453E+03  -0.689063E-15
   LPB:    3  -0.217524589052975E+00   0.409373775664660E-01   0.211107E-01   0.157960E+00   0.178802E+03  -0.674602E-16
   LPB:    4  -0.217432284080486E+00   0.607366438116344E-01   0.275344E-01   0.387568E+00   0.168803E+03   0.726607E-15
  Finished solving LPB equations
  A_corr:   -0.133244259380205     
 End minimization
 Ecorr=   1979.16113601954     
 A_corr= -0.133244259380205     
 Ecorr_band=  -1979.29438027892     
 End Solvation calculations
RMM:  19    -0.181548200926E+03    0.15317E-01   -0.13045E-02 11092   0.213E-01    0.101E+00
 Begin Solvation calculations
  rms_SCF =   0.757803115185097      tol =   7.578031151850974E-002
 Begin minimization
 Creating dielectric and ionic cavities
  area:      158.946221850642     
  volume:    784.779157303624     
  Acav:     8.344676647158683E-002
  Solving linear dielectric/ionic screening model
        iter                  A_solv                     rms
   LPB:       -0.223490322197174E+00   0.376452731078982E+00
   LPB:    0  -0.223290745218154E+00   0.427441236727936E+00   0.348832E-02   0.000000E+00   0.328025E+02   0.114426E+00
   LPB:    1  -0.219562573930437E+00   0.204355286912867E+00   0.143941E-01   0.000000E+00   0.178971E+03   0.224083E-17
   LPB:    2  -0.219111829960975E+00   0.727135198138501E-01   0.149651E-01   0.116289E+00   0.804736E+02  -0.620775E-17
   LPB:    3  -0.218947928292099E+00   0.598611607617221E-01   0.235917E-01   0.230660E+00   0.230656E+03  -0.134916E-15
   LPB:    4  -0.218831354310357E+00   0.637261919610879E-01   0.253300E-01   0.662435E+00   0.115056E+03  -0.507288E-15
  Finished solving LPB equations
  A_corr:   -0.135384587838770     
 End minimization
 Ecorr=   1976.47869958091     
 A_corr= -0.135384587838770     
 Ecorr_band=  -1976.61408416874     
 End Solvation calculations
RMM:  20    -0.181542227066E+03    0.59739E-02   -0.83872E-03 11099   0.175E-01    0.657E-01
 Begin Solvation calculations
  rms_SCF =   0.757803115185097      tol =   7.578031151850974E-002
 Begin minimization
 Creating dielectric and ionic cavities
  area:      158.826054436544     
  volume:    783.831768278733     
  Acav:     8.338367857918540E-002
  Solving linear dielectric/ionic screening model
        iter                  A_solv                     rms
   LPB:       -0.227770205059925E+00   0.648459728270586E+00
   LPB:    0  -0.227689139469443E+00   0.672631970614620E+00   0.222170E-02   0.000000E+00   0.328470E+02   0.729761E-01
   LPB:    1  -0.221394909595979E+00   0.151321989853691E+00   0.147592E-01   0.000000E+00   0.124153E+03   0.351487E-18
   LPB:    2  -0.220788536280377E+00   0.807071432451112E-01   0.156630E-01   0.907791E-01   0.157571E+03   0.113289E-15
   LPB:    3  -0.220588228384937E+00   0.579158874246629E-01   0.232406E-01   0.222630E+00   0.907472E+02   0.665093E-15
   LPB:    4  -0.220446394155586E+00   0.724279084465301E-01   0.298457E-01   0.551377E+00   0.220669E+03   0.122125E-14
  Finished solving LPB equations
  A_corr:   -0.137062715576401     
 End minimization
 Ecorr=   1974.55506289121     
 A_corr= -0.137062715576401     
 Ecorr_band=  -1974.69212560678     
 End Solvation calculations
RMM:  21    -0.181539427047E+03    0.28000E-02   -0.34153E-03 11102   0.105E-01    0.467E-01
 Begin Solvation calculations
  rms_SCF =   0.557626427412157      tol =   5.576264274121567E-002
 Begin minimization
 Creating dielectric and ionic cavities
  area:      158.873486227438     
  volume:    783.377885300257     
  Acav:     8.340858026940512E-002
  Solving linear dielectric/ionic screening model
        iter                  A_solv                     rms
   LPB:       -0.223780953048753E+00   0.518354830458481E+00
   LPB:    0  -0.223701887888930E+00   0.524281852132855E+00   0.219341E-02   0.000000E+00   0.328682E+02   0.720934E-01
   LPB:    1  -0.221329010512237E+00   0.121930305833496E+00   0.139998E-01   0.000000E+00   0.874578E+02   0.153309E-17
   LPB:    2  -0.221080443066433E+00   0.651789270589112E-01   0.131562E-01   0.111471E+00   0.225537E+03  -0.397351E-16
   LPB:    3  -0.220972749384263E+00   0.425422985508491E-01   0.238050E-01   0.239447E+00   0.971813E+02  -0.115823E-15
   LPB:    4  -0.220860177492977E+00   0.564301976424596E-01   0.348551E-01   0.713906E+00   0.153649E+03  -0.121227E-15
   LPB:    5  -0.220759579412635E+00   0.436041513696671E-01   0.280041E-01   0.111225E+01   0.814570E+02  -0.128667E-15
  Finished solving LPB equations
  A_corr:   -0.137350999143230     
 End minimization
 Ecorr=   1973.61828144615     
 A_corr= -0.137350999143230     
 Ecorr_band=  -1973.75563244529     
 End Solvation calculations
RMM:  22    -0.181538539937E+03    0.88711E-03   -0.17835E-03 11042   0.812E-02    0.414E-01
 Begin Solvation calculations
  rms_SCF =   0.557626427412157      tol =   5.576264274121567E-002
 Begin minimization
 Creating dielectric and ionic cavities
  area:      159.057406671075     
  volume:    782.834135758823     
  Acav:     8.350513850231442E-002
  Solving linear dielectric/ionic screening model
        iter                  A_solv                     rms
   LPB:       -0.225768191740043E+00   0.517626353321563E+00
   LPB:    0  -0.225743341570598E+00   0.536605297337030E+00   0.122920E-02   0.000000E+00   0.328937E+02   0.404330E-01
   LPB:    1  -0.222511219903820E+00   0.121301919566036E+00   0.143450E-01   0.000000E+00   0.103470E+03  -0.168036E-17
   LPB:    2  -0.222200774134030E+00   0.552833041460257E-01   0.139198E-01   0.989842E-01   0.183852E+03  -0.273753E-16
   LPB:    3  -0.222134732157161E+00   0.356175118188827E-01   0.194844E-01   0.151978E+00   0.973767E+02  -0.155797E-15
   LPB:    4  -0.222092113775661E+00   0.460473069162147E-01   0.262596E-01   0.478825E+00   0.192411E+03  -0.321101E-15
  Finished solving LPB equations
  A_corr:   -0.138586975273346     
 End minimization
 Ecorr=   1971.87507503496     
 A_corr= -0.138586975273346     
 Ecorr_band=  -1972.01366201023     
 End Solvation calculations
RMM:  23    -0.181537947700E+03    0.59224E-03   -0.78426E-04 10138   0.489E-02    0.363E-01
 Begin Solvation calculations
  rms_SCF =   0.557626427412157      tol =   5.576264274121567E-002
 Begin minimization
 Creating dielectric and ionic cavities
  area:      159.274561435929     
  volume:    782.245661603186     
  Acav:     8.361914475386276E-002
  Solving linear dielectric/ionic screening model
        iter                  A_solv                     rms
   LPB:       -0.230158158410193E+00   0.761228872856897E+00
   LPB:    0  -0.230091012593274E+00   0.773031075759736E+00   0.201970E-02   0.000000E+00   0.329213E+02   0.664910E-01
   LPB:    1  -0.224505006158307E+00   0.163359160798253E+00   0.142103E-01   0.000000E+00   0.917880E+02   0.210442E-17
   LPB:    2  -0.223963382302942E+00   0.978476212355736E-01   0.135978E-01   0.101328E+00   0.229426E+03  -0.673451E-15
   LPB:    3  -0.223802019901493E+00   0.461354064976040E-01   0.184913E-01   0.219081E+00   0.101305E+03  -0.923626E-15
   LPB:    4  -0.223709597891481E+00   0.513966436286495E-01   0.261109E-01   0.405620E+00   0.234674E+03  -0.994376E-15
  Finished solving LPB equations
  A_corr:   -0.140090453137618     
 End minimization
 Ecorr=   1970.38201167954     
 A_corr= -0.140090453137618     
 Ecorr_band=  -1970.52210213267     
 End Solvation calculations
RMM:  24    -0.181537496199E+03    0.45150E-03   -0.65485E-04  9210   0.475E-02    0.272E-01
 Begin Solvation calculations
  rms_SCF =   0.532458104015652      tol =   5.324581040156515E-002
 Begin minimization
 Creating dielectric and ionic cavities
  area:      159.394729691317     
  volume:    782.045510491697     
  Acav:     8.368223308794119E-002
  Solving linear dielectric/ionic screening model
        iter                  A_solv                     rms
   LPB:       -0.226054824368709E+00   0.412338616292912E+00
   LPB:    0  -0.226045164244769E+00   0.413277994539699E+00   0.765960E-03   0.000000E+00   0.329307E+02   0.252236E-01
   LPB:    1  -0.224601308279903E+00   0.839011447882042E-01   0.141221E-01   0.000000E+00   0.847718E+02   0.148854E-17
   LPB:    2  -0.224464954194023E+00   0.580716006071117E-01   0.138040E-01   0.966138E-01   0.239783E+03   0.409326E-16
   LPB:    3  -0.224392272899606E+00   0.319839068794973E-01   0.236899E-01   0.310596E+00   0.825946E+02  -0.108542E-15
   LPB:    4  -0.224312684429090E+00   0.378747608992806E-01   0.372272E-01   0.696835E+00   0.166025E+03  -0.213501E-15
  Finished solving LPB equations
  A_corr:   -0.140630451341149     
 End minimization
 Ecorr=   1969.94894310343     
 A_corr= -0.140630451341149     
 Ecorr_band=  -1970.08957355477     
 End Solvation calculations
RMM:  25    -0.181538337871E+03   -0.84167E-03   -0.26734E-04  6941   0.306E-02    0.393E-01
 Begin Solvation calculations
  rms_SCF =   0.532458104015652      tol =   5.324581040156515E-002
 Begin minimization
 Creating dielectric and ionic cavities
  area:      159.590244400141     
  volume:    781.789889331938     
  Acav:     8.378487831007395E-002
  Solving linear dielectric/ionic screening model
        iter                  A_solv                     rms
   LPB:       -0.231570401658443E+00   0.835054049061770E+00
   LPB:    0  -0.231564661548618E+00   0.838039630826387E+00   0.590331E-03   0.000000E+00   0.329427E+02   0.194471E-01
   LPB:    1  -0.226444214597789E+00   0.176883607664511E+00   0.136552E-01   0.000000E+00   0.779969E+02   0.140340E-17
   LPB:    2  -0.225977316443425E+00   0.847167553627427E-01   0.122291E-01   0.101816E+00   0.256774E+03   0.430873E-15
   LPB:    3  -0.225853522716770E+00   0.271047207727564E-01   0.183255E-01   0.176936E+00   0.109142E+03   0.470903E-15
   LPB:    4  -0.225783573466333E+00   0.405113653666215E-01   0.308140E-01   0.336041E+00   0.187661E+03   0.497008E-15
  Finished solving LPB equations
  A_corr:   -0.141998695156260     
 End minimization
 Ecorr=   1969.11153333019     
 A_corr= -0.141998695156260     
 Ecorr_band=  -1969.25353202535     
 End Solvation calculations
RMM:  26    -0.181538296771E+03    0.41100E-04   -0.34965E-04  7541   0.328E-02
 Begin Solvation calculations
  rms_SCF =   0.532458104015652      tol =   5.324581040156515E-002
 Begin minimization
 Creating dielectric and ionic cavities
  area:      159.795311397131     
  volume:    781.627221576016     
  Acav:     8.389253848349382E-002
  Solving linear dielectric/ionic screening model
        iter                  A_solv                     rms
   LPB:       -0.235171187435389E+00   0.999872536610653E+00
   LPB:    0  -0.235169793350722E+00   0.100118399301516E+01   0.290891E-03   0.000000E+00   0.329503E+02   0.958494E-02
   LPB:    1  -0.228416004223512E+00   0.209878032238486E+00   0.134342E-01   0.000000E+00   0.745641E+02  -0.883892E-18
   LPB:    2  -0.227770649259003E+00   0.985137438403632E-01   0.122327E-01   0.104940E+00   0.254478E+03  -0.159908E-15
   LPB:    3  -0.227586965066623E+00   0.306634570048550E-01   0.190546E-01   0.182724E+00   0.109103E+03  -0.156263E-15
   LPB:    4  -0.227484393513886E+00   0.449073551897533E-01   0.309772E-01   0.343489E+00   0.205327E+03  -0.260027E-15
  Finished solving LPB equations
  A_corr:   -0.143591855030392     
 End minimization
 Ecorr=   1968.43660023695     
 A_corr= -0.143591855030392     
 Ecorr_band=  -1968.58019209198     
 End Solvation calculations
   1 F= -.18153830E+03 E0= -.18152804E+03  d E =-.181538E+03
quench:  g(F)=  0.000E+00 g(S)=  0.000E+00 dE (1.order)= 0.000E+00
 bond charge predicted
       N       E                     dE             d eps       ncg     rms          rms(c)
 Begin Solvation calculations
  rms_SCF =   0.532458104015652      tol =   5.324581040156515E-002
 Begin minimization
 Creating dielectric and ionic cavities
  area:      159.797167801496     
  volume:    781.622366220294     
  Acav:     8.389351309578540E-002
  Solving linear dielectric/ionic screening model
        iter                  A_solv                     rms
   LPB:       -0.227710969407140E+00   0.449776371812975E-01
   LPB:    0  -0.227710969406454E+00   0.449862307230072E-01  -0.204112E-06   0.000000E+00   0.329505E+02  -0.672560E-05
   LPB:    1  -0.227448763489875E+00   0.255046130140210E-01   0.153993E-01   0.000000E+00   0.741185E+03   0.365282E-21
   LPB:    2  -0.227402958248056E+00   0.413205820069979E-01   0.260407E-01   0.103305E+00   0.227275E+03   0.109021E-15
   LPB:    3  -0.227357720484920E+00   0.271056826050314E-01   0.291419E-01   0.882513E+00   0.126956E+03   0.666179E-16
   LPB:    4  -0.227305429117244E+00   0.494670715819105E-01   0.355091E-01   0.948651E+00   0.156971E+03  -0.225252E-15
  Finished solving LPB equations
  A_corr:   -0.143411916021459     
 End minimization
 Ecorr=   1968.83524974548     
 A_corr= -0.143411916021459     
 Ecorr_band=  -1968.97866166150     
 End Solvation calculations
DAV:   1    -0.181539340898E+03   -0.10030E-02   -0.16506E-02 11490   0.223E-01    0.352E-01
 Begin Solvation calculations
  rms_SCF =   0.532458104015652      tol =   5.324581040156515E-002
 Begin minimization
 Creating dielectric and ionic cavities
  area:      159.770520460897     
  volume:    781.908260248045     
  Acav:     8.387952324197079E-002
  Solving linear dielectric/ionic screening model
        iter                  A_solv                     rms
   LPB:       -0.295285656863478E+00   0.474989599362370E+01
   LPB:    0  -0.295088618961814E+00   0.474569545612667E+01   0.345897E-02   0.000000E+00   0.329371E+02   0.113929E+00
   LPB:    1  -0.234205504707752E+00   0.480182906716093E+00   0.888979E-02   0.000000E+00   0.684136E+02  -0.460118E-17
   LPB:    2  -0.228308152166273E+00   0.985065426268192E-01   0.148554E-01   0.579654E-01   0.154071E+03  -0.341605E-16
   LPB:    3  -0.227595652719977E+00   0.358297994769555E-01   0.217006E-01   0.827064E-01   0.170217E+03   0.402546E-16
   LPB:    4  -0.227404743392175E+00   0.212695953997848E-01   0.273611E-01   0.212510E+00   0.285645E+03  -0.197351E-16
  Finished solving LPB equations
  A_corr:   -0.143525220150204     
 End minimization
 Ecorr=   1967.30180361457     
 A_corr= -0.143525220150204     
 Ecorr_band=  -1967.44532883472     
 End Solvation calculations
RMM:   2    -0.181788653711E+03   -0.24931E+00   -0.32806E-02 11094   0.297E-01    0.566E+00
 Begin Solvation calculations
  rms_SCF =   0.532458104015652      tol =   5.324581040156515E-002
 Begin minimization
 Creating dielectric and ionic cavities
  area:      165.285688070823     
  volume:    781.894225228959     
  Acav:     8.677498623718188E-002
  Solving linear dielectric/ionic screening model
        iter                  A_solv                     rms
   LPB:       -0.271624682117443E+00   0.392739794824614E+01
   LPB:    0  -0.271602453560686E+00   0.392688489473039E+01  -0.116178E-02   0.000000E+00   0.329378E+02  -0.382664E-01
   LPB:    1  -0.230627522905091E+00   0.355693446977819E+00   0.861273E-02   0.000000E+00   0.716389E+02   0.575821E-18
   LPB:    2  -0.227329053726231E+00   0.700055857144255E-01   0.154396E-01   0.449053E-01   0.145305E+03   0.548636E-16
   LPB:    3  -0.226975478862457E+00   0.244272926848659E-01   0.202500E-01   0.817299E-01   0.190489E+03   0.766878E-16
   LPB:    4  -0.226907348280425E+00   0.178354457960914E-01   0.238236E-01   0.163787E+00   0.506819E+03   0.312216E-15
  Finished solving LPB equations
  A_corr:   -0.140132362043243     
 End minimization
 Ecorr=   1968.25212659494     
 A_corr= -0.140132362043243     
 Ecorr_band=  -1968.39225895698     
 End Solvation calculations
RMM:   3    -0.181546159461E+03    0.24249E+00   -0.24973E-02 11093   0.302E-01    0.809E-01
 Begin Solvation calculations
  rms_SCF =   0.532458104015652      tol =   5.324581040156515E-002
 Begin minimization
 Creating dielectric and ionic cavities
  area:      160.486337417135     
  volume:    781.670633942442     
  Acav:     8.425532714399607E-002
  Solving linear dielectric/ionic screening model
        iter                  A_solv                     rms
   LPB:       -0.228406335611540E+00   0.231664567734655E+00
   LPB:    0  -0.228286500021374E+00   0.955188929830459E-01  -0.269707E-02   0.000000E+00   0.329483E+02  -0.888637E-01
   LPB:    1  -0.228068039280181E+00   0.420908197422197E-01   0.143688E-01   0.000000E+00   0.158482E+03  -0.559300E-17
   LPB:    2  -0.228040633215167E+00   0.238393393243752E-01   0.163580E-01   0.110196E+00   0.134158E+03  -0.137446E-15
   LPB:    3  -0.228027087040442E+00   0.126922180195369E-01   0.215298E-01   0.375542E+00   0.271041E+03  -0.124365E-15
   LPB:    4  -0.228015690919787E+00   0.206832848053399E-01   0.315518E-01   0.574059E+00   0.212866E+03  -0.173966E-15
  Finished solving LPB equations
  A_corr:   -0.143760363775791     
 End minimization
 Ecorr=   1968.40066313505     
 A_corr= -0.143760363775791     
 Ecorr_band=  -1968.54442349883     
 End Solvation calculations
RMM:   4    -0.181539390252E+03    0.67692E-02   -0.20821E-03 11068   0.106E-01    0.276E-01
 Begin Solvation calculations
  rms_SCF =   0.494307028473391      tol =   4.943070284733909E-002
 Begin minimization
 Creating dielectric and ionic cavities
  area:      159.893413743857     
  volume:    781.735571174674     
  Acav:     8.394404221552466E-002
  Solving linear dielectric/ionic screening model
        iter                  A_solv                     rms
   LPB:       -0.228362204947749E+00   0.286403053300601E+00
   LPB:    0  -0.228309070168833E+00   0.253144769372287E+00   0.179601E-02   0.000000E+00   0.329452E+02   0.591699E-01
   LPB:    1  -0.227962283552411E+00   0.495294205616709E-01   0.122534E-01   0.000000E+00   0.700816E+02   0.160972E-17
   LPB:    2  -0.227929641705155E+00   0.193841031254788E-01   0.118276E-01   0.975151E-01   0.276596E+03  -0.469458E-16
   LPB:    3  -0.227918483222675E+00   0.890983741893711E-02   0.234357E-01   0.172524E+00   0.105533E+03  -0.736675E-16
   LPB:    4  -0.227909549798647E+00   0.987462711432434E-02   0.406515E-01   0.461545E+00   0.162209E+03  -0.133660E-15
  Finished solving LPB equations
  A_corr:   -0.143965507583123     
 End minimization
 Ecorr=   1968.10670445007     
 A_corr= -0.143965507583123     
 Ecorr_band=  -1968.25066995765     
 End Solvation calculations
RMM:   5    -0.181539913736E+03   -0.52348E-03   -0.89506E-04 10564   0.707E-02    0.364E-01
 Begin Solvation calculations
  rms_SCF =   0.485937680256428      tol =   4.859376802564278E-002
 Begin minimization
 Creating dielectric and ionic cavities
  area:      159.935295808896     
  volume:    781.701706915613     
  Acav:     8.396603029967063E-002
  Solving linear dielectric/ionic screening model
        iter                  A_solv                     rms
   LPB:       -0.229041482779698E+00   0.324436390784213E+00
   LPB:    0  -0.229010298176828E+00   0.300517271836758E+00  -0.137587E-02   0.000000E+00   0.329468E+02  -0.453306E-01
   LPB:    1  -0.228566522232594E+00   0.583427053118475E-01   0.121185E-01   0.000000E+00   0.651779E+02   0.146016E-17
   LPB:    2  -0.228515824980997E+00   0.202847598814335E-01   0.120807E-01   0.114598E+00   0.251361E+03  -0.412349E-16
   LPB:    3  -0.228505008646174E+00   0.901934951036444E-02   0.197864E-01   0.130263E+00   0.121861E+03  -0.599858E-16
   LPB:    4  -0.228497923526057E+00   0.150812553501774E-01   0.330560E-01   0.392088E+00   0.105364E+03  -0.691269E-16
  Finished solving LPB equations
  A_corr:   -0.144531893226386     
 End minimization
 Ecorr=   1968.06427206541     
 A_corr= -0.144531893226386     
 Ecorr_band=  -1968.20880395864     
 End Solvation calculations
RMM:   6    -0.181539552206E+03    0.36153E-03   -0.28328E-04  6863   0.333E-02    0.272E-01
 Begin Solvation calculations
  rms_SCF =   0.465620693577225      tol =   4.656206935772254E-002
 Begin minimization
 Creating dielectric and ionic cavities
  area:      159.944446924476     
  volume:    781.707235912158     
  Acav:     8.397083463535000E-002
  Solving linear dielectric/ionic screening model
        iter                  A_solv                     rms
   LPB:       -0.229120325618195E+00   0.193024129559795E+00
   LPB:    0  -0.229120209229462E+00   0.192777112423224E+00  -0.840554E-04   0.000000E+00   0.329466E+02  -0.276934E-02
   LPB:    1  -0.228927647512047E+00   0.391387966416466E-01   0.124506E-01   0.000000E+00   0.668380E+02  -0.104929E-18
   LPB:    2  -0.228907529909348E+00   0.148891006457284E-01   0.118702E-01   0.109582E+00   0.246878E+03   0.453240E-16
   LPB:    3  -0.228900684031685E+00   0.531501907248791E-02   0.243366E-01   0.165978E+00   0.936028E+02   0.509413E-16
   LPB:    4  -0.228892395996093E+00   0.719073395813141E-02   0.509911E-01   0.577813E+00   0.105100E+03   0.253852E-16
  Finished solving LPB equations
  A_corr:   -0.144921561360743     
 End minimization
 Ecorr=   1967.95767419543     
 A_corr= -0.144921561360743     
 Ecorr_band=  -1968.10259575679     
 End Solvation calculations
RMM:   7    -0.181539727699E+03   -0.17549E-03   -0.11073E-04  6054   0.231E-02    0.286E-01
 Begin Solvation calculations
  rms_SCF =   0.465620693577225      tol =   4.656206935772254E-002
 Begin minimization
 Creating dielectric and ionic cavities
  area:      159.995454828197     
  volume:    781.717012075180     
  Acav:     8.399761378480361E-002
  Solving linear dielectric/ionic screening model
        iter                  A_solv                     rms
   LPB:       -0.230367056311757E+00   0.385131870410213E+00
   LPB:    0  -0.230364539492449E+00   0.382661361624617E+00  -0.390876E-03   0.000000E+00   0.329461E+02  -0.128778E-01
   LPB:    1  -0.229618555277691E+00   0.750787067633810E-01   0.123069E-01   0.000000E+00   0.670432E+02  -0.537448E-18
   LPB:    2  -0.229544683125718E+00   0.247943649042162E-01   0.114884E-01   0.106082E+00   0.267131E+03  -0.951330E-16
   LPB:    3  -0.229530218259970E+00   0.619110158140956E-02   0.188579E-01   0.119289E+00   0.126128E+03  -0.143735E-15
   LPB:    4  -0.229523243681751E+00   0.106355244468511E-01   0.338442E-01   0.268666E+00   0.152406E+03  -0.138661E-15
  Finished solving LPB equations
  A_corr:   -0.145525629896948     
 End minimization
 Ecorr=   1967.78855663198     
 A_corr= -0.145525629896948     
 Ecorr_band=  -1967.93408226188     
 End Solvation calculations
RMM:   8    -0.181539873661E+03   -0.14596E-03   -0.85027E-05  6264   0.182E-02    0.244E-01
 Begin Solvation calculations
  rms_SCF =   0.443569846806627      tol =   4.435698468066270E-002
 Begin minimization
 Creating dielectric and ionic cavities
  area:      160.045877385923     
  volume:    781.721319780106     
  Acav:     8.402408562760941E-002
  Solving linear dielectric/ionic screening model
        iter                  A_solv                     rms
   LPB:       -0.231392395691411E+00   0.435372105239424E+00
   LPB:    0  -0.231388428094851E+00   0.432137478614820E+00  -0.490770E-03   0.000000E+00   0.329459E+02  -0.161689E-01
   LPB:    1  -0.230481815298476E+00   0.852754274883623E-01   0.121764E-01   0.000000E+00   0.652490E+02   0.118832E-17
   LPB:    2  -0.230382808316834E+00   0.283755779206458E-01   0.117686E-01   0.112989E+00   0.255007E+03   0.298025E-16
   LPB:    3  -0.230361655055716E+00   0.726701257610431E-02   0.196706E-01   0.127826E+00   0.122132E+03   0.268009E-16
   LPB:    4  -0.230351311040729E+00   0.116745591271335E-01   0.331906E-01   0.289810E+00   0.167333E+03  -0.193750E-16
  Finished solving LPB equations
  A_corr:   -0.146327225413120     
 End minimization
 Ecorr=   1967.57373799420     
 A_corr= -0.146327225413120     
 Ecorr_band=  -1967.72006521961     
 End Solvation calculations
RMM:   9    -0.181540036256E+03   -0.16259E-03   -0.60159E-05  6201   0.141E-02    0.213E-01
 Begin Solvation calculations
  rms_SCF =   0.380195442260745      tol =   3.801954422607452E-002
 Begin minimization
 Creating dielectric and ionic cavities
  area:      160.091396003210     
  volume:    781.728593724797     
  Acav:     8.404798290168508E-002
  Solving linear dielectric/ionic screening model
        iter                  A_solv                     rms
   LPB:       -0.231806470368295E+00   0.373786041233689E+00
   LPB:    0  -0.231804440608751E+00   0.371767522265296E+00  -0.351026E-03   0.000000E+00   0.329456E+02  -0.115647E-01
   LPB:    1  -0.231139557531794E+00   0.727105793282884E-01   0.121299E-01   0.000000E+00   0.652104E+02   0.741752E-18
   LPB:    2  -0.231068069380366E+00   0.244768438377607E-01   0.117290E-01   0.111195E+00   0.253624E+03  -0.167198E-16
   LPB:    3  -0.231051653372238E+00   0.658195313175642E-02   0.207095E-01   0.130054E+00   0.113706E+03  -0.251832E-16
   LPB:    4  -0.231041405999655E+00   0.110304630962873E-01   0.373003E-01   0.346580E+00   0.142788E+03  -0.236651E-16
  Finished solving LPB equations
  A_corr:   -0.146993423097970     
 End minimization
 Ecorr=   1967.38096015691     
 A_corr= -0.146993423097970     
 Ecorr_band=  -1967.52795358001     
 End Solvation calculations
RMM:  10    -0.181540235965E+03   -0.19971E-03   -0.39923E-05  6145   0.112E-02    0.200E-01
 Begin Solvation calculations
  rms_SCF =   0.355644880974363      tol =   3.556448809743627E-002
 Begin minimization
 Creating dielectric and ionic cavities
  area:      160.115652455046     
  volume:    781.731409556249     
  Acav:     8.406071753889896E-002
  Solving linear dielectric/ionic screening model
        iter                  A_solv                     rms
   LPB:       -0.231605616477186E+00   0.197593605951771E+00
   LPB:    0  -0.231604833372661E+00   0.196491238449764E+00  -0.218036E-03   0.000000E+00   0.329454E+02  -0.718327E-02
   LPB:    1  -0.231426202957639E+00   0.380725079666108E-01   0.119565E-01   0.000000E+00   0.646243E+02  -0.222950E-18
   LPB:    2  -0.231406630466069E+00   0.127123331830923E-01   0.117797E-01   0.111214E+00   0.249332E+03  -0.729358E-16
   LPB:    3  -0.231400411796095E+00   0.493873322335688E-02   0.263621E-01   0.141973E+00   0.941320E+02  -0.826427E-16
   LPB:    4  -0.231392057760322E+00   0.877021570735189E-02   0.526093E-01   0.673158E+00   0.831895E+02  -0.103834E-15
  Finished solving LPB equations
  A_corr:   -0.147331340221423     
 End minimization
 Ecorr=   1967.28682612025     
 A_corr= -0.147331340221423     
 Ecorr_band=  -1967.43415746047     
 End Solvation calculations
RMM:  11    -0.181540424625E+03   -0.18866E-03   -0.19680E-05  5417   0.753E-03    0.220E-01
 Begin Solvation calculations
  rms_SCF =   0.355644880974363      tol =   3.556448809743627E-002
 Begin minimization
 Creating dielectric and ionic cavities
  area:      160.151102066230     
  volume:    781.733076676408     
  Acav:     8.407932858477056E-002
  Solving linear dielectric/ionic screening model
        iter                  A_solv                     rms
   LPB:       -0.232619722032264E+00   0.341533587050667E+00
   LPB:    0  -0.232616935680077E+00   0.338808118591911E+00  -0.411278E-03   0.000000E+00   0.329453E+02  -0.135497E-01
   LPB:    1  -0.232118692476336E+00   0.631944263557490E-01   0.116189E-01   0.000000E+00   0.640305E+02  -0.432918E-18
   LPB:    2  -0.232062848923197E+00   0.178085294582282E-01   0.116778E-01   0.111516E+00   0.255877E+03   0.574011E-17
   LPB:    3  -0.232053470057765E+00   0.461068313596839E-02   0.196284E-01   0.999206E-01   0.129600E+03   0.603846E-17
   LPB:    4  -0.232048460740807E+00   0.822489392210223E-02   0.371825E-01   0.281951E+00   0.128009E+03  -0.584901E-16
  Finished solving LPB equations
  A_corr:   -0.147969132156036     
 End minimization
 Ecorr=   1967.11768329994     
 A_corr= -0.147969132156036     
 Ecorr_band=  -1967.26565243209     
 End Solvation calculations
RMM:  12    -0.181540419952E+03    0.46728E-05   -0.20624E-05  4599   0.674E-03
 Begin Solvation calculations
  rms_SCF =   0.355644880974363      tol =   3.556448809743627E-002
 Begin minimization
 Creating dielectric and ionic cavities
  area:      160.210130570001     
  volume:    781.733000678998     
  Acav:     8.411031854925047E-002
  Solving linear dielectric/ionic screening model
        iter                  A_solv                     rms
   LPB:       -0.234805888496454E+00   0.574272663044575E+00
   LPB:    0  -0.234796020598589E+00   0.568393537677145E+00  -0.773981E-03   0.000000E+00   0.329454E+02  -0.254991E-01
   LPB:    1  -0.233396530191078E+00   0.105647869454838E+00   0.116177E-01   0.000000E+00   0.637985E+02   0.171100E-17
   LPB:    2  -0.233234966377124E+00   0.312671984679369E-01   0.118757E-01   0.112936E+00   0.249295E+03   0.124453E-15
   LPB:    3  -0.233206663825468E+00   0.770624751554001E-02   0.190867E-01   0.108996E+00   0.134109E+03   0.141784E-15
   LPB:    4  -0.233195856868265E+00   0.116338274353895E-01   0.305542E-01   0.238527E+00   0.171705E+03   0.170373E-15
  Finished solving LPB equations
  A_corr:   -0.149085538319015     
 End minimization
 Ecorr=   1966.80541662600     
 A_corr= -0.149085538319015     
 Ecorr_band=  -1966.95450216432     
 End Solvation calculations
   2 F= -.18154042E+03 E0= -.18153013E+03  d E =-.212318E-02
quench:  g(F)=  0.000E+00 g(S)=  0.000E+00 dE (1.order)= 0.000E+00
 bond charge predicted
       N       E                     dE             d eps       ncg     rms          rms(c)
 Begin Solvation calculations
  rms_SCF =   0.355644880974363      tol =   3.556448809743627E-002
 Begin minimization
 Creating dielectric and ionic cavities
  area:      160.220238576512     
  volume:    781.744111783233     
  Acav:     8.411562525266894E-002
  Solving linear dielectric/ionic screening model
        iter                  A_solv                     rms
   LPB:       -0.233320458579747E+00   0.116272961573652E-01
   LPB:    0  -0.233320458562401E+00   0.115843685451904E-01   0.102616E-05   0.000000E+00   0.329448E+02   0.338067E-04
   LPB:    1  -0.233207039019243E+00   0.636031704229236E-02   0.157121E-01   0.000000E+00   0.472015E+04   0.181509E-20
   LPB:    2  -0.233191451709332E+00   0.118369792936023E-01   0.288265E-01   0.749074E-01   0.836231E+03   0.266532E-16
   LPB:    3  -0.233184473247629E+00   0.135304837428206E-01   0.268953E-01   0.479849E+00   0.147075E+03   0.934272E-16
   LPB:    4  -0.233178657921828E+00   0.953138529880760E-02   0.271255E-01   0.826253E+00   0.169202E+03   0.995337E-16
  Finished solving LPB equations
  A_corr:   -0.149063032669159     
 End minimization
 Ecorr=   1966.84312075782     
 A_corr= -0.149063032669159     
 Ecorr_band=  -1966.99218379049     
 End Solvation calculations
DAV:   1    -0.181540601923E+03   -0.17730E-03   -0.63861E-03 11235   0.119E-01    0.101E-01
 Begin Solvation calculations
  rms_SCF =   0.173767822587249      tol =   1.737678225872492E-002
 Begin minimization
 Creating dielectric and ionic cavities
  area:      160.212553323388     
  volume:    781.791281376928     
  Acav:     8.411159049477859E-002
  Solving linear dielectric/ionic screening model
        iter                  A_solv                     rms
   LPB:       -0.238189718126375E+00   0.122951883975861E+01
   LPB:    0  -0.238187978267174E+00   0.122956372755535E+01   0.325007E-03   0.000000E+00   0.329426E+02   0.107066E-01
   LPB:    1  -0.234148489440914E+00   0.122336019317339E+00   0.878766E-02   0.000000E+00   0.691860E+02  -0.786017E-18
   LPB:    2  -0.233783012781069E+00   0.253033685898897E-01   0.149912E-01   0.530361E-01   0.144328E+03  -0.126645E-16
   LPB:    3  -0.233739723955656E+00   0.924191219474586E-02   0.214622E-01   0.827326E-01   0.156096E+03  -0.949485E-17
   LPB:    4  -0.233726704565928E+00   0.629288053077916E-02   0.287719E-01   0.224348E+00   0.250305E+03  -0.144535E-16
  Finished solving LPB equations
  A_corr:   -0.149615114071149     
 End minimization
 Ecorr=   1966.44731223300     
 A_corr= -0.149615114071149     
 Ecorr_band=  -1966.59692734707     
 End Solvation calculations
RMM:   2    -0.181559361837E+03   -0.18760E-01   -0.25671E-03 11082   0.842E-02    0.163E+00
 Begin Solvation calculations
  rms_SCF =   0.173767822587249      tol =   1.737678225872492E-002
 Begin minimization
 Creating dielectric and ionic cavities
  area:      160.594667311482     
  volume:    781.749205787433     
  Acav:     8.431220033852790E-002
  Solving linear dielectric/ionic screening model
        iter                  A_solv                     rms
   LPB:       -0.236846669773265E+00   0.108001152383453E+01
   LPB:    0  -0.236839673206135E+00   0.107912592553105E+01  -0.651727E-03   0.000000E+00   0.329446E+02  -0.214709E-01
   LPB:    1  -0.233737692455664E+00   0.970463108206069E-01   0.861778E-02   0.000000E+00   0.717354E+02   0.161163E-17
   LPB:    2  -0.233488048184576E+00   0.194235130212872E-01   0.153925E-01   0.450577E-01   0.148754E+03  -0.224210E-16
   LPB:    3  -0.233460263411215E+00   0.798904325127692E-02   0.205748E-01   0.832644E-01   0.190767E+03  -0.299710E-16
   LPB:    4  -0.233454268087494E+00   0.611044825087593E-02   0.245108E-01   0.181127E+00   0.414688E+03  -0.103195E-15
  Finished solving LPB equations
  A_corr:   -0.149142067748967     
 End minimization
 Ecorr=   1966.75337756194     
 A_corr= -0.149142067748967     
 Ecorr_band=  -1966.90251962969     
 End Solvation calculations
RMM:   3    -0.181540984570E+03    0.18377E-01   -0.19909E-03 11040   0.922E-02    0.152E-01
 Begin Solvation calculations
  rms_SCF =   0.173767822587249      tol =   1.737678225872492E-002
 Begin minimization
 Creating dielectric and ionic cavities
  area:      160.245614219785     
  volume:    781.727629351636     
  Acav:     8.412894746538706E-002
  Solving linear dielectric/ionic screening model
        iter                  A_solv                     rms
   LPB:       -0.233710905685786E+00   0.545274385721698E-01
   LPB:    0  -0.233708608145891E+00   0.456649527868599E-01  -0.373463E-03   0.000000E+00   0.329456E+02  -0.123040E-01
   LPB:    1  -0.233684231717387E+00   0.138642705423123E-01   0.131222E-01   0.000000E+00   0.129765E+03   0.368649E-18
   LPB:    2  -0.233681413392881E+00   0.771426280230626E-02   0.136907E-01   0.110816E+00   0.227232E+03  -0.887187E-16
   LPB:    3  -0.233679796599226E+00   0.324923970726551E-02   0.242345E-01   0.324083E+00   0.138397E+03  -0.104780E-15
   LPB:    4  -0.233677727150239E+00   0.336800210517656E-02   0.575847E-01   0.538675E+00   0.438965E+03  -0.108161E-15
  Finished solving LPB equations
  A_corr:   -0.149548779684852     
 End minimization
 Ecorr=   1966.72111825686     
 A_corr= -0.149548779684852     
 Ecorr_band=  -1966.87066703654     
 End Solvation calculations
RMM:   4    -0.181540704028E+03    0.28054E-03   -0.22063E-04  6782   0.452E-02    0.118E-01
 Begin Solvation calculations
  rms_SCF =   0.167379736100163      tol =   1.673797361001626E-002
 Begin minimization
 Creating dielectric and ionic cavities
  area:      160.242161576497     
  volume:    781.739990277013     
  Acav:     8.412713482766068E-002
  Solving linear dielectric/ionic screening model
        iter                  A_solv                     rms
   LPB:       -0.233798178717909E+00   0.101221945585291E+00
   LPB:    0  -0.233797785526058E+00   0.100892023808983E+00   0.154498E-03   0.000000E+00   0.329450E+02   0.508993E-02
   LPB:    1  -0.233762524022193E+00   0.153690826957703E-01   0.103920E-01   0.000000E+00   0.641531E+02  -0.102107E-18
   LPB:    2  -0.233758039012689E+00   0.393297220435808E-02   0.128102E-01   0.103182E+00   0.233336E+03   0.323312E-17
   LPB:    3  -0.233756991848762E+00   0.203266182080472E-02   0.273430E-01   0.109386E+00   0.118464E+03   0.121898E-17
   LPB:    4  -0.233755698202046E+00   0.202263069201386E-02   0.537769E-01   0.628132E+00   0.122592E+03  -0.113577E-16
  Finished solving LPB equations
  A_corr:   -0.149628563374386     
 End minimization
 Ecorr=   1966.63362547258     
 A_corr= -0.149628563374386     
 Ecorr_band=  -1966.78325403596     
 End Solvation calculations
RMM:   5    -0.181540693451E+03    0.10577E-04   -0.42673E-05  5966   0.170E-02
 Begin Solvation calculations
  rms_SCF =   0.167379736100163      tol =   1.673797361001626E-002
 Begin minimization
 Creating dielectric and ionic cavities
  area:      160.245717588411     
  volume:    781.727532899422     
  Acav:     8.412900173391599E-002
  Solving linear dielectric/ionic screening model
        iter                  A_solv                     rms
   LPB:       -0.233953494473745E+00   0.529388277145647E-01
   LPB:    0  -0.233950712753756E+00   0.395831674583564E-01  -0.410935E-03   0.000000E+00   0.329456E+02  -0.135385E-01
   LPB:    1  -0.233943549234860E+00   0.807044121211122E-02   0.115863E-01   0.000000E+00   0.603296E+02   0.501154E-18
   LPB:    2  -0.233942364156963E+00   0.267492769033086E-02   0.139120E-01   0.137777E+00   0.218579E+03  -0.398418E-16
   LPB:    3  -0.233941870168130E+00   0.355788111024267E-02   0.296500E-01   0.195585E+00   0.147617E+03  -0.463613E-16
   LPB:    4  -0.233941042647222E+00   0.505221747708165E-02   0.423871E-01   0.117180E+01   0.803588E+02  -0.504761E-16
  Finished solving LPB equations
  A_corr:   -0.149812040913306     
 End minimization
 Ecorr=   1966.59290001538     
 A_corr= -0.149812040913306     
 Ecorr_band=  -1966.74271205629     
 End Solvation calculations
   3 F= -.18154069E+03 E0= -.18153040E+03  d E =-.273499E-03
quench:  g(F)=  0.000E+00 g(S)=  0.000E+00 dE (1.order)= 0.000E+00
 bond charge predicted
       N       E                     dE             d eps       ncg     rms          rms(c)
 Begin Solvation calculations
  rms_SCF =   0.167379736100163      tol =   1.673797361001626E-002
 Begin minimization
 Creating dielectric and ionic cavities
  area:      160.260510283735     
  volume:    781.739300737810     
  Acav:     8.413676789896078E-002
  Solving linear dielectric/ionic screening model
        iter                  A_solv                     rms
   LPB:       -0.234103365481049E+00   0.511581691646079E-02
   LPB:    0  -0.234103365458031E+00   0.507141785127364E-02   0.118211E-05   0.000000E+00   0.329451E+02   0.389446E-04
   LPB:    1  -0.233940974762469E+00   0.253540089773914E-02   0.154996E-01   0.000000E+00   0.394126E+05  -0.204942E-20
   LPB:    2  -0.233924118197521E+00   0.497030912342158E-02   0.276210E-01   0.582491E-01   0.690772E+04  -0.245384E-17
   LPB:    3  -0.233918509688260E+00   0.932498134566762E-02   0.303222E-01   0.303081E+00   0.513249E+03   0.756010E-17
   LPB:    4  -0.233916188736156E+00   0.914768466600823E-02   0.215102E-01   0.583358E+00   0.173726E+03   0.398110E-17
  Finished solving LPB equations
  A_corr:   -0.149779420837195     
 End minimization
 Ecorr=   1966.60639887640     
 A_corr= -0.149779420837195     
 Ecorr_band=  -1966.75617829724     
 End Solvation calculations
DAV:   1    -0.181540728545E+03   -0.24517E-04   -0.89272E-03 11139   0.133E-01    0.875E-02
 Begin Solvation calculations
  rms_SCF =   0.102250311955940      tol =   1.022503119559403E-002
 Begin minimization
 Creating dielectric and ionic cavities
  area:      160.243538569252     
  volume:    781.659698838548     
  Acav:     8.412785774885742E-002
  Solving linear dielectric/ionic screening model
        iter                  A_solv                     rms
   LPB:       -0.236846729904766E+00   0.628709639907639E+00
   LPB:    0  -0.236741486157620E+00   0.590447894726364E+00  -0.252751E-02   0.000000E+00   0.329488E+02  -0.832785E-01
   LPB:    1  -0.235729320143578E+00   0.777291843610296E-01   0.924628E-02   0.000000E+00   0.664043E+02   0.213389E-17
   LPB:    2  -0.235579196747709E+00   0.128435842948869E-01   0.161437E-01   0.849497E-01   0.123602E+03   0.548453E-15
   LPB:    3  -0.235561466753076E+00   0.785979252119069E-02   0.206916E-01   0.921444E-01   0.319817E+03   0.700086E-15
   LPB:    4  -0.235555361251619E+00   0.808742926168673E-02   0.251930E-01   0.282830E+00   0.176275E+03   0.722006E-15
  Finished solving LPB equations
  A_corr:   -0.151427503502762     
 End minimization
 Ecorr=   1966.45057457646     
 A_corr= -0.151427503502762     
 Ecorr_band=  -1966.60200207996     
 End Solvation calculations
RMM:   2    -0.181547098113E+03   -0.63696E-02   -0.15097E-03 10967   0.687E-02    0.954E-01
 Begin Solvation calculations
  rms_SCF =   0.102250311955940      tol =   1.022503119559403E-002
 Begin minimization
 Creating dielectric and ionic cavities
  area:      160.262893131828     
  volume:    781.677929889753     
  Acav:     8.413801889420988E-002
  Solving linear dielectric/ionic screening model
        iter                  A_solv                     rms
   LPB:       -0.236186912019930E+00   0.665467773731823E+00
   LPB:    0  -0.236177681147515E+00   0.661743873435240E+00   0.748553E-03   0.000000E+00   0.329479E+02   0.246633E-01
   LPB:    1  -0.235023668953169E+00   0.642099690278812E-01   0.861602E-02   0.000000E+00   0.707479E+02   0.154258E-17
   LPB:    2  -0.234919942796678E+00   0.988191188807598E-02   0.161890E-01   0.478370E-01   0.124123E+03   0.109407E-16
   LPB:    3  -0.234909088864726E+00   0.295096791659362E-02   0.201146E-01   0.842185E-01   0.289640E+03   0.415754E-16
   LPB:    4  -0.234906663101739E+00   0.247733007246087E-02   0.258549E-01   0.173872E+00   0.668560E+03   0.296580E-16
  Finished solving LPB equations
  A_corr:   -0.150768644207529     
 End minimization
 Ecorr=   1966.60163528875     
 A_corr= -0.150768644207529     
 Ecorr_band=  -1966.75240393296     
 End Solvation calculations
RMM:   3    -0.181541653163E+03    0.54449E-02   -0.94989E-04 10600   0.570E-02    0.377E-01
 Begin Solvation calculations
  rms_SCF =   0.102250311955940      tol =   1.022503119559403E-002
 Begin minimization
 Creating dielectric and ionic cavities
  area:      160.316612002127     
  volume:    781.725928069241     
  Acav:     8.416622130111664E-002
  Solving linear dielectric/ionic screening model
        iter                  A_solv                     rms
   LPB:       -0.234684290397829E+00   0.178016481136170E+00
   LPB:    0  -0.234669416887139E+00   0.162070791079581E+00   0.950216E-03   0.000000E+00   0.329457E+02   0.313055E-01
   LPB:    1  -0.234586434199897E+00   0.161847439418606E-01   0.913266E-02   0.000000E+00   0.744287E+02   0.534985E-18
   LPB:    2  -0.234578275112222E+00   0.397271103006358E-02   0.141526E-01   0.634474E-01   0.261220E+03   0.405928E-16
   LPB:    3  -0.234576707401456E+00   0.361796362227850E-02   0.247212E-01   0.110000E+00   0.310155E+03   0.710521E-16
   LPB:    4  -0.234576070259851E+00   0.324306142404256E-02   0.254857E-01   0.394224E+00   0.189660E+03   0.121547E-15
  Finished solving LPB equations
  A_corr:   -0.150409848958734     
 End minimization
 Ecorr=   1966.47340155568     
 A_corr= -0.150409848958734     
 Ecorr_band=  -1966.62381140464     
 End Solvation calculations
RMM:   4    -0.181540731639E+03    0.92152E-03   -0.14461E-04  6459   0.279E-02    0.768E-02
 Begin Solvation calculations
  rms_SCF =   0.102250311955940      tol =   1.022503119559403E-002
 Begin minimization
 Creating dielectric and ionic cavities
  area:      160.269507987225     
  volume:    781.711992276649     
  Acav:     8.414149169329301E-002
  Solving linear dielectric/ionic screening model
        iter                  A_solv                     rms
   LPB:       -0.234795070470726E+00   0.576923750750988E-01
   LPB:    0  -0.234789971518991E+00   0.333594304849954E-01  -0.556355E-03   0.000000E+00   0.329463E+02  -0.183299E-01
   LPB:    1  -0.234781669695230E+00   0.671519935713567E-02   0.125436E-01   0.000000E+00   0.721259E+02  -0.144114E-17
   LPB:    2  -0.234780640883980E+00   0.356108535083996E-02   0.144558E-01   0.107533E+00   0.284187E+03  -0.190901E-16
   LPB:    3  -0.234780296895316E+00   0.321099518443579E-02   0.215439E-01   0.224350E+00   0.115883E+03  -0.144171E-16
   LPB:    4  -0.234779970167503E+00   0.322108914829201E-02   0.306416E-01   0.667813E+00   0.125777E+03  -0.189456E-16
  Finished solving LPB equations
  A_corr:   -0.150638478474210     
 End minimization
 Ecorr=   1966.47143619107     
 A_corr= -0.150638478474210     
 Ecorr_band=  -1966.62207466955     
 End Solvation calculations
RMM:   5    -0.181540776273E+03   -0.44634E-04   -0.56735E-05  6001   0.221E-02
 Begin Solvation calculations
  rms_SCF =   0.102250311955940      tol =   1.022503119559403E-002
 Begin minimization
 Creating dielectric and ionic cavities
  area:      160.272603233818     
  volume:    781.720651578538     
  Acav:     8.414311669775425E-002
  Solving linear dielectric/ionic screening model
        iter                  A_solv                     rms
   LPB:       -0.235176522485789E+00   0.686128251302124E-01
   LPB:    0  -0.235175628248796E+00   0.640400109460927E-01  -0.232992E-03   0.000000E+00   0.329459E+02  -0.767613E-02
   LPB:    1  -0.235152880332219E+00   0.159936722425238E-01   0.127719E-01   0.000000E+00   0.645397E+02  -0.269445E-19
   LPB:    2  -0.235149814447228E+00   0.452145188175009E-02   0.121331E-01   0.141873E+00   0.201812E+03   0.384016E-17
   LPB:    3  -0.235149158049966E+00   0.144296193649888E-02   0.198334E-01   0.130974E+00   0.144279E+03   0.337855E-17
   LPB:    4  -0.235148728772241E+00   0.177179208574089E-02   0.364498E-01   0.355855E+00   0.136099E+03   0.151550E-16
  Finished solving LPB equations
  A_corr:   -0.151005612074487     
 End minimization
 Ecorr=   1966.32631465771     
 A_corr= -0.151005612074487     
 Ecorr_band=  -1966.47732026979     
 End Solvation calculations
   4 F= -.18154078E+03 E0= -.18153045E+03  d E =-.828222E-04
quench:  g(F)=  0.000E+00 g(S)=  0.000E+00 dE (1.order)= 0.000E+00
 bond charge predicted
       N       E                     dE             d eps       ncg     rms          rms(c)
 Begin Solvation calculations
  rms_SCF =   0.102250311955940      tol =   1.022503119559403E-002
 Begin minimization
 Creating dielectric and ionic cavities
  area:      160.273997260890     
  volume:    781.720126113854     
  Acav:     8.414384856196737E-002
  Solving linear dielectric/ionic screening model
        iter                  A_solv                     rms
   LPB:       -0.235210469505292E+00   0.190623731216980E-02
   LPB:    0  -0.235210469505209E+00   0.190367596634044E-02   0.708985E-07   0.000000E+00   0.329460E+02   0.233582E-05
   LPB:    1  -0.235154609028146E+00   0.112043218447920E-02   0.153082E-01   0.000000E+00   0.979595E+05   0.110728E-22
   LPB:    2  -0.235149041468875E+00   0.192493639456307E-02   0.277434E-01   0.549952E-01   0.958659E+04   0.557405E-17
   LPB:    3  -0.235147052134422E+00   0.396498639783377E-02   0.326757E-01   0.303373E+00   0.104291E+04   0.872048E-17
   LPB:    4  -0.235146151745821E+00   0.546933370088340E-02   0.267784E-01   0.552284E+00   0.178190E+03  -0.669917E-17
  Finished solving LPB equations
  A_corr:   -0.151002303183853     
 End minimization
 Ecorr=   1966.30556020805     
 A_corr= -0.151002303183853     
 Ecorr_band=  -1966.45656251123     
 End Solvation calculations
DAV:   1    -0.181540814700E+03   -0.83062E-04   -0.33248E-03  9813   0.854E-02    0.960E-02
 Begin Solvation calculations
  rms_SCF =   0.102250311955940      tol =   1.022503119559403E-002
 Begin minimization
 Creating dielectric and ionic cavities
  area:      160.271553339237     
  volume:    781.827686032266     
  Acav:     8.414256550309944E-002
  Solving linear dielectric/ionic screening model
        iter                  A_solv                     rms
   LPB:       -0.238217934633174E+00   0.103715560544868E+01
   LPB:    0  -0.238176205831884E+00   0.103061495661009E+01   0.159171E-02   0.000000E+00   0.329409E+02   0.524325E-01
   LPB:    1  -0.235306741781211E+00   0.955691318404839E-01   0.874896E-02   0.000000E+00   0.705532E+02   0.255946E-17
   LPB:    2  -0.235066822713805E+00   0.208000131032664E-01   0.147257E-01   0.496758E-01   0.162547E+03   0.205353E-17
   LPB:    3  -0.235037834670802E+00   0.102788553082036E-01   0.219484E-01   0.810636E-01   0.158575E+03   0.586526E-16
   LPB:    4  -0.235029972852657E+00   0.804114931016726E-02   0.251197E-01   0.236970E+00   0.225828E+03   0.276707E-16
  Finished solving LPB equations
  A_corr:   -0.150887407349558     
 End minimization
 Ecorr=   1965.89423287454     
 A_corr= -0.150887407349558     
 Ecorr_band=  -1966.04512028189     
 End Solvation calculations
RMM:   2    -0.181554757884E+03   -0.13943E-01   -0.18244E-03 10948   0.683E-02    0.142E+00
 Begin Solvation calculations
  rms_SCF =   0.102250311955940      tol =   1.022503119559403E-002
 Begin minimization
 Creating dielectric and ionic cavities
  area:      160.808502494018     
  volume:    781.775313886453     
  Acav:     8.442446380935925E-002
  Solving linear dielectric/ionic screening model
        iter                  A_solv                     rms
   LPB:       -0.237564671208229E+00   0.938887235413617E+00
   LPB:    0  -0.237545772756969E+00   0.935367488780074E+00  -0.107113E-02   0.000000E+00   0.329434E+02  -0.352868E-01
   LPB:    1  -0.235193053519271E+00   0.829302140201846E-01   0.863962E-02   0.000000E+00   0.720276E+02   0.236432E-17
   LPB:    2  -0.235006840882535E+00   0.179190073225784E-01   0.151091E-01   0.452579E-01   0.158712E+03  -0.545160E-16
   LPB:    3  -0.234986490546019E+00   0.814269034219241E-02   0.205493E-01   0.803533E-01   0.170373E+03  -0.945182E-16
   LPB:    4  -0.234982304553531E+00   0.596412248324075E-02   0.228107E-01   0.185305E+00   0.274644E+03   0.849567E-16
  Finished solving LPB equations
  A_corr:   -0.150557840744172     
 End minimization
 Ecorr=   1966.18242875366     
 A_corr= -0.150557840744172     
 Ecorr_band=  -1966.33298659441     
 End Solvation calculations
RMM:   3    -0.181541196934E+03    0.13561E-01   -0.15098E-03 10970   0.850E-02    0.202E-01
 Begin Solvation calculations
  rms_SCF =   0.102250311955940      tol =   1.022503119559403E-002
 Begin minimization
 Creating dielectric and ionic cavities
  area:      160.335589051348     
  volume:    781.734480772488     
  Acav:     8.417618425195791E-002
  Solving linear dielectric/ionic screening model
        iter                  A_solv                     rms
   LPB:       -0.235392955766424E+00   0.712876981866945E-01
   LPB:    0  -0.235383580433356E+00   0.391517710972526E-01  -0.754417E-03   0.000000E+00   0.329453E+02  -0.248545E-01
   LPB:    1  -0.235359313080118E+00   0.144336969679414E-01   0.137279E-01   0.000000E+00   0.134668E+03   0.116823E-17
   LPB:    2  -0.235356482466737E+00   0.711024650982206E-02   0.131848E-01   0.121448E+00   0.217735E+03   0.287495E-16
   LPB:    3  -0.235355414017117E+00   0.306310623098968E-02   0.199322E-01   0.249684E+00   0.181532E+03   0.317291E-16
   LPB:    4  -0.235354901348611E+00   0.303848845766572E-02   0.310244E-01   0.308272E+00   0.182217E+03   0.266636E-16
  Finished solving LPB equations
  A_corr:   -0.151178717096653     
 End minimization
 Ecorr=   1966.20511747939     
 A_corr= -0.151178717096653     
 Ecorr_band=  -1966.35629619649     
 End Solvation calculations
RMM:   4    -0.181540776452E+03    0.42048E-03   -0.16951E-04  6590   0.380E-02    0.477E-02
 Begin Solvation calculations
  rms_SCF =   6.383179826872765E-002 tol =   6.383179826872765E-003
 Begin minimization
 Creating dielectric and ionic cavities
  area:      160.289577701758     
  volume:    781.747974185192     
  Acav:     8.415202829342294E-002
  Solving linear dielectric/ionic screening model
        iter                  A_solv                     rms
   LPB:       -0.235400656288477E+00   0.420184413848330E-01
   LPB:    0  -0.235399497966795E+00   0.380574204135931E-01   0.265178E-03   0.000000E+00   0.329447E+02   0.873619E-02
   LPB:    1  -0.235391996670832E+00   0.750537093371311E-02   0.112063E-01   0.000000E+00   0.818812E+02   0.363191E-18
   LPB:    2  -0.235391191489295E+00   0.232818551933294E-02   0.121240E-01   0.992147E-01   0.303377E+03  -0.227248E-17
   LPB:    3  -0.235390894746865E+00   0.193395665117764E-02   0.287847E-01   0.155227E+00   0.106246E+03   0.132573E-19
   LPB:    4  -0.235390612715091E+00   0.223389415215226E-02   0.398151E-01   0.687119E+00   0.344901E+03   0.155919E-16
  Finished solving LPB equations
  A_corr:   -0.151238584421668     
 End minimization
 Ecorr=   1966.10800094300     
 A_corr= -0.151238584421668     
 Ecorr_band=  -1966.25923952742     
 End Solvation calculations
RMM:   5    -0.181540837535E+03   -0.61083E-04   -0.56303E-05  6029   0.214E-02
 Begin Solvation calculations
  rms_SCF =   6.383179826872765E-002 tol =   6.383179826872765E-003
 Begin minimization
 Creating dielectric and ionic cavities
  area:      160.296140371037     
  volume:    781.742279453466     
  Acav:     8.415547369479466E-002
  Solving linear dielectric/ionic screening model
        iter                  A_solv                     rms
   LPB:       -0.235501493390252E+00   0.473767227883364E-01
   LPB:    0  -0.235499569878175E+00   0.368259842107291E-01  -0.341718E-03   0.000000E+00   0.329449E+02  -0.112579E-01
   LPB:    1  -0.235493876623760E+00   0.587986944070644E-02   0.110540E-01   0.000000E+00   0.610692E+02  -0.255442E-18
   LPB:    2  -0.235493248082408E+00   0.218774598645213E-02   0.126125E-01   0.967590E-01   0.227593E+03  -0.483590E-17
   LPB:    3  -0.235493112366768E+00   0.156891887701742E-02   0.205742E-01   0.132366E+00   0.118219E+03  -0.367942E-17
   LPB:    4  -0.235492952463134E+00   0.237733749825314E-02   0.425489E-01   0.569722E+00   0.692199E+02  -0.314746E-17
  Finished solving LPB equations
  A_corr:   -0.151337478768339     
 End minimization
 Ecorr=   1966.09136181118     
 A_corr= -0.151337478768339     
 Ecorr_band=  -1966.24269928995     
 End Solvation calculations
   5 F= -.18154084E+03 E0= -.18153054E+03  d E =-.612621E-04
quench:  g(F)=  0.000E+00 g(S)=  0.000E+00 dE (1.order)= 0.000E+00
 bond charge predicted
       N       E                     dE             d eps       ncg     rms          rms(c)
 Begin Solvation calculations
  rms_SCF =   6.383179826872765E-002 tol =   6.383179826872765E-003
 Begin minimization
 Creating dielectric and ionic cavities
  area:      160.304053007317     
  volume:    781.749803157027     
  Acav:     8.415962782884119E-002
  Solving linear dielectric/ionic screening model
        iter                  A_solv                     rms
   LPB:       -0.235572898687307E+00   0.239658025094583E-02
   LPB:    0  -0.235572898675692E+00   0.236613134735439E-02   0.839694E-06   0.000000E+00   0.329446E+02   0.276633E-04
   LPB:    1  -0.235491745021091E+00   0.134643270616046E-02   0.155005E-01   0.000000E+00   0.933742E+05  -0.238978E-21
   LPB:    2  -0.235482979856668E+00   0.236190667679692E-02   0.279456E-01   0.599079E-01   0.120295E+05   0.649225E-17
   LPB:    3  -0.235479964829859E+00   0.494663777626372E-02   0.321636E-01   0.298868E+00   0.114245E+04   0.545359E-17
   LPB:    4  -0.235478739521937E+00   0.694231411417089E-02   0.252073E-01   0.518553E+00   0.199904E+03   0.355222E-18
   LPB:    5  -0.235477921660941E+00   0.365666054337874E-02   0.212634E-01   0.791275E+00   0.213666E+03  -0.172671E-16
  Finished solving LPB equations
  A_corr:   -0.151318293832100     
 End minimization
 Ecorr=   1966.09559893213     
 A_corr= -0.151318293832100     
 Ecorr_band=  -1966.24691722596     
 End Solvation calculations
DAV:   1    -0.181540855642E+03   -0.79190E-04   -0.44755E-03 10902   0.105E-01    0.568E-02
 Begin Solvation calculations
  rms_SCF =   5.061641161333107E-002 tol =   5.061641161333107E-003
 Begin minimization
 Creating dielectric and ionic cavities
  area:      160.297042599445     
  volume:    781.698053383709     
  Acav:     8.415594736470844E-002
  Solving linear dielectric/ionic screening model
        iter                  A_solv                     rms
   LPB:       -0.236792093986916E+00   0.293029460628279E+00
   LPB:    0  -0.236750060974048E+00   0.258557710632548E+00  -0.159736E-02   0.000000E+00   0.329470E+02  -0.526282E-01
   LPB:    1  -0.236533713594789E+00   0.411120320466245E-01   0.979233E-02   0.000000E+00   0.642814E+02  -0.509059E-19
   LPB:    2  -0.236494927560787E+00   0.754776699133138E-02   0.156785E-01   0.111971E+00   0.132429E+03  -0.310361E-15
   LPB:    3  -0.236490070240041E+00   0.585574690821724E-02   0.204145E-01   0.961805E-01   0.338924E+03  -0.384571E-15
   LPB:    4  -0.236488238759682E+00   0.468521060829011E-02   0.235092E-01   0.327422E+00   0.139254E+03  -0.379615E-15
  Finished solving LPB equations
  A_corr:   -0.152332291394974     
 End minimization
 Ecorr=   1965.99676971822     
 A_corr= -0.152332291394974     
 Ecorr_band=  -1966.14910200961     
 End Solvation calculations
RMM:   2    -0.181542507034E+03   -0.16514E-02   -0.52023E-04  7876   0.415E-02    0.497E-01
 Begin Solvation calculations
  rms_SCF =   5.061641161333107E-002 tol =   5.061641161333107E-003
 Begin minimization
 Creating dielectric and ionic cavities
  area:      160.313267886043     
  volume:    781.719013881832     
  Acav:     8.416446564017266E-002
  Solving linear dielectric/ionic screening model
        iter                  A_solv                     rms
   LPB:       -0.236372627840687E+00   0.347232513502810E+00
   LPB:    0  -0.236365785903531E+00   0.342402725502339E+00   0.644471E-03   0.000000E+00   0.329460E+02   0.212327E-01
   LPB:    1  -0.236054429027892E+00   0.345284666593040E-01   0.865474E-02   0.000000E+00   0.704346E+02   0.597337E-18
   LPB:    2  -0.236023898794538E+00   0.501977201664206E-02   0.165414E-01   0.513043E-01   0.119114E+03  -0.625353E-16
   LPB:    3  -0.236020740110914E+00   0.189738495167283E-02   0.200422E-01   0.853890E-01   0.348973E+03  -0.375336E-16
   LPB:    4  -0.236019980354418E+00   0.227173214831955E-02   0.253925E-01   0.189849E+00   0.448911E+03  -0.346085E-16
  Finished solving LPB equations
  A_corr:   -0.151855514714245     
 End minimization
 Ecorr=   1966.06423434327     
 A_corr= -0.151855514714245     
 Ecorr_band=  -1966.21608985799     
 End Solvation calculations
RMM:   3    -0.181541266188E+03    0.12408E-02   -0.32002E-04  7006   0.386E-02    0.254E-01
 Begin Solvation calculations
  rms_SCF =   5.061641161333107E-002 tol =   5.061641161333107E-003
 Begin minimization
 Creating dielectric and ionic cavities
  area:      160.328930442818     
  volume:    781.747309733200     
  Acav:     8.417268848247947E-002
  Solving linear dielectric/ionic screening model
        iter                  A_solv                     rms
   LPB:       -0.235898200156004E+00   0.137761996111159E+00
   LPB:    0  -0.235893236028260E+00   0.131282347706955E+00   0.548964E-03   0.000000E+00   0.329447E+02   0.180854E-01
[...]
   LPB:    8  -0.243836880026888E+00   0.777162700528560E-03   0.333977E-01   0.569178E+00   0.411509E+03   0.483317E-16
   LPB:    9  -0.243836855138203E+00   0.656950337727881E-03   0.251519E-01   0.739478E+00   0.180007E+03   0.517069E-16
   LPB:   10  -0.243836836277632E+00   0.257931862935158E-03   0.289732E-01   0.657850E+00   0.293007E+03   0.517366E-16
   LPB:   11  -0.243836822877179E+00   0.112209161759147E-03   0.377516E-01   0.545287E+00   0.132865E+04   0.648525E-16
  Finished solving LPB equations
  A_corr:   -0.158906262107434     
 End minimization
 Ecorr=   1962.86127520167     
 A_corr= -0.158906262107434     
 Ecorr_band=  -1963.02018146377     
 End Solvation calculations
RMM:   4    -0.181549399680E+03    0.25394E-03   -0.10855E-04  6386   0.340E-02    0.414E-02
 Begin Solvation calculations
  rms_SCF =   2.446097218863058E-003 tol =   2.446097218863058E-004
 Begin minimization
 Creating dielectric and ionic cavities
  area:      161.771915397710     
  volume:    782.802746188705     
  Acav:     8.493025558379760E-002
  Solving linear dielectric/ionic screening model
        iter                  A_solv                     rms
   LPB:       -0.243902646315850E+00   0.240043788773126E-01
   LPB:    0  -0.243901620977094E+00   0.144487992640028E-01  -0.249679E-03   0.000000E+00   0.328952E+02  -0.821325E-02
   LPB:    1  -0.243900782774944E+00   0.249520118479091E-02   0.102325E-01   0.000000E+00   0.652374E+02  -0.783464E-18
   LPB:    2  -0.243900648972836E+00   0.918531733809261E-03   0.147808E-01   0.110509E+00   0.156261E+03   0.271134E-16
   LPB:    3  -0.243900625013888E+00   0.632153451687244E-03   0.193987E-01   0.136436E+00   0.147372E+03   0.321878E-16
   LPB:    4  -0.243900612042287E+00   0.357395756304933E-03   0.256081E-01   0.410131E+00   0.136784E+03   0.318632E-16
   LPB:    5  -0.243900602130079E+00   0.148010265964448E-03   0.316016E-01   0.619219E+00   0.623048E+03   0.290302E-16
  Finished solving LPB equations
  A_corr:   -0.158970346546281     
 End minimization
 Ecorr=   1962.89444840226     
 A_corr= -0.158970346546281     
 Ecorr_band=  -1963.05341874881     
 End Solvation calculations
RMM:   5    -0.181549398331E+03    0.13489E-05   -0.16773E-05  5739   0.105E-02
 Begin Solvation calculations
  rms_SCF =   2.446097218863058E-003 tol =   2.446097218863058E-004
 Begin minimization
 Creating dielectric and ionic cavities
  area:      161.770397543061     
  volume:    782.806019422111     
  Acav:     8.492945871010676E-002
  Solving linear dielectric/ionic screening model
        iter                  A_solv                     rms
   LPB:       -0.243998776317377E+00   0.792062208526807E-02
   LPB:    0  -0.243998772603035E+00   0.751307238157326E-02  -0.150276E-04   0.000000E+00   0.328950E+02  -0.494335E-03
   LPB:    1  -0.243997842981283E+00   0.465528776361429E-02   0.138348E-01   0.000000E+00   0.151812E+03  -0.190532E-19
   LPB:    2  -0.243997722673336E+00   0.768319198700069E-03   0.120996E-01   0.147975E+00   0.900670E+02  -0.131748E-16
   LPB:    3  -0.243997681170402E+00   0.298499286318532E-03   0.230692E-01   0.180936E+00   0.261220E+03  -0.159145E-16
   LPB:    4  -0.243997660369829E+00   0.207897343748539E-03   0.351992E-01   0.328471E+00   0.375833E+03  -0.168452E-16
  Finished solving LPB equations
  A_corr:   -0.159068201659722     
 End minimization
 Ecorr=   1962.84835924642     
 A_corr= -0.159068201659722     
 Ecorr_band=  -1963.00742744808     
 End Solvation calculations
 205 F= -.18154940E+03 E0= -.18153890E+03  d E =0.290976E-04
quench:  g(F)=  0.000E+00 g(S)=  0.000E+00 dE (1.order)= 0.000E+00
 bond charge predicted
       N       E                     dE             d eps       ncg     rms          rms(c)
 Begin Solvation calculations
  rms_SCF =   2.446097218863058E-003 tol =   2.446097218863058E-004
 Begin minimization
 Creating dielectric and ionic cavities
  area:      161.772351174239     
  volume:    782.805643788623     
  Acav:     8.493048436647553E-002
  Solving linear dielectric/ionic screening model
        iter                  A_solv                     rms
   LPB:       -0.244032091377289E+00   0.621926625921341E-03
   LPB:    0  -0.244032091377153E+00   0.621847084141454E-03   0.908214E-07   0.000000E+00   0.328951E+02   0.298758E-05
   LPB:    1  -0.243999554339036E+00   0.212700937577237E-03   0.155717E-01   0.000000E+00   0.693831E+06   0.180079E-21
   LPB:    2  -0.243996017348780E+00   0.167520533479161E-03   0.276244E-01   0.612773E-01   0.190601E+06   0.547449E-19
   LPB:    3  -0.243994842369371E+00   0.378746017913172E-03   0.331466E-01   0.276853E+00   0.684616E+05  -0.219271E-18
   LPB:    4  -0.243994319817005E+00   0.886800729675758E-03   0.357874E-01   0.411916E+00   0.529779E+04   0.253082E-18
   LPB:    5  -0.243994073727321E+00   0.221908259469977E-02   0.335320E-01   0.502614E+00   0.709561E+03  -0.186196E-17
   LPB:    6  -0.243993964435563E+00   0.209744799635846E-02   0.205273E-01   0.725474E+00   0.160221E+03  -0.459990E-17
   LPB:    7  -0.243993869771051E+00   0.988889343539808E-03   0.245780E-01   0.723412E+00   0.361610E+03  -0.828373E-17
   LPB:    8  -0.243993811173876E+00   0.118180314381892E-02   0.295151E-01   0.515455E+00   0.291472E+03  -0.908560E-17
   LPB:    9  -0.243993774163602E+00   0.658886868209896E-03   0.237464E-01   0.785039E+00   0.168343E+03  -0.155314E-16
   LPB:   10  -0.243993743081395E+00   0.230626313303292E-03   0.336202E-01   0.593182E+00   0.677009E+03  -0.141130E-16
  Finished solving LPB equations
  A_corr:   -0.159063258714920     
 End minimization
 Ecorr=   1962.84283995130     
 A_corr= -0.159063258714920     
 Ecorr_band=  -1963.00190321001     
 End Solvation calculations
DAV:   1    -0.181549427614E+03   -0.27934E-04   -0.20281E-03  9027   0.634E-02    0.457E-02
 Begin Solvation calculations
  rms_SCF =   2.446097218863058E-003 tol =   2.446097218863058E-004
 Begin minimization
 Creating dielectric and ionic cavities
  area:      161.774902194151     
  volume:    782.875171236972     
  Acav:     8.493182365192949E-002
  Solving linear dielectric/ionic screening model
        iter                  A_solv                     rms
   LPB:       -0.243733934677038E+00   0.274274432842398E+00
   LPB:    0  -0.243701415098677E+00   0.250414680559700E+00   0.140619E-02   0.000000E+00   0.328918E+02   0.462521E-01
   LPB:    1  -0.243508387324483E+00   0.241946100754400E-01   0.903105E-02   0.000000E+00   0.740028E+02   0.174122E-17
   LPB:    2  -0.243490334696514E+00   0.592809561037520E-02   0.142803E-01   0.591457E-01   0.229564E+03  -0.467898E-16
   LPB:    3  -0.243487289704886E+00   0.562051677022763E-02   0.237336E-01   0.101489E+00   0.284343E+03  -0.400893E-16
   LPB:    4  -0.243486333947533E+00   0.320605085089858E-02   0.208545E-01   0.357211E+00   0.141767E+03  -0.251981E-16
   LPB:    5  -0.243485826172137E+00   0.139966778597390E-02   0.254916E-01   0.434637E+00   0.363694E+03  -0.328195E-16
   LPB:    6  -0.243485566021977E+00   0.743317389499709E-03   0.306005E-01   0.426797E+00   0.345896E+03  -0.614815E-16
   LPB:    7  -0.243485425014971E+00   0.449069462336646E-03   0.321127E-01   0.516496E+00   0.572383E+03  -0.106197E-15
   LPB:    8  -0.243485341875369E+00   0.243716642285403E-03   0.344992E-01   0.548826E+00   0.596500E+03  -0.127819E-15
  Finished solving LPB equations
  A_corr:   -0.158553518223440     
 End minimization
 Ecorr=   1962.70901440509     
 A_corr= -0.158553518223440     
 Ecorr_band=  -1962.86756792331     
 End Solvation calculations
RMM:   2    -0.181550565174E+03   -0.11376E-02   -0.24609E-04  6499   0.221E-02    0.445E-01
 Begin Solvation calculations
  rms_SCF =   2.446097218863058E-003 tol =   2.446097218863058E-004
 Begin minimization
 Creating dielectric and ionic cavities
  area:      161.873560135302     
  volume:    782.832240405179     
  Acav:     8.498361907103376E-002
  Solving linear dielectric/ionic screening model
        iter                  A_solv                     rms
   LPB:       -0.244006152867380E+00   0.303774980063879E+00
   LPB:    0  -0.243991135066315E+00   0.294534853678705E+00  -0.955567E-03   0.000000E+00   0.328938E+02  -0.314322E-01
   LPB:    1  -0.243744902372663E+00   0.253156150195980E-01   0.877098E-02   0.000000E+00   0.734084E+02  -0.120211E-18
   LPB:    2  -0.243725238829434E+00   0.612216757225025E-02   0.144630E-01   0.484290E-01   0.201877E+03  -0.468464E-16
   LPB:    3  -0.243722403033544E+00   0.458037084535209E-02   0.235916E-01   0.884126E-01   0.179750E+03  -0.828606E-16
   LPB:    4  -0.243721506827592E+00   0.331007822933071E-02   0.235890E-01   0.316068E+00   0.169409E+03  -0.671719E-16
   LPB:    5  -0.243721036511171E+00   0.163837908354302E-02   0.238356E-01   0.519358E+00   0.322126E+03  -0.678476E-16
   LPB:    6  -0.243720778898134E+00   0.921109859381950E-03   0.296845E-01   0.439819E+00   0.335746E+03  -0.737938E-16
   LPB:    7  -0.243720624346053E+00   0.546997856496523E-03   0.329388E-01   0.540665E+00   0.630569E+03  -0.947498E-16
   LPB:    8  -0.243720521427801E+00   0.283794105818326E-03   0.362733E-01   0.604699E+00   0.102176E+04  -0.107020E-15
   LPB:    9  -0.243720452349071E+00   0.176497372567341E-03   0.383882E-01   0.634221E+00   0.136823E+04  -0.107896E-15
  Finished solving LPB equations
  A_corr:   -0.158736833278038     
 End minimization
 Ecorr=   1962.84359486218     
 A_corr= -0.158736833278038     
 Ecorr_band=  -1963.00233169546     
 End Solvation calculations
RMM:   3    -0.181549550045E+03    0.10151E-02   -0.18316E-04  6609   0.355E-02    0.154E-01
 Begin Solvation calculations
  rms_SCF =   2.446097218863058E-003 tol =   2.446097218863058E-004
 Begin minimization
 Creating dielectric and ionic cavities
  area:      161.789083572142     
  volume:    782.816987076959     
  Acav:     8.493926887537437E-002
  Solving linear dielectric/ionic screening model
        iter                  A_solv                     rms
   LPB:       -0.243961374432621E+00   0.815401536654755E-01
   LPB:    0  -0.243959431981912E+00   0.761714657406327E-01  -0.343659E-03   0.000000E+00   0.328945E+02  -0.113045E-01
   LPB:    1  -0.243940407436510E+00   0.983324765555114E-02   0.931775E-02   0.000000E+00   0.737234E+02   0.593435E-18
   LPB:    2  -0.243937748474646E+00   0.178977355473138E-02   0.156154E-01   0.833981E-01   0.177152E+03   0.523111E-16
   LPB:    3  -0.243937305414035E+00   0.105260546933597E-02   0.228745E-01   0.113750E+00   0.278185E+03   0.390018E-16
   LPB:    4  -0.243937126430741E+00   0.159037746568179E-02   0.295554E-01   0.312654E+00   0.260973E+03   0.376851E-16
   LPB:    5  -0.243937039526248E+00   0.115822007331866E-02   0.236585E-01   0.606569E+00   0.173463E+03   0.472066E-16
   LPB:    6  -0.243936981865639E+00   0.426956245476307E-03   0.281104E-01   0.558415E+00   0.226878E+03   0.370738E-16
   LPB:    7  -0.243936950935582E+00   0.249082012366095E-03   0.323245E-01   0.466484E+00   0.898760E+03   0.273264E-16
   LPB:    8  -0.243936933720502E+00   0.169512532561020E-03   0.317135E-01   0.567305E+00   0.124285E+04   0.262477E-16
  Finished solving LPB equations
  A_corr:   -0.158997664845128     
 End minimization
 Ecorr=   1962.83046910384     
 A_corr= -0.158997664845128     
 Ecorr_band=  -1962.98946676868     
 End Solvation calculations
RMM:   4    -0.181549411625E+03    0.13842E-03   -0.57869E-05  6050   0.229E-02    0.220E-02
 Begin Solvation calculations
  rms_SCF =   2.446097218863058E-003 tol =   2.446097218863058E-004
 Begin minimization
 Creating dielectric and ionic cavities
  area:      161.777609885900     
  volume:    782.821976646044     
  Acav:     8.493324519009768E-002
  Solving linear dielectric/ionic screening model
        iter                  A_solv                     rms
   LPB:       -0.243920349700603E+00   0.125801382129650E-01
   LPB:    0  -0.243919957523249E+00   0.568282153653851E-02   0.154417E-03   0.000000E+00   0.328943E+02   0.507945E-02
   LPB:    1  -0.243919585973953E+00   0.169376943385551E-02   0.115908E-01   0.000000E+00   0.134540E+03   0.261185E-18
   LPB:    2  -0.243919543084277E+00   0.793595481502433E-03   0.138038E-01   0.969279E-01   0.284199E+03   0.103650E-16
   LPB:    3  -0.243919517574926E+00   0.727236781009526E-03   0.283637E-01   0.289456E+00   0.222239E+03   0.115310E-16
   LPB:    4  -0.243919501856008E+00   0.630417938624317E-03   0.262403E-01   0.666067E+00   0.164840E+03   0.123462E-16
   LPB:    5  -0.243919484390882E+00   0.251771749311178E-03   0.329800E-01   0.884030E+00   0.300007E+03   0.191642E-16
   LPB:    6  -0.243919468653262E+00   0.838042288709727E-04   0.450644E-01   0.659454E+00   0.122672E+04   0.250511E-16
  Finished solving LPB equations
  A_corr:   -0.158986223463164     
 End minimization
 Ecorr=   1962.79643960851     
 A_corr= -0.158986223463164     
 Ecorr_band=  -1962.95542583198     
 End Solvation calculations
RMM:   5    -0.181549425352E+03   -0.13726E-04   -0.11689E-05  5203   0.103E-02
 Begin Solvation calculations
  rms_SCF =   2.446097218863058E-003 tol =   2.446097218863058E-004
 Begin minimization
 Creating dielectric and ionic cavities
  area:      161.777888033819     
  volume:    782.819848568683     
  Acav:     8.493339121775477E-002
  Solving linear dielectric/ionic screening model
        iter                  A_solv                     rms
   LPB:       -0.243921579443056E+00   0.763090362310588E-02
   LPB:    0  -0.243921449176133E+00   0.334756391767426E-02  -0.889961E-04   0.000000E+00   0.328944E+02  -0.292747E-02
   LPB:    1  -0.243921248981769E+00   0.126176834043671E-02   0.146967E-01   0.000000E+00   0.112937E+03   0.127535E-18
   LPB:    2  -0.243921221258741E+00   0.401668618679637E-03   0.156673E-01   0.129901E+00   0.171694E+03   0.825660E-17
   LPB:    3  -0.243921212667299E+00   0.358195778653422E-03   0.225292E-01   0.215513E+00   0.389475E+03   0.628191E-17
   LPB:    4  -0.243921208686758E+00   0.437568726494726E-03   0.227630E-01   0.458557E+00   0.193557E+03   0.499004E-17
   LPB:    5  -0.243921205006528E+00   0.214177681679710E-03   0.258072E-01   0.815494E+00   0.180965E+03   0.436963E-17
  Finished solving LPB equations
  A_corr:   -0.158987813788773     
 End minimization
 Ecorr=   1962.81205874115     
 A_corr= -0.158987813788773     
 Ecorr_band=  -1962.97104655494     
 End Solvation calculations
 206 F= -.18154943E+03 E0= -.18153894E+03  d E =-.270207E-04
quench:  g(F)=  0.000E+00 g(S)=  0.000E+00 dE (1.order)= 0.000E+00
 bond charge predicted
       N       E                     dE             d eps       ncg     rms          rms(c)
 Begin Solvation calculations
  rms_SCF =   2.446097218863058E-003 tol =   2.446097218863058E-004
 Begin minimization
 Creating dielectric and ionic cavities
  area:      161.783511639359     
  volume:    782.825306110704     
  Acav:     8.493634361066354E-002
  Solving linear dielectric/ionic screening model
        iter                  A_solv                     rms
   LPB:       -0.244004839762548E+00   0.954380700181556E-03
   LPB:    0  -0.244004839755202E+00   0.964192909935095E-03   0.668290E-06   0.000000E+00   0.328941E+02   0.219828E-04
   LPB:    1  -0.243929604603175E+00   0.437353441485855E-03   0.157542E-01   0.000000E+00   0.596637E+06   0.104421E-20
   LPB:    2  -0.243920395603936E+00   0.653060390038370E-03   0.283517E-01   0.680155E-01   0.110266E+06   0.910573E-18
   LPB:    3  -0.243917278835156E+00   0.161865359700836E-02   0.331679E-01   0.289303E+00   0.153123E+05   0.144056E-17
   LPB:    4  -0.243915935084440E+00   0.422011786520000E-02   0.339707E-01   0.420948E+00   0.114714E+04   0.525545E-17
   LPB:    5  -0.243915405055660E+00   0.522509159658831E-02   0.220649E-01   0.607271E+00   0.185375E+03   0.973630E-17
   LPB:    6  -0.243914994668946E+00   0.169018681176649E-02   0.211545E-01   0.807593E+00   0.287716E+03   0.154567E-16
   LPB:    7  -0.243914712562036E+00   0.168235631545203E-02   0.333666E-01   0.435825E+00   0.622656E+03   0.178236E-16
   LPB:    8  -0.243914565606158E+00   0.183434471211710E-02   0.267970E-01   0.648632E+00   0.179054E+03   0.228501E-16
   LPB:    9  -0.243914457828339E+00   0.703788257386486E-03   0.259478E-01   0.757406E+00   0.250130E+03   0.320275E-16
   LPB:   10  -0.243914377709086E+00   0.198481042008137E-03   0.370407E-01   0.520749E+00   0.139367E+04   0.561028E-16
  Finished solving LPB equations
  A_corr:   -0.158978034098422     
 End minimization
 Ecorr=   1962.80929529251     
 A_corr= -0.158978034098422     
 Ecorr_band=  -1962.96827332661     
 End Solvation calculations
DAV:   1    -0.181549444514E+03   -0.32889E-04   -0.40889E-03 10047   0.852E-02    0.179E-02
 Begin Solvation calculations
  rms_SCF =   2.446097218863058E-003 tol =   2.446097218863058E-004
 Begin minimization
 Creating dielectric and ionic cavities
  area:      161.784665436064     
  volume:    782.841412516789     
  Acav:     8.493694935393366E-002
  Solving linear dielectric/ionic screening model
        iter                  A_solv                     rms
   LPB:       -0.243786047272485E+00   0.526369035675142E-01
   LPB:    0  -0.243783682108250E+00   0.431382752714319E-01   0.379220E-03   0.000000E+00   0.328934E+02   0.124738E-01
   LPB:    1  -0.243776741289050E+00   0.602334015160852E-02   0.962676E-02   0.000000E+00   0.766075E+02  -0.713596E-18
   LPB:    2  -0.243775910247526E+00   0.142356748821528E-02   0.140640E-01   0.819565E-01   0.256086E+03  -0.332004E-17
   LPB:    3  -0.243775727064335E+00   0.144588444780391E-02   0.242057E-01   0.128072E+00   0.406874E+03  -0.242118E-16
   LPB:    4  -0.243775659376766E+00   0.935464536662440E-03   0.216599E-01   0.412938E+00   0.140098E+03  -0.331591E-16
   LPB:    5  -0.243775613996960E+00   0.437762115921137E-03   0.287981E-01   0.504252E+00   0.374669E+03  -0.347920E-16
   LPB:    6  -0.243775584064994E+00   0.246260168955449E-03   0.355495E-01   0.534321E+00   0.415748E+03  -0.155353E-16
   LPB:    7  -0.243775562655212E+00   0.168996109360827E-03   0.368162E-01   0.690671E+00   0.986833E+03  -0.114648E-16
  Finished solving LPB equations
  A_corr:   -0.158838613301278     
 End minimization
 Ecorr=   1962.77662511237     
 A_corr= -0.158838613301278     
 Ecorr_band=  -1962.93546372567     
 End Solvation calculations
RMM:   2    -0.181549493129E+03   -0.48615E-04   -0.10231E-04  5831   0.146E-02
 Begin Solvation calculations
  rms_SCF =   2.446097218863058E-003 tol =   2.446097218863058E-004
 Begin minimization
 Creating dielectric and ionic cavities
  area:      161.792928102146     
  volume:    782.829196553973     
  Acav:     8.494128725362683E-002
  Solving linear dielectric/ionic screening model
        iter                  A_solv                     rms
   LPB:       -0.243856991513294E+00   0.647429833857236E-01
   LPB:    0  -0.243855763398026E+00   0.611671842858669E-01  -0.273260E-03   0.000000E+00   0.328940E+02  -0.898861E-02
   LPB:    1  -0.243844980127806E+00   0.529737022816364E-02   0.880655E-02   0.000000E+00   0.735596E+02   0.691108E-18
   LPB:    2  -0.243844121930374E+00   0.135048807379252E-02   0.143131E-01   0.489677E-01   0.205346E+03   0.153471E-16
   LPB:    3  -0.243843988369854E+00   0.114933312896485E-02   0.239667E-01   0.929427E-01   0.185773E+03   0.130059E-16
   LPB:    4  -0.243843939973933E+00   0.743976447952005E-03   0.231527E-01   0.375091E+00   0.159521E+03   0.914610E-17
   LPB:    5  -0.243843913536918E+00   0.346207292774676E-03   0.247036E-01   0.511971E+00   0.385591E+03   0.512825E-17
   LPB:    6  -0.243843898536074E+00   0.214589787976609E-03   0.315955E-01   0.443649E+00   0.390966E+03   0.585818E-17
  Finished solving LPB equations
  A_corr:   -0.158902611282447     
 End minimization
 Ecorr=   1962.81485518767     
 A_corr= -0.158902611282447     
 Ecorr_band=  -1962.97375779895     
 End Solvation calculations
