 vasp.5.4.4.18Apr17-6-g9f103f2a35 (build Feb 06 2024 13:54:16) complex          
  
 POSCAR found type information on POSCAR  Cu Rh Cu N  O 
 03/POSCAR found :  5 types and      40 ions
 scaLAPACK will be used

 ----------------------------------------------------------------------------- 
|                                                                             |
|  ADVICE TO THIS USER RUNNING 'VASP/VAMP'   (HEAR YOUR MASTER'S VOICE ...):  |
|                                                                             |
|      You enforced a specific xc-type in the INCAR file,                     |
|      a different type was found on the POTCAR file                          |
|          I HOPE YOU KNOW, WHAT YOU ARE  DOING                               |
|                                                                             |
 ----------------------------------------------------------------------------- 

 LDA part: xc-table for Pade appr. of Perdew
 POSCAR found type information on POSCAR  Cu Rh Cu N  O 
 00/POSCAR found :  5 types and      40 ions
 POSCAR found type information on POSCAR  Cu Rh Cu N  O 
 06/POSCAR found :  5 types and      40 ions
 Jacobian:    19.9537150754471     
 POSCAR, INCAR and KPOINTS ok, starting setup
 FFT: planning ...
 WAVECAR not read
 entering main loop
       N       E                     dE             d eps       ncg     rms          rms(c)
  Solvation turned off during non-self-consistent phase (first NELMDL steps)
DAV:   1     0.449535453901E+04    0.44954E+04   -0.18308E+05 12240   0.211E+03
DAV:   2     0.690436648595E+03   -0.38049E+04   -0.36721E+04 12348   0.494E+02
DAV:   3    -0.182315049603E+02   -0.70867E+03   -0.65521E+03 13860   0.245E+02
DAV:   4    -0.148579680801E+03   -0.13035E+03   -0.11382E+03 21753   0.985E+01
DAV:   5    -0.164932476669E+03   -0.16353E+02   -0.15380E+02 19161   0.342E+01    0.457E+01
 Begin Solvation calculations
  rms_SCF =    8.66054192571951      tol =   0.866054192571951     
 Begin minimization
 Creating dielectric and ionic cavities
  area:      145.797434275343     
  volume:    640.904915423224     
  Acav:     7.654365299455530E-002
  Solving linear dielectric/ionic screening model
        iter                  A_solv                     rms
   LPB:       -0.392290699042057E+03   0.285443427567235E+03
   LPB:    0  -0.125956946512688E+02   0.580644399376449E+02  -0.513106E+01   0.000000E+00   0.288437E+02  -0.147999E+03
   LPB:    1  -0.191848949212130E+01   0.720243878834419E+01   0.950007E-02   0.000000E+00   0.691022E+02   0.665842E-14
   LPB:    2  -0.624600728512235E+00   0.101446358452866E+01   0.140091E-01   0.821781E-01   0.287439E+03   0.401821E-13
   LPB:    3  -0.399811106156221E+00   0.129396744139398E+01   0.258685E-01   0.940845E-01   0.563719E+03   0.476444E-13
   LPB:    4  -0.330940495467019E+00   0.103081040867565E+01   0.244942E-01   0.323569E+00   0.762411E+02   0.489256E-13
   LPB:    5  -0.295853052170571E+00   0.667413260565685E+00   0.232018E-01   0.537846E+00   0.397847E+03   0.560167E-13
  Finished solving LPB equations
  A_corr:   -0.219309399176016     
 End minimization
 Ecorr=   2051.54133430207     
 A_corr= -0.219309399176016     
 Ecorr_band=  -2051.76064370125     
 End Solvation calculations
RMM:   6    -0.176785284360E+03   -0.11853E+02   -0.38329E+02 12468   0.972E+01    0.453E+01
 Begin Solvation calculations
  rms_SCF =    8.66054192571951      tol =   0.866054192571951     
 Begin minimization
 Creating dielectric and ionic cavities
  area:      142.897766249230     
  volume:    650.291112425161     
  Acav:     7.502132728084561E-002
  Solving linear dielectric/ionic screening model
        iter                  A_solv                     rms
   LPB:       -0.357922157706010E+02   0.116658049766028E+03
   LPB:    0  -0.349825654383414E+02   0.115501738354853E+03   0.238768E+00   0.000000E+00   0.284036E+02   0.678189E+01
   LPB:    1  -0.308476744451064E+01   0.104809759026584E+02   0.873242E-02   0.000000E+00   0.626536E+02  -0.487443E-16
   LPB:    2  -0.669648794570890E+00   0.193705611272842E+01   0.150319E-01   0.439844E-01   0.130297E+03  -0.475253E-14
   LPB:    3  -0.379351622511933E+00   0.888735403816003E+00   0.229727E-01   0.786515E-01   0.164142E+03  -0.285103E-14
   LPB:    4  -0.306168315203834E+00   0.933525359084004E+00   0.239724E-01   0.241585E+00   0.286291E+03   0.382090E-14
   LPB:    5  -0.276090556056431E+00   0.580600556124128E+00   0.236806E-01   0.416055E+00   0.966014E+02   0.320435E-14
  Finished solving LPB equations
  A_corr:   -0.201069228775585     
 End minimization
 Ecorr=   1957.22390468257     
 A_corr= -0.201069228775585     
 Ecorr_band=  -1957.42497391134     
 End Solvation calculations
RMM:   7    -0.164601675961E+03    0.12184E+02   -0.13377E+02 12710   0.477E+01    0.307E+01
 Begin Solvation calculations
  rms_SCF =    8.66054192571951      tol =   0.866054192571951     
 Begin minimization
 Creating dielectric and ionic cavities
  area:      153.138357314634     
  volume:    651.838962846713     
  Acav:     8.039763759018281E-002
  Solving linear dielectric/ionic screening model
        iter                  A_solv                     rms
   LPB:       -0.129463771305581E+02   0.698408482516561E+02
   LPB:    0  -0.129398246408256E+02   0.698310725076376E+02   0.215073E-01   0.000000E+00   0.283311E+02   0.609326E+00
   LPB:    1  -0.125768813915465E+01   0.648804737277419E+01   0.878438E-02   0.000000E+00   0.620915E+02  -0.441729E-16
   LPB:    2  -0.313904373579446E+00   0.935546224495002E+00   0.152707E-01   0.464733E-01   0.127601E+03   0.237464E-15
   LPB:    3  -0.193683632526112E+00   0.341053714169984E+00   0.228700E-01   0.850548E-01   0.284017E+03   0.237040E-14
   LPB:    4  -0.169521478034664E+00   0.228678720820506E+00   0.247000E-01   0.186091E+00   0.388276E+03   0.279354E-14
  Finished solving LPB equations
  A_corr:   -8.912384044448107E-002
 End minimization
 Ecorr=   1942.61950730123     
 A_corr= -8.912384044448107E-002
 Ecorr_band=  -1942.70863114168     
 End Solvation calculations
RMM:   8    -0.145158785815E+03    0.19443E+02   -0.99076E+00 12535   0.134E+01    0.207E+01
 Begin Solvation calculations
  rms_SCF =    3.02184206539144      tol =   0.302184206539144     
 Begin minimization
 Creating dielectric and ionic cavities
  area:      153.880795384333     
  volume:    652.521832643225     
  Acav:     8.078741757677504E-002
  Solving linear dielectric/ionic screening model
        iter                  A_solv                     rms
   LPB:       -0.131433032462413E+01   0.207868300132738E+02
   LPB:    0  -0.131422072075851E+01   0.207943371025885E+02   0.278318E-02   0.000000E+00   0.282991E+02   0.787615E-01
   LPB:    1  -0.273038663378401E+00   0.200437992686375E+01   0.880992E-02   0.000000E+00   0.618547E+02  -0.572169E-17
   LPB:    2  -0.179779186966738E+00   0.366641876472759E+00   0.160133E-01   0.492783E-01   0.115811E+03   0.397418E-14
   LPB:    3  -0.166124146325433E+00   0.189870701192700E+00   0.224450E-01   0.104463E+00   0.202691E+03   0.141138E-14
   LPB:    4  -0.161814283966669E+00   0.972343113920815E-01   0.313823E-01   0.225738E+00   0.842571E+02   0.181390E-16
  Finished solving LPB equations
  A_corr:   -8.102686638989348E-002
 End minimization
 Ecorr=   1915.29779726000     
 A_corr= -8.102686638989348E-002
 Ecorr_band=  -1915.37882412639     
 End Solvation calculations
RMM:   9    -0.140944931163E+03    0.42139E+01   -0.52905E+00 12659   0.939E+00    0.126E+01
 Begin Solvation calculations
  rms_SCF =    3.02184206539144      tol =   0.302184206539144     
 Begin minimization
 Creating dielectric and ionic cavities
  area:      138.868681004033     
  volume:    653.667819483011     
  Acav:     7.290605752711721E-002
  Solving linear dielectric/ionic screening model
        iter                  A_solv                     rms
   LPB:       -0.153807460311227E+01   0.221619203163897E+02
   LPB:    0  -0.148404404730405E+01   0.220228705829668E+02   0.618531E-01   0.000000E+00   0.282453E+02   0.174706E+01
   LPB:    1  -0.301859679418117E+00   0.206527827031837E+01   0.882641E-02   0.000000E+00   0.625065E+02  -0.656832E-16
   LPB:    2  -0.205535234368536E+00   0.324100055740909E+00   0.153230E-01   0.469344E-01   0.125183E+03  -0.177862E-14
   LPB:    3  -0.190341770991849E+00   0.163306826064135E+00   0.244994E-01   0.986525E-01   0.240068E+03  -0.152014E-14
   LPB:    4  -0.184730532843795E+00   0.154128389782049E+00   0.317086E-01   0.285352E+00   0.171534E+03  -0.130354E-14
  Finished solving LPB equations
  A_corr:   -0.111824475316678     
 End minimization
 Ecorr=   1869.65031111575     
 A_corr= -0.111824475316678     
 Ecorr_band=  -1869.76213559106     
 End Solvation calculations
RMM:  10    -0.136961759237E+03    0.39832E+01   -0.64299E+00 12572   0.620E+00    0.666E+00
 Begin Solvation calculations
  rms_SCF =    1.24900742072870      tol =   0.124900742072870     
 Begin minimization
 Creating dielectric and ionic cavities
  area:      133.965204738404     
  volume:    650.850984046784     
  Acav:     7.033173248766204E-002
  Solving linear dielectric/ionic screening model
        iter                  A_solv                     rms
   LPB:       -0.301340416296567E+00   0.489341056988660E+01
   LPB:    0  -0.291074333002216E+00   0.423645798864252E+01  -0.268987E-01   0.000000E+00   0.283774E+02  -0.763315E+00
   LPB:    1  -0.220721807374295E+00   0.840795742990671E+00   0.106585E-01   0.000000E+00   0.635484E+02   0.670483E-17
   LPB:    2  -0.209326879721432E+00   0.181697777140752E+00   0.145141E-01   0.118943E+00   0.187491E+03  -0.105253E-13
   LPB:    3  -0.204124283246386E+00   0.339834182198906E+00   0.348955E-01   0.189901E+00   0.181484E+03  -0.117881E-13
   LPB:    4  -0.200529686779702E+00   0.304536307598845E+00   0.272973E-01   0.883241E+00   0.346006E+02  -0.127268E-13
   LPB:    5  -0.197215490223855E+00   0.152336268878129E+00   0.307938E-01   0.817307E+00   0.126334E+03  -0.137632E-13
   LPB:    6  -0.194926831077336E+00   0.518154789929734E-01   0.363015E-01   0.585789E+00   0.539018E+02  -0.169734E-13
  Finished solving LPB equations
  A_corr:   -0.124595098589674     
 End minimization
 Ecorr=   1844.39233361531     
 A_corr= -0.124595098589674     
 Ecorr_band=  -1844.51692871390     
 End Solvation calculations
RMM:  11    -0.136644985766E+03    0.31677E+00   -0.59374E-01 12714   0.237E+00    0.382E+00
 Begin Solvation calculations
  rms_SCF =   0.360227992205910      tol =   3.602279922059103E-002
 Begin minimization
 Creating dielectric and ionic cavities
  area:      127.240747369956     
  volume:    646.934755928512     
  Acav:     6.680139236922715E-002
  Solving linear dielectric/ionic screening model
        iter                  A_solv                     rms
   LPB:       -0.276924132426641E+00   0.127762378117147E+01
   LPB:    0  -0.276835050386097E+00   0.138032503292080E+01   0.249760E-02   0.000000E+00   0.285610E+02   0.713340E-01
   LPB:    1  -0.230756528896321E+00   0.690639019470489E+00   0.168515E-01   0.000000E+00   0.115068E+03  -0.610141E-17
   LPB:    2  -0.224450691300032E+00   0.322000457520789E+00   0.168893E-01   0.136543E+00   0.117692E+03  -0.699343E-15
   LPB:    3  -0.222150166566006E+00   0.165869080415062E+00   0.204961E-01   0.300625E+00   0.120667E+03   0.813700E-16
   LPB:    4  -0.220612595927591E+00   0.251308458845587E+00   0.283685E-01   0.482884E+00   0.892997E+02   0.501803E-15
   LPB:    5  -0.219254070893144E+00   0.216926979094180E+00   0.255268E-01   0.981914E+00   0.155711E+03   0.866254E-15
   LPB:    6  -0.217810216779377E+00   0.884986528878025E-01   0.341918E-01   0.793467E+00   0.448876E+02   0.152862E-14
   LPB:    7  -0.216768480042975E+00   0.396676415153402E-01   0.349362E-01   0.706126E+00   0.878642E+02   0.165390E-14
   LPB:    8  -0.216121992138093E+00   0.279614952861779E-01   0.343832E-01   0.630567E+00   0.106875E+03   0.155970E-14
  Finished solving LPB equations
  A_corr:   -0.149320599768866     
 End minimization
 Ecorr=   1814.51651777229     
 A_corr= -0.149320599768866     
 Ecorr_band=  -1814.66583837206     
 End Solvation calculations
RMM:  12    -0.136895016726E+03   -0.25003E+00   -0.70462E-01 12564   0.298E+00    0.436E+00
 Begin Solvation calculations
  rms_SCF =   0.360227992205910      tol =   3.602279922059103E-002
 Begin minimization
 Creating dielectric and ionic cavities
  area:      125.030573525714     
  volume:    643.807817061454     
  Acav:     6.564105110099969E-002
  Solving linear dielectric/ionic screening model
        iter                  A_solv                     rms
   LPB:       -0.277722996360293E+00   0.192771125869371E+01
   LPB:    0  -0.277615377196319E+00   0.182845091905518E+01  -0.273818E-02   0.000000E+00   0.287076E+02  -0.786064E-01
   LPB:    1  -0.247507165983948E+00   0.823099930012643E+00   0.131945E-01   0.000000E+00   0.771510E+02  -0.118671E-17
   LPB:    2  -0.242186632377697E+00   0.188848377541529E+00   0.140578E-01   0.165861E+00   0.122031E+03   0.438535E-14
   LPB:    3  -0.240634157418162E+00   0.162993025539561E+00   0.202549E-01   0.202515E+00   0.278977E+03   0.492595E-14
   LPB:    4  -0.240027685076702E+00   0.108670173650541E+00   0.214009E-01   0.369730E+00   0.689290E+02   0.513233E-14
   LPB:    5  -0.239559574050152E+00   0.825882230854463E-01   0.311534E-01   0.530229E+00   0.222343E+03   0.470698E-14
   LPB:    6  -0.239054550198689E+00   0.353341311516734E-01   0.418675E-01   0.802771E+00   0.601218E+02   0.374579E-14
  Finished solving LPB equations
  A_corr:   -0.173413499097690     
 End minimization
 Ecorr=   1796.78443046831     
 A_corr= -0.173413499097690     
 Ecorr_band=  -1796.95784396741     
 End Solvation calculations
RMM:  13    -0.136732259064E+03    0.16276E+00   -0.17153E-01 12569   0.183E+00    0.365E+00
 Begin Solvation calculations
  rms_SCF =   0.360227992205910      tol =   3.602279922059103E-002
 Begin minimization
 Creating dielectric and ionic cavities
  area:      124.100570301063     
  volume:    642.226641173459     
  Acav:     6.515279940805803E-002
  Solving linear dielectric/ionic screening model
        iter                  A_solv                     rms
   LPB:       -0.288854527573081E+00   0.110147677859298E+01
   LPB:    0  -0.282559384902044E+00   0.110872666257113E+01   0.209151E-01   0.000000E+00   0.287817E+02   0.601972E+00
   LPB:    1  -0.264855533023241E+00   0.773470110957081E+00   0.143668E-01   0.000000E+00   0.116748E+03   0.256490E-16
   LPB:    2  -0.261609619245011E+00   0.144050382279733E+00   0.131942E-01   0.199640E+00   0.824753E+02  -0.172270E-14
   LPB:    3  -0.260496210464562E+00   0.785880986630542E-01   0.224073E-01   0.201981E+00   0.186748E+03  -0.120923E-14
   LPB:    4  -0.259748849414524E+00   0.805274898428563E-01   0.381604E-01   0.394142E+00   0.781608E+02  -0.103651E-14
   LPB:    5  -0.259096287771022E+00   0.131581379890321E+00   0.347212E-01   0.959643E+00   0.177904E+03  -0.828814E-15
   LPB:    6  -0.258583383348333E+00   0.828231770011926E-01   0.283027E-01   0.964231E+00   0.370734E+02  -0.849501E-15
   LPB:    7  -0.258196293645625E+00   0.385282730433074E-01   0.303921E-01   0.702818E+00   0.181080E+03   0.375044E-15
   LPB:    8  -0.257917946119563E+00   0.162502545199787E-01   0.355978E-01   0.613923E+00   0.113970E+03   0.825372E-15
  Finished solving LPB equations
  A_corr:   -0.192765146711505     
 End minimization
 Ecorr=   1770.28753155815     
 A_corr= -0.192765146711505     
 Ecorr_band=  -1770.48029670487     
 End Solvation calculations
RMM:  14    -0.136526783702E+03    0.20548E+00   -0.20269E-01 12592   0.136E+00    0.112E+00
 Begin Solvation calculations
  rms_SCF =   0.355530958989001      tol =   3.555309589890011E-002
 Begin minimization
 Creating dielectric and ionic cavities
  area:      123.853721046174     
  volume:    641.099834868799     
  Acav:     6.502320354924125E-002
  Solving linear dielectric/ionic screening model
        iter                  A_solv                     rms
   LPB:       -0.278758850785488E+00   0.558685412246137E+00
   LPB:    0  -0.278190908915244E+00   0.703210970154189E+00   0.627640E-02   0.000000E+00   0.288345E+02   0.180977E+00
   LPB:    1  -0.271448660598157E+00   0.466099756177569E+00   0.138937E-01   0.000000E+00   0.110004E+03  -0.608569E-17
   LPB:    2  -0.270187014200437E+00   0.876117560498565E-01   0.134390E-01   0.193458E+00   0.848514E+02  -0.426108E-15
   LPB:    3  -0.269817761347698E+00   0.632395567611014E-01   0.210322E-01   0.187012E+00   0.247886E+03  -0.474031E-15
   LPB:    4  -0.269674897233955E+00   0.497868689091598E-01   0.234795E-01   0.346572E+00   0.811711E+02  -0.507388E-15
   LPB:    5  -0.269561106047981E+00   0.533245261994025E-01   0.316459E-01   0.590959E+00   0.257343E+03  -0.592000E-15
   LPB:    6  -0.269402190434621E+00   0.250650354907369E-01   0.439666E-01   0.100520E+01   0.447771E+02  -0.746903E-15
  Finished solving LPB equations
  A_corr:   -0.204378986885380     
 End minimization
 Ecorr=   1759.46159954327     
 A_corr= -0.204378986885380     
 Ecorr_band=  -1759.66597853015     
 End Solvation calculations
RMM:  15    -0.136524714867E+03    0.20688E-02   -0.68922E-02 12897   0.748E-01    0.657E-01
 Begin Solvation calculations
  rms_SCF =   0.355530958989001      tol =   3.555309589890011E-002
 Begin minimization
 Creating dielectric and ionic cavities
  area:      123.885238642215     
  volume:    640.843970640234     
  Acav:     6.503975028716291E-002
  Solving linear dielectric/ionic screening model
        iter                  A_solv                     rms
   LPB:       -0.272081920909073E+00   0.178133966978013E+00
   LPB:    0  -0.272059840329545E+00   0.191824587899809E+00   0.123730E-02   0.000000E+00   0.288465E+02   0.356917E-01
   LPB:    1  -0.271406919182085E+00   0.568322246132945E-01   0.175456E-01   0.000000E+00   0.106231E+03  -0.293891E-17
   LPB:    2  -0.271317660986823E+00   0.487019927335272E-01   0.159259E-01   0.150609E+00   0.260517E+03  -0.139375E-15
   LPB:    3  -0.271276844088618E+00   0.375949927053536E-01   0.216127E-01   0.336966E+00   0.746258E+02  -0.221062E-15
   LPB:    4  -0.271194699558880E+00   0.495067400053386E-01   0.523229E-01   0.831297E+00   0.607919E+02  -0.262947E-15
   LPB:    5  -0.271080463575811E+00   0.630341610081384E-01   0.374869E-01   0.194105E+01   0.682029E+02  -0.439590E-15
   LPB:    6  -0.270999625140237E+00   0.220722155151268E-01   0.236420E-01   0.112205E+01   0.305898E+02  -0.664677E-15
  Finished solving LPB equations
  A_corr:   -0.205959874853074     
 End minimization
 Ecorr=   1754.78856450255     
 A_corr= -0.205959874853074     
 Ecorr_band=  -1754.99452437740     
 End Solvation calculations
RMM:  16    -0.136522879046E+03    0.18358E-02   -0.10129E-02 15185   0.245E-01    0.495E-01
 Begin Solvation calculations
  rms_SCF =   0.355530958989001      tol =   3.555309589890011E-002
 Begin minimization
 Creating dielectric and ionic cavities
  area:      124.112366708734     
  volume:    640.342165530448     
  Acav:     6.515899252208555E-002
  Solving linear dielectric/ionic screening model
        iter                  A_solv                     rms
   LPB:       -0.277189108986689E+00   0.602429561674538E+00
   LPB:    0  -0.277181161519762E+00   0.589867917784829E+00  -0.742003E-03   0.000000E+00   0.288701E+02  -0.214217E-01
   LPB:    1  -0.274650793238840E+00   0.200644627241641E+00   0.145405E-01   0.000000E+00   0.654804E+02  -0.108858E-17
   LPB:    2  -0.274212298291880E+00   0.594676058910849E-01   0.127493E-01   0.197639E+00   0.222284E+03  -0.483708E-15
   LPB:    3  -0.274112518746251E+00   0.303017918612543E-01   0.193532E-01   0.149903E+00   0.167414E+03  -0.647999E-15
   LPB:    4  -0.274077176735432E+00   0.276922615555878E-01   0.228400E-01   0.300128E+00   0.116721E+03  -0.543614E-15
  Finished solving LPB equations
  A_corr:   -0.208918184213347     
 End minimization
 Ecorr=   1752.74368979075     
 A_corr= -0.208918184213347     
 Ecorr_band=  -1752.95260797496     
 End Solvation calculations
RMM:  17    -0.136520427678E+03    0.24514E-02   -0.24053E-03 14116   0.121E-01    0.236E-01
 Begin Solvation calculations
  rms_SCF =   0.338148295521776      tol =   3.381482955217756E-002
 Begin minimization
 Creating dielectric and ionic cavities
  area:      124.710405978856     
  volume:    639.235992726315     
  Acav:     6.547296313889957E-002
  Solving linear dielectric/ionic screening model
        iter                  A_solv                     rms
   LPB:       -0.296392572847450E+00   0.758822860613062E+00
   LPB:    0  -0.296383708869961E+00   0.779242996727132E+00   0.782917E-03   0.000000E+00   0.289219E+02   0.226435E-01
   LPB:    1  -0.285530956383709E+00   0.252516249817583E+00   0.167616E-01   0.000000E+00   0.110014E+03  -0.858200E-18
   LPB:    2  -0.284210701704911E+00   0.131918807353123E+00   0.161669E-01   0.126127E+00   0.129871E+03  -0.154079E-14
   LPB:    3  -0.283766139916269E+00   0.570702491886101E-01   0.226684E-01   0.240149E+00   0.844033E+02  -0.241956E-14
   LPB:    4  -0.283537918736377E+00   0.362822207331440E-01   0.299550E-01   0.388486E+00   0.214309E+03  -0.270874E-14
   LPB:    5  -0.283405946598868E+00   0.682598286692243E-01   0.317106E-01   0.546250E+00   0.174853E+03  -0.311347E-14
   LPB:    6  -0.283331121158576E+00   0.580079399817630E-01   0.207991E-01   0.864425E+00   0.674922E+02  -0.362319E-14
   LPB:    7  -0.283253331015985E+00   0.210631383086446E-01   0.281386E-01   0.768452E+00   0.193577E+03  -0.392204E-14
  Finished solving LPB equations
  A_corr:   -0.217780367877086     
 End minimization
 Ecorr=   1745.94175178765     
 A_corr= -0.217780367877086     
 Ecorr_band=  -1746.15953215553     
 End Solvation calculations
RMM:  18    -0.136521512616E+03   -0.10849E-02   -0.25060E-03 12490   0.149E-01    0.172E-01
 Begin Solvation calculations
  rms_SCF =   0.257081283801927      tol =   2.570812838019271E-002
 Begin minimization
 Creating dielectric and ionic cavities
  area:      125.078677434086     
  volume:    638.619795711280     
  Acav:     6.566630565289495E-002
  Solving linear dielectric/ionic screening model
        iter                  A_solv                     rms
   LPB:       -0.295043409778259E+00   0.527315060066773E+00
   LPB:    0  -0.295043408016682E+00   0.527635469098416E+00   0.110315E-04   0.000000E+00   0.289508E+02   0.319372E-03
   LPB:    1  -0.290555139691944E+00   0.177811363866997E+00   0.165745E-01   0.000000E+00   0.989135E+02   0.192325E-19
   LPB:    2  -0.289988426179298E+00   0.818752305028335E-01   0.155238E-01   0.134811E+00   0.126173E+03   0.255539E-15
   LPB:    3  -0.289820671403059E+00   0.330210822118476E-01   0.220565E-01   0.208340E+00   0.923080E+02   0.167539E-15
   LPB:    4  -0.289729528291951E+00   0.385971796067963E-01   0.336321E-01   0.356312E+00   0.159878E+03  -0.171053E-15
   LPB:    5  -0.289655112394395E+00   0.723461838308596E-01   0.309516E-01   0.887184E+00   0.122992E+03  -0.319300E-15
   LPB:    6  -0.289580457875605E+00   0.360041002339079E-01   0.236315E-01   0.131396E+01   0.472480E+02  -0.437496E-15
   LPB:    7  -0.289510487373365E+00   0.105768955286287E-01   0.333279E-01   0.664573E+00   0.140369E+03  -0.707830E-15
  Finished solving LPB equations
  A_corr:   -0.223844181720471     
 End minimization
 Ecorr=   1740.70276324656     
 A_corr= -0.223844181720471     
 Ecorr_band=  -1740.92660742828     
 End Solvation calculations
RMM:  19    -0.136521985224E+03   -0.47261E-03   -0.10417E-03 12477   0.106E-01    0.144E-01
 Begin Solvation calculations
  rms_SCF =   0.257081283801927      tol =   2.570812838019271E-002
 Begin minimization
 Creating dielectric and ionic cavities
  area:      125.275982249514     
  volume:    638.331516089192     
  Acav:     6.576989068099462E-002
  Solving linear dielectric/ionic screening model
        iter                  A_solv                     rms
   LPB:       -0.295287261193958E+00   0.426531686945679E+00
   LPB:    0  -0.295277641259107E+00   0.405556719708916E+00  -0.815022E-03   0.000000E+00   0.289643E+02  -0.236066E-01
   LPB:    1  -0.293438521209223E+00   0.107737417596223E+00   0.162068E-01   0.000000E+00   0.756966E+02  -0.156917E-17
   LPB:    2  -0.293215861131378E+00   0.544088063038905E-01   0.146039E-01   0.134357E+00   0.193027E+03  -0.238292E-14
   LPB:    3  -0.293158458313029E+00   0.283889161722334E-01   0.190163E-01   0.197986E+00   0.971425E+02  -0.310952E-14
   LPB:    4  -0.293136047626270E+00   0.341220019328282E-01   0.219525E-01   0.338192E+00   0.145236E+03  -0.312379E-14
   LPB:    5  -0.293112082092097E+00   0.244655014798492E-01   0.296052E-01   0.792956E+00   0.869226E+02  -0.312422E-14
  Finished solving LPB equations
  A_corr:   -0.227342191411103     
 End minimization
 Ecorr=   1738.70320548640     
 A_corr= -0.227342191411103     
 Ecorr_band=  -1738.93054767781     
 End Solvation calculations
RMM:  20    -0.136522234430E+03   -0.24921E-03   -0.59592E-04 12919   0.527E-02    0.112E-01
 Begin Solvation calculations
  rms_SCF =   0.235650572873927      tol =   2.356505728739269E-002
 Begin minimization
 Creating dielectric and ionic cavities
  area:      125.637841175861     
  volume:    637.981455898283     
  Acav:     6.595986661732713E-002
  Solving linear dielectric/ionic screening model
        iter                  A_solv                     rms
   LPB:       -0.309347703065136E+00   0.913423516755762E+00
   LPB:    0  -0.309238901417116E+00   0.841257606731906E+00  -0.274017E-02   0.000000E+00   0.289807E+02  -0.794122E-01
   LPB:    1  -0.301370961919390E+00   0.202798993605074E+00   0.160316E-01   0.000000E+00   0.773866E+02  -0.275981E-17
   LPB:    2  -0.300476646189603E+00   0.101213843692572E+00   0.152551E-01   0.119452E+00   0.157960E+03   0.290664E-14
   LPB:    3  -0.300226617417610E+00   0.432503184674514E-01   0.219186E-01   0.194581E+00   0.803558E+02   0.265243E-14
   LPB:    4  -0.300098510293307E+00   0.573694741690263E-01   0.290935E-01   0.386012E+00   0.233864E+03   0.250011E-14
   LPB:    5  -0.300023939118543E+00   0.668916844415125E-01   0.237399E-01   0.713371E+00   0.729435E+02   0.263020E-14
   LPB:    6  -0.299956462811744E+00   0.265018748229101E-01   0.242172E-01   0.887022E+00   0.104877E+03   0.273799E-14
   LPB:    7  -0.299895020803547E+00   0.104524134208895E-01   0.358650E-01   0.614847E+00   0.146369E+03   0.288261E-14
  Finished solving LPB equations
  A_corr:   -0.233935154186220     
 End minimization
 Ecorr=   1734.30269676599     
 A_corr= -0.233935154186220     
 Ecorr_band=  -1734.53663192018     
 End Solvation calculations
RMM:  21    -0.136523481373E+03   -0.12469E-02   -0.69992E-04 12413   0.632E-02    0.126E-01
 Begin Solvation calculations
  rms_SCF =   0.235650572873927      tol =   2.356505728739269E-002
 Begin minimization
 Creating dielectric and ionic cavities
  area:      125.906310833510     
  volume:    637.771214991682     
  Acav:     6.610081318759291E-002
  Solving linear dielectric/ionic screening model
        iter                  A_solv                     rms
   LPB:       -0.311859427538853E+00   0.860017378893318E+00
   LPB:    0  -0.311742637750028E+00   0.795838813957546E+00  -0.283850E-02   0.000000E+00   0.289906E+02  -0.822898E-01
   LPB:    1  -0.306201029884011E+00   0.181354867152126E+00   0.156274E-01   0.000000E+00   0.665308E+02   0.612398E-17
   LPB:    2  -0.305572508402373E+00   0.100797778587673E+00   0.143932E-01   0.123145E+00   0.214501E+03   0.465805E-15
   LPB:    3  -0.305410440719784E+00   0.471373300467939E-01   0.175888E-01   0.211007E+00   0.970507E+02  -0.136152E-15
   LPB:    4  -0.305346052147647E+00   0.511823700747270E-01   0.216536E-01   0.322714E+00   0.136225E+03  -0.608946E-15
   LPB:    5  -0.305293000139304E+00   0.341598583166793E-01   0.274601E-01   0.649713E+00   0.845561E+02  -0.744559E-15
   LPB:    6  -0.305232355885869E+00   0.147929413261686E-01   0.391008E-01   0.802793E+00   0.700436E+02  -0.909697E-15
  Finished solving LPB equations
  A_corr:   -0.239131542698276     
 End minimization
 Ecorr=   1731.32497592153     
 A_corr= -0.239131542698276     
 Ecorr_band=  -1731.56410746422     
 End Solvation calculations
RMM:  22    -0.136524048434E+03   -0.56706E-03   -0.57397E-04 12367   0.493E-02    0.974E-02
 Begin Solvation calculations
  rms_SCF =   0.202069429896654      tol =   2.020694298966545E-002
 Begin minimization
 Creating dielectric and ionic cavities
  area:      126.136197433883     
  volume:    637.678522521537     
  Acav:     6.622150365278862E-002
  Solving linear dielectric/ionic screening model
        iter                  A_solv                     rms
   LPB:       -0.316203755666133E+00   0.937513559381220E+00
   LPB:    0  -0.316089100882414E+00   0.887049933222394E+00  -0.281222E-02   0.000000E+00   0.289949E+02  -0.815403E-01
   LPB:    1  -0.310734771765343E+00   0.208251135830724E+00   0.147770E-01   0.000000E+00   0.596731E+02   0.191976E-17
   LPB:    2  -0.310122643316541E+00   0.100133910877978E+00   0.131686E-01   0.128287E+00   0.228937E+03  -0.291549E-16
   LPB:    3  -0.309966974518182E+00   0.376493903936068E-01   0.169919E-01   0.197087E+00   0.112227E+03  -0.170172E-15
   LPB:    4  -0.309896672861955E+00   0.464068323856532E-01   0.263163E-01   0.291595E+00   0.106698E+03  -0.117714E-15
   LPB:    5  -0.309837819766164E+00   0.373274286485467E-01   0.296320E-01   0.743477E+00   0.810745E+02  -0.143642E-15
   LPB:    6  -0.309778493600299E+00   0.159881175017063E-01   0.344737E-01   0.866464E+00   0.673095E+02  -0.165955E-15
  Finished solving LPB equations
  A_corr:   -0.243556989947510     
 End minimization
 Ecorr=   1728.70939090235     
 A_corr= -0.243556989947510     
 Ecorr_band=  -1728.95294789230     
 End Solvation calculations
RMM:  23    -0.136524432738E+03   -0.38430E-03   -0.36048E-04 12125   0.357E-02    0.573E-02
 Begin Solvation calculations
  rms_SCF =   0.135459638772415      tol =   1.354596387724149E-002
 Begin minimization
 Creating dielectric and ionic cavities
  area:      126.203065009808     
  volume:    637.769019131944     
  Acav:     6.625660913014915E-002
  Solving linear dielectric/ionic screening model
        iter                  A_solv                     rms
   LPB:       -0.313542315913628E+00   0.638630868308279E+00
   LPB:    0  -0.313469902886120E+00   0.606997878256323E+00  -0.223508E-02   0.000000E+00   0.289907E+02  -0.647967E-01
   LPB:    1  -0.311549297894618E+00   0.127627539380514E+00   0.133535E-01   0.000000E+00   0.572102E+02  -0.537325E-17
   LPB:    2  -0.311347638912515E+00   0.531118674673797E-01   0.123035E-01   0.113958E+00   0.227019E+03   0.473697E-15
   LPB:    3  -0.311298255029822E+00   0.155665055040289E-01   0.174439E-01   0.172724E+00   0.117019E+03   0.546045E-15
   LPB:    4  -0.311273897091357E+00   0.242774597477627E-01   0.344890E-01   0.249470E+00   0.901949E+02   0.516784E-15
   LPB:    5  -0.311241826889760E+00   0.321498692942868E-01   0.408986E-01   0.111028E+01   0.684313E+02   0.472332E-15
   LPB:    6  -0.311205571440490E+00   0.177757901121897E-01   0.323476E-01   0.142935E+01   0.445561E+02   0.439187E-15
   LPB:    7  -0.311181198815005E+00   0.600320563854561E-02   0.293261E-01   0.741510E+00   0.157076E+03   0.237386E-15
  Finished solving LPB equations
  A_corr:   -0.244924589684855     
 End minimization
 Ecorr=   1727.30951045912     
 A_corr= -0.244924589684855     
 Ecorr_band=  -1727.55443504880     
 End Solvation calculations
RMM:  24    -0.136524693364E+03   -0.26063E-03   -0.12207E-04 11046   0.278E-02    0.570E-02
 Begin Solvation calculations
  rms_SCF =   0.135459638772415      tol =   1.354596387724149E-002
 Begin minimization
 Creating dielectric and ionic cavities
  area:      126.251491545056     
  volume:    637.867856167744     
  Acav:     6.628203306115453E-002
  Solving linear dielectric/ionic screening model
        iter                  A_solv                     rms
   LPB:       -0.315545872038379E+00   0.779933811137432E+00
   LPB:    0  -0.315421597249680E+00   0.736600008393241E+00  -0.292828E-02   0.000000E+00   0.289861E+02  -0.848792E-01
   LPB:    1  -0.313001014142051E+00   0.151302922049754E+00   0.126149E-01   0.000000E+00   0.547261E+02  -0.193115E-17
   LPB:    2  -0.312729419726403E+00   0.486872026083204E-01   0.119347E-01   0.118597E+00   0.229310E+03  -0.381428E-16
   LPB:    3  -0.312674198596729E+00   0.154646813249929E-01   0.177488E-01   0.136718E+00   0.146245E+03  -0.446266E-16
   LPB:    4  -0.312662694434286E+00   0.142070576725393E-01   0.216764E-01   0.170581E+00   0.122703E+03  -0.328258E-16
   LPB:    5  -0.312657018635162E+00   0.107486882757646E-01   0.259399E-01   0.412280E+00   0.110199E+03   0.160057E-15
  Finished solving LPB equations
  A_corr:   -0.246374985574007     
 End minimization
 Ecorr=   1726.87288668174     
 A_corr= -0.246374985574007     
 Ecorr_band=  -1727.11926166731     
 End Solvation calculations
RMM:  25    -0.136524786355E+03   -0.92991E-04   -0.16087E-04 11870   0.242E-02    0.226E-02
 Begin Solvation calculations
  rms_SCF =   4.950888984243247E-002 tol =   4.950888984243247E-003
 Begin minimization
 Creating dielectric and ionic cavities
  area:      126.244628785444     
  volume:    637.961403130926     
  Acav:     6.627843011235797E-002
  Solving linear dielectric/ionic screening model
        iter                  A_solv                     rms
   LPB:       -0.313500650824331E+00   0.408929289056835E+00
   LPB:    0  -0.313463720825011E+00   0.386303791987606E+00  -0.159640E-02   0.000000E+00   0.289817E+02  -0.462665E-01
   LPB:    1  -0.312838860562229E+00   0.693439193123979E-01   0.118363E-01   0.000000E+00   0.583889E+02  -0.721562E-18
   LPB:    2  -0.312782559227910E+00   0.230251885197793E-01   0.113650E-01   0.938390E-01   0.233113E+03  -0.566786E-16
   LPB:    3  -0.312770867744890E+00   0.779483394847836E-02   0.199399E-01   0.118358E+00   0.104515E+03  -0.634698E-16
   LPB:    4  -0.312765085913480E+00   0.108745503379148E-01   0.334652E-01   0.294663E+00   0.742022E+02  -0.366088E-16
   LPB:    5  -0.312759764359332E+00   0.111347222182438E-01   0.339515E-01   0.907209E+00   0.857713E+02  -0.132357E-15
   LPB:    6  -0.312754643883834E+00   0.710608427490367E-02   0.316640E-01   0.103173E+01   0.674240E+02  -0.204606E-15
   LPB:    7  -0.312749083271458E+00   0.332922863993636E-02   0.387134E-01   0.888213E+00   0.110993E+03  -0.329046E-15
  Finished solving LPB equations
  A_corr:   -0.246470653159100     
 End minimization
 Ecorr=   1726.46771551245     
 A_corr= -0.246470653159100     
 Ecorr_band=  -1726.71418616561     
 End Solvation calculations
RMM:  26    -0.136524920879E+03   -0.13452E-03   -0.31798E-05  7677   0.177E-02    0.244E-02
 Begin Solvation calculations
  rms_SCF =   4.950888984243247E-002 tol =   4.950888984243247E-003
 Begin minimization
 Creating dielectric and ionic cavities
  area:      126.247949701622     
  volume:    638.008931578630     
  Acav:     6.628017359335162E-002
  Solving linear dielectric/ionic screening model
        iter                  A_solv                     rms
   LPB:       -0.313553632671007E+00   0.351293105722212E+00
   LPB:    0  -0.313530207684006E+00   0.334015518270769E+00  -0.127148E-02   0.000000E+00   0.289795E+02  -0.368468E-01
   LPB:    1  -0.313098812797810E+00   0.594362392135580E-01   0.115366E-01   0.000000E+00   0.568194E+02  -0.185890E-17
   LPB:    2  -0.313054735185907E+00   0.173662978770941E-01   0.116578E-01   0.101112E+00   0.229370E+03  -0.986888E-16
   LPB:    3  -0.313046787264091E+00   0.516213165527378E-02   0.186415E-01   0.112764E+00   0.139840E+03  -0.112081E-15
   LPB:    4  -0.313045224998237E+00   0.462090876043689E-02   0.227569E-01   0.161016E+00   0.127039E+03  -0.114638E-15
  Finished solving LPB equations
  A_corr:   -0.246765051404886     
 End minimization
 Ecorr=   1726.28895078310     
 A_corr= -0.246765051404886     
 Ecorr_band=  -1726.53571583450     
 End Solvation calculations
RMM:  27    -0.136524971225E+03   -0.50347E-04   -0.26545E-05  7515   0.154E-02    0.154E-02
 Begin Solvation calculations
  rms_SCF =   2.266924449310703E-002 tol =   2.266924449310702E-003
 Begin minimization
 Creating dielectric and ionic cavities
  area:      126.233061950107     
  volume:    638.035825898765     
  Acav:     6.627235752380597E-002
  Solving linear dielectric/ionic screening model
        iter                  A_solv                     rms
   LPB:       -0.312991153505282E+00   0.216228775820532E+00
   LPB:    0  -0.312985457255266E+00   0.210207693357997E+00  -0.627009E-03   0.000000E+00   0.289782E+02  -0.181696E-01
   LPB:    1  -0.312816251636695E+00   0.319147257261976E-01   0.103018E-01   0.000000E+00   0.711340E+02   0.146014E-17
   LPB:    2  -0.312804223351659E+00   0.640114175429759E-02   0.108066E-01   0.677664E-01   0.268381E+03  -0.400622E-16
   LPB:    3  -0.312802493261658E+00   0.224172936524015E-02   0.241704E-01   0.643087E-01   0.133954E+03  -0.302460E-16
   LPB:    4  -0.312801277450244E+00   0.182738612575221E-02   0.405358E-01   0.419028E+00   0.130799E+03  -0.368653E-16
  Finished solving LPB equations
  A_corr:   -0.246528919926439     
 End minimization
 Ecorr=   1726.17269619801     
 A_corr= -0.246528919926439     
 Ecorr_band=  -1726.41922511794     
 End Solvation calculations
RMM:  28    -0.136525041486E+03   -0.70260E-04   -0.13474E-05  7294   0.131E-02    0.101E-02
 Begin Solvation calculations
  rms_SCF =   2.080935384814516E-002 tol =   2.080935384814516E-003
 Begin minimization
 Creating dielectric and ionic cavities
  area:      126.236185062267     
  volume:    638.051223683190     
  Acav:     6.627399715769038E-002
  Solving linear dielectric/ionic screening model
        iter                  A_solv                     rms
   LPB:       -0.313393368297942E+00   0.318077944997576E+00
   LPB:    0  -0.313380095547427E+00   0.305781264779618E+00  -0.957117E-03   0.000000E+00   0.289775E+02  -0.277348E-01
   LPB:    1  -0.313063376800178E+00   0.467675203820321E-01   0.105682E-01   0.000000E+00   0.591518E+02  -0.607077E-18
   LPB:    2  -0.313034100293080E+00   0.128064304418585E-01   0.115552E-01   0.845417E-01   0.213902E+03  -0.102549E-16
   LPB:    3  -0.313029737037833E+00   0.427160150554253E-02   0.201565E-01   0.854383E-01   0.108267E+03   0.192675E-16
   LPB:    4  -0.313028233559550E+00   0.463565312929173E-02   0.297662E-01   0.233334E+00   0.777011E+02   0.296914E-16
   LPB:    5  -0.313027048924098E+00   0.543092241911819E-02   0.342383E-01   0.685015E+00   0.116337E+03  -0.105986E-16
   LPB:    6  -0.313025873166486E+00   0.368813756081830E-02   0.317700E-01   0.106961E+01   0.594757E+02  -0.280522E-16
   LPB:    7  -0.313024484687772E+00   0.169914790757651E-02   0.398152E-01   0.942302E+00   0.108315E+03   0.278517E-17
  Finished solving LPB equations
  A_corr:   -0.246750487530081     
 End minimization
 Ecorr=   1725.77430665799     
 A_corr= -0.246750487530081     
 Ecorr_band=  -1726.02105714552     
 End Solvation calculations
RMM:  29    -0.136525053780E+03   -0.12294E-04   -0.14409E-05  7381   0.970E-03    0.680E-03
 Begin Solvation calculations
  rms_SCF =   1.293629420692108E-002 tol =   1.293629420692108E-003
 Begin minimization
 Creating dielectric and ionic cavities
  area:      126.236184525778     
  volume:    638.038443272163     
  Acav:     6.627399687603355E-002
  Solving linear dielectric/ionic screening model
        iter                  A_solv                     rms
   LPB:       -0.313056747175950E+00   0.545771420919826E-01
   LPB:    0  -0.313056598738089E+00   0.531787582054501E-01  -0.101217E-03   0.000000E+00   0.289781E+02  -0.293307E-02
   LPB:    1  -0.313047746808101E+00   0.521391284599446E-02   0.887066E-02   0.000000E+00   0.760799E+02  -0.164860E-18
   LPB:    2  -0.313047076124855E+00   0.145371380947882E-02   0.144650E-01   0.464641E-01   0.232076E+03  -0.631401E-16
   LPB:    3  -0.313046511147312E+00   0.204924895402740E-02   0.500407E-01   0.243505E+00   0.104294E+04  -0.664590E-16
   LPB:    4  -0.313046075501300E+00   0.365866029068058E-02   0.368336E-01   0.104757E+01   0.205221E+03  -0.944257E-16
   LPB:    5  -0.313045560523189E+00   0.366082945026165E-02   0.342857E-01   0.126995E+01   0.127320E+03  -0.109909E-15
   LPB:    6  -0.313044976157582E+00   0.221662354302839E-02   0.388986E-01   0.100017E+01   0.138274E+03  -0.881444E-16
   LPB:    7  -0.313043777526775E+00   0.122999204424018E-02   0.568635E-01   0.140314E+01   0.629542E+02  -0.763225E-16
  Finished solving LPB equations
  A_corr:   -0.246769780650741     
 End minimization
 Ecorr=   1725.62504638496     
 A_corr= -0.246769780650741     
 Ecorr_band=  -1725.87181616561     
 End Solvation calculations
RMM:  30    -0.136525061172E+03   -0.73919E-05   -0.41650E-06  7066   0.859E-03
 Begin Solvation calculations
  rms_SCF =   1.293629420692108E-002 tol =   1.293629420692108E-003
 Begin minimization
 Creating dielectric and ionic cavities
  area:      126.237921713483     
  volume:    638.017290522980     
  Acav:     6.627490889957854E-002
  Solving linear dielectric/ionic screening model
        iter                  A_solv                     rms
   LPB:       -0.313126615665585E+00   0.402564454841286E-01
   LPB:    0  -0.313126543021808E+00   0.390022743693572E-01  -0.708063E-04   0.000000E+00   0.289791E+02  -0.205190E-02
   LPB:    1  -0.313121151269506E+00   0.465428638887962E-02   0.849719E-02   0.000000E+00   0.910587E+02   0.784815E-19
   LPB:    2  -0.313120753775962E+00   0.178025764028216E-02   0.173924E-01   0.360177E-01   0.108776E+03  -0.256648E-16
   LPB:    3  -0.313120470663236E+00   0.164316458954043E-02   0.358495E-01   0.345546E+00   0.751870E+03  -0.226777E-16
   LPB:    4  -0.313120303517843E+00   0.210238842889236E-02   0.320476E-01   0.660423E+00   0.104585E+03  -0.361804E-16
   LPB:    5  -0.313120125496547E+00   0.141656362469884E-02   0.311888E-01   0.109440E+01   0.285401E+03  -0.421014E-16
   LPB:    6  -0.313119933173431E+00   0.103251289344977E-02   0.413301E-01   0.815252E+00   0.351374E+03  -0.585184E-16
  Finished solving LPB equations
  A_corr:   -0.246845024273852     
 End minimization
 Ecorr=   1725.49799627408     
 A_corr= -0.246845024273852     
 Ecorr_band=  -1725.74484129835     
 End Solvation calculations
   1 F= -.13652506E+03 E0= -.13652091E+03  d E =-.136525E+03
quench:  g(F)=  0.000E+00 g(S)=  0.000E+00 dE (1.order)= 0.000E+00
 bond charge predicted
       N       E                     dE             d eps       ncg     rms          rms(c)
 Begin Solvation calculations
  rms_SCF =   1.293629420692108E-002 tol =   1.293629420692108E-003
 Begin minimization
 Creating dielectric and ionic cavities
  area:      126.407231819915     
  volume:    638.027765645191     
  Acav:     6.636379670545535E-002
  Solving linear dielectric/ionic screening model
        iter                  A_solv                     rms
   LPB:       -0.319583446249079E+00   0.787849102657224E-02
   LPB:    0  -0.319583446242157E+00   0.788328887934772E-02  -0.691163E-06   0.000000E+00   0.289786E+02  -0.200289E-04
   LPB:    1  -0.314605740133699E+00   0.292618960007728E-02   0.158660E-01   0.000000E+00   0.632296E+06  -0.109589E-20
   LPB:    2  -0.314086347145674E+00   0.217902324891235E-02   0.271948E-01   0.608765E-01   0.144796E+06   0.539458E-17
   LPB:    3  -0.313916542424795E+00   0.296269594943351E-02   0.323751E-01   0.274617E+00   0.637353E+05   0.731544E-17
   LPB:    4  -0.313846241402709E+00   0.897021845607667E-02   0.345687E-01   0.387740E+00   0.172984E+05  -0.247130E-19
   LPB:    5  -0.313814517684221E+00   0.235876021560576E-01   0.343804E-01   0.453726E+00   0.771610E+03   0.105334E-18
   LPB:    6  -0.313801688089740E+00   0.278177983669669E-01   0.214673E-01   0.647683E+00   0.159007E+03  -0.766683E-17
   LPB:    7  -0.313790563124488E+00   0.819450165180930E-02   0.225790E-01   0.824441E+00   0.269926E+03  -0.132335E-16
   LPB:    8  -0.313782317798174E+00   0.838771611791688E-02   0.364991E-01   0.458492E+00   0.552163E+03  -0.826786E-17
   LPB:    9  -0.313777583260914E+00   0.119569709528062E-01   0.301556E-01   0.694998E+00   0.213293E+03   0.172369E-16
   LPB:   10  -0.313774162148454E+00   0.550004533882886E-02   0.251146E-01   0.867625E+00   0.141612E+03   0.832445E-16
   LPB:   11  -0.313771334490023E+00   0.174026583028549E-02   0.357983E-01   0.579859E+00   0.128500E+04   0.106387E-15
   LPB:   12  -0.313769413586918E+00   0.118868321784961E-02   0.395200E-01   0.615353E+00   0.199359E+04   0.132263E-15
  Finished solving LPB equations
  A_corr:   -0.247405616881463     
 End minimization
 Ecorr=   1725.34910431767     
 A_corr= -0.247405616881463     
 Ecorr_band=  -1725.59650993455     
 End Solvation calculations
DAV:   1    -0.136529601531E+03   -0.45478E-02   -0.42299E-01 12798   0.115E+00    0.216E-01
 Begin Solvation calculations
  rms_SCF =   1.293629420692108E-002 tol =   1.293629420692108E-003
 Begin minimization
 Creating dielectric and ionic cavities
  area:      126.310193657975     
  volume:    637.819764990084     
  Acav:     6.631285167043671E-002
  Solving linear dielectric/ionic screening model
        iter                  A_solv                     rms
   LPB:       -0.318724372582232E+00   0.681050459441694E+00
   LPB:    0  -0.318379199062368E+00   0.573393909078673E+00  -0.488003E-02   0.000000E+00   0.289883E+02  -0.141464E+00
   LPB:    1  -0.317096904760045E+00   0.115102810036978E+00   0.104748E-01   0.000000E+00   0.686445E+02   0.893011E-17
   LPB:    2  -0.316890168501225E+00   0.200937810931384E-01   0.139260E-01   0.121269E+00   0.276133E+03  -0.163363E-15
   LPB:    3  -0.316841837341360E+00   0.199688530755211E-01   0.249939E-01   0.130257E+00   0.507676E+03  -0.248695E-15
   LPB:    4  -0.316827009502670E+00   0.178989704443058E-01   0.219023E-01   0.350102E+00   0.121423E+03  -0.285675E-15
   LPB:    5  -0.316818535039454E+00   0.827949506522725E-02   0.244241E-01   0.512514E+00   0.203959E+03  -0.246941E-15
   LPB:    6  -0.316813788149834E+00   0.341214942500267E-02   0.314165E-01   0.435468E+00   0.235262E+03  -0.866890E-16
   LPB:    7  -0.316811072188308E+00   0.218658460332364E-02   0.331490E-01   0.542253E+00   0.716261E+03   0.129152E-16
   LPB:    8  -0.316809367780158E+00   0.138430334502765E-02   0.348562E-01   0.596816E+00   0.500179E+03   0.610133E-16
   LPB:    9  -0.316808219200867E+00   0.932338149856004E-03   0.378348E-01   0.620834E+00   0.575201E+03   0.912579E-16
  Finished solving LPB equations
  A_corr:   -0.250495367530430     
 End minimization
 Ecorr=   1725.66534290358     
 A_corr= -0.250495367530430     
 Ecorr_band=  -1725.91583827111     
 End Solvation calculations
RMM:   2    -0.136532171185E+03   -0.25697E-02   -0.31325E-02 17146   0.345E-01    0.260E-01
 Begin Solvation calculations
  rms_SCF =   1.293629420692108E-002 tol =   1.293629420692108E-003
 Begin minimization
 Creating dielectric and ionic cavities
  area:      126.300266103168     
  volume:    637.878717831052     
  Acav:     6.630763970416305E-002
  Solving linear dielectric/ionic screening model
        iter                  A_solv                     rms
   LPB:       -0.317239251955512E+00   0.158213605362917E+00
   LPB:    0  -0.317238526044316E+00   0.157679522621910E+00   0.223803E-03   0.000000E+00   0.289856E+02   0.648705E-02
   LPB:    1  -0.317173733678438E+00   0.189754377474938E-01   0.907514E-02   0.000000E+00   0.632841E+02   0.189692E-18
   LPB:    2  -0.317163074523820E+00   0.545209444124540E-02   0.180663E-01   0.826389E-01   0.127052E+03   0.650392E-17
   LPB:    3  -0.317161277598742E+00   0.440178996503445E-02   0.236938E-01   0.128541E+00   0.111571E+03   0.590650E-17
   LPB:    4  -0.317160560131449E+00   0.368395366902783E-02   0.247472E-01   0.382279E+00   0.208046E+03   0.214698E-16
   LPB:    5  -0.317160091267570E+00   0.211901211137056E-02   0.274824E-01   0.588458E+00   0.119579E+03   0.722757E-16
   LPB:    6  -0.317159674686643E+00   0.136762459879375E-02   0.358630E-01   0.680864E+00   0.498780E+03   0.102875E-15
   LPB:    7  -0.317159272822994E+00   0.878455866942185E-03   0.399743E-01   0.865457E+00   0.249810E+03   0.990024E-16
  Finished solving LPB equations
  A_corr:   -0.250851633118831     
 End minimization
 Ecorr=   1725.34657635809     
 A_corr= -0.250851633118831     
 Ecorr_band=  -1725.59742799121     
 End Solvation calculations
RMM:   3    -0.136530994362E+03    0.11768E-02   -0.24909E-03 15856   0.999E-02    0.135E-01
 Begin Solvation calculations
  rms_SCF =   1.293629420692108E-002 tol =   1.293629420692108E-003
 Begin minimization
 Creating dielectric and ionic cavities
  area:      126.290845891778     
  volume:    637.878506489204     
  Acav:     6.630269409318328E-002
  Solving linear dielectric/ionic screening model
        iter                  A_solv                     rms
   LPB:       -0.317946503859384E+00   0.841581159713264E-01
   LPB:    0  -0.317939603330203E+00   0.671746169426970E-01  -0.690026E-03   0.000000E+00   0.289856E+02  -0.200008E-01
   LPB:    1  -0.317901760165558E+00   0.314644397953901E-01   0.127197E-01   0.000000E+00   0.993740E+02  -0.139331E-17
   LPB:    2  -0.317892043334474E+00   0.645644568207552E-02   0.139710E-01   0.233769E+00   0.159296E+03   0.336332E-16
   LPB:    3  -0.317889947465105E+00   0.226951779984239E-02   0.251490E-01   0.119825E+00   0.152771E+03   0.510699E-16
   LPB:    4  -0.317889198723557E+00   0.126110797605813E-02   0.318520E-01   0.282067E+00   0.545489E+03   0.331601E-16
  Finished solving LPB equations
  A_corr:   -0.251586504630374     
 End minimization
 Ecorr=   1725.28846629343     
 A_corr= -0.251586504630374     
 Ecorr_band=  -1725.54005279806     
 End Solvation calculations
RMM:   4    -0.136530860383E+03    0.13398E-03   -0.63633E-04 14207   0.595E-02    0.110E-01
 Begin Solvation calculations
  rms_SCF =   1.293629420692108E-002 tol =   1.293629420692108E-003
 Begin minimization
 Creating dielectric and ionic cavities
  area:      126.288898768425     
  volume:    637.869520614472     
  Acav:     6.630167185342328E-002
  Solving linear dielectric/ionic screening model
        iter                  A_solv                     rms
   LPB:       -0.320475004610508E+00   0.448351955266432E+00
   LPB:    0  -0.320416571886984E+00   0.420523686764034E+00  -0.200793E-02   0.000000E+00   0.289860E+02  -0.582019E-01
   LPB:    1  -0.319846240536565E+00   0.620554419305780E-01   0.966761E-02   0.000000E+00   0.680244E+02   0.673585E-18
   LPB:    2  -0.319770827539021E+00   0.984397328902683E-02   0.140270E-01   0.911326E-01   0.238777E+03   0.121318E-15
   LPB:    3  -0.319756668610097E+00   0.689986203851994E-02   0.261193E-01   0.100829E+00   0.394403E+03   0.999112E-16
   LPB:    4  -0.319751970342236E+00   0.720309236409962E-02   0.270445E-01   0.320472E+00   0.157060E+03   0.100374E-15
   LPB:    5  -0.319749654177840E+00   0.675757355599016E-02   0.249851E-01   0.533616E+00   0.266832E+03   0.127538E-15
   LPB:    6  -0.319748246223424E+00   0.333892119487457E-02   0.267823E-01   0.567090E+00   0.926214E+02   0.200246E-15
   LPB:    7  -0.319747287577990E+00   0.172995169644701E-02   0.312004E-01   0.584462E+00   0.463140E+03   0.199898E-15
   LPB:    8  -0.319746605024282E+00   0.796066269171283E-03   0.364819E-01   0.608922E+00   0.205529E+03   0.185236E-15
  Finished solving LPB equations
  A_corr:   -0.253444933170858     
 End minimization
 Ecorr=   1725.05708511845     
 A_corr= -0.253444933170858     
 Ecorr_band=  -1725.31053005162     
 End Solvation calculations
RMM:   5    -0.136530854305E+03    0.60781E-05   -0.36890E-04 12714   0.727E-02    0.878E-02
 Begin Solvation calculations
  rms_SCF =   1.293629420692108E-002 tol =   1.293629420692108E-003
 Begin minimization
 Creating dielectric and ionic cavities
  area:      126.281921314482     
  volume:    637.880649131940     
  Acav:     6.629800869010292E-002
  Solving linear dielectric/ionic screening model
        iter                  A_solv                     rms
   LPB:       -0.321450280597256E+00   0.222857114663736E+00
   LPB:    0  -0.321417676680479E+00   0.188441681320601E+00  -0.149989E-02   0.000000E+00   0.289855E+02  -0.434750E-01
   LPB:    1  -0.321250780035107E+00   0.567836000702151E-01   0.112887E-01   0.000000E+00   0.700723E+02   0.716242E-18
   LPB:    2  -0.321204761585809E+00   0.804183351901308E-02   0.155057E-01   0.200741E+00   0.151039E+03  -0.460198E-15
   LPB:    3  -0.321197175361572E+00   0.526864548426726E-02   0.266032E-01   0.960843E-01   0.267432E+03  -0.489555E-15
   LPB:    4  -0.321194973463589E+00   0.568196660365224E-02   0.260489E-01   0.296425E+00   0.135584E+03  -0.493777E-15
   LPB:    5  -0.321193835168788E+00   0.459786884766891E-02   0.240536E-01   0.559845E+00   0.228166E+03  -0.463630E-15
   LPB:    6  -0.321192953622715E+00   0.219219780772933E-02   0.313645E-01   0.593925E+00   0.854479E+02  -0.416839E-15
   LPB:    7  -0.321192274591731E+00   0.167181810745183E-02   0.361949E-01   0.667476E+00   0.261807E+03  -0.363541E-15
   LPB:    8  -0.321191762416266E+00   0.111001097381512E-02   0.374124E-01   0.729727E+00   0.134267E+03  -0.334883E-15
  Finished solving LPB equations
  A_corr:   -0.254893753726163     
 End minimization
 Ecorr=   1724.68320199242     
 A_corr= -0.254893753726163     
 Ecorr_band=  -1724.93809574615     
 End Solvation calculations
RMM:   6    -0.136530616838E+03    0.23747E-03   -0.23089E-04 12310   0.644E-02    0.206E-02
 Begin Solvation calculations
  rms_SCF =   1.293629420692108E-002 tol =   1.293629420692108E-003
 Begin minimization
 Creating dielectric and ionic cavities
  area:      126.293834939547     
  volume:    637.923326209484     
  Acav:     6.630426334326228E-002
  Solving linear dielectric/ionic screening model
        iter                  A_solv                     rms
   LPB:       -0.322517693108879E+00   0.131910848163494E+00
   LPB:    0  -0.322503245942913E+00   0.102055414662885E+00  -0.998461E-03   0.000000E+00   0.289835E+02  -0.289389E-01
   LPB:    1  -0.322419076094057E+00   0.497144546866780E-01   0.125099E-01   0.000000E+00   0.921980E+02   0.231021E-17
   LPB:    2  -0.322404185667345E+00   0.685658589671446E-02   0.128107E-01   0.172756E+00   0.983735E+02  -0.124432E-15
   LPB:    3  -0.322400532129923E+00   0.330295868843662E-02   0.227016E-01   0.138460E+00   0.179164E+03  -0.132191E-15
   LPB:    4  -0.322399406131702E+00   0.216535224191943E-02   0.284353E-01   0.246049E+00   0.152076E+03  -0.126407E-15
   LPB:    5  -0.322398850158383E+00   0.359959356966401E-02   0.303758E-01   0.462218E+00   0.350521E+03  -0.130698E-15
   LPB:    6  -0.322398401079689E+00   0.283806527660269E-02   0.306490E-01   0.800533E+00   0.496006E+02  -0.129102E-15
   LPB:    7  -0.322397976167936E+00   0.166661132510215E-02   0.326283E-01   0.888790E+00   0.189485E+03  -0.108064E-15
   LPB:    8  -0.322397595153024E+00   0.813459280722835E-03   0.369090E-01   0.792693E+00   0.853104E+02  -0.125974E-15
  Finished solving LPB equations
  A_corr:   -0.256093331809762     
 End minimization
 Ecorr=   1724.23115780556     
 A_corr= -0.256093331809762     
 Ecorr_band=  -1724.48725113737     
 End Solvation calculations
RMM:   7    -0.136530620089E+03   -0.32508E-05   -0.58604E-05 10014   0.308E-02
 Begin Solvation calculations
  rms_SCF =   1.293629420692108E-002 tol =   1.293629420692108E-003
 Begin minimization
 Creating dielectric and ionic cavities
  area:      126.305134995764     
  volume:    637.937830940496     
  Acav:     6.631019587277591E-002
  Solving linear dielectric/ionic screening model
        iter                  A_solv                     rms
   LPB:       -0.322950300578604E+00   0.694119239203360E-01
   LPB:    0  -0.322944787962032E+00   0.469823201971678E-01  -0.616771E-03   0.000000E+00   0.289828E+02  -0.178757E-01
   LPB:    1  -0.322929431294034E+00   0.205401219987199E-01   0.119593E-01   0.000000E+00   0.804440E+02   0.154147E-17
   LPB:    2  -0.322926768523992E+00   0.301474685835993E-02   0.131013E-01   0.158280E+00   0.890728E+02  -0.170961E-15
   LPB:    3  -0.322926162973781E+00   0.196791044306981E-02   0.216795E-01   0.137430E+00   0.201711E+03  -0.200993E-15
   LPB:    4  -0.322925964460946E+00   0.164800221689678E-02   0.259147E-01   0.274248E+00   0.806924E+02  -0.205347E-15
   LPB:    5  -0.322925822916592E+00   0.204414199887726E-02   0.313495E-01   0.589412E+00   0.254198E+03  -0.205313E-15
   LPB:    6  -0.322925606610240E+00   0.127259442105308E-02   0.431529E-01   0.111019E+01   0.454596E+02  -0.208844E-15
  Finished solving LPB equations
  A_corr:   -0.256615410737464     
 End minimization
 Ecorr=   1724.06364901284     
 A_corr= -0.256615410737464     
 Ecorr_band=  -1724.32026442357     
 End Solvation calculations
   2 F= -.13653062E+03 E0= -.13652646E+03  d E =-.555892E-02
quench:  g(F)=  0.000E+00 g(S)=  0.000E+00 dE (1.order)= 0.000E+00
 bond charge predicted
       N       E                     dE             d eps       ncg     rms          rms(c)
 Begin Solvation calculations
  rms_SCF =   1.293629420692108E-002 tol =   1.293629420692108E-003
 Begin minimization
 Creating dielectric and ionic cavities
  area:      126.535194714127     
  volume:    637.869042230978     
  Acav:     6.643097722491682E-002
  Solving linear dielectric/ionic screening model
        iter                  A_solv                     rms
   LPB:       -0.332359498050508E+00   0.981365622120214E-02
   LPB:    0  -0.332359496731684E+00   0.100441916056570E-01  -0.953925E-05   0.000000E+00   0.289860E+02  -0.276505E-03
   LPB:    1  -0.325378937376445E+00   0.386198959730834E-02   0.157743E-01   0.000000E+00   0.460882E+06   0.227142E-19
   LPB:    2  -0.324700125211608E+00   0.446170711913787E-02   0.262062E-01   0.585338E-01   0.127951E+06   0.335578E-16
   LPB:    3  -0.324494808512740E+00   0.103469898861707E-01   0.319513E-01   0.248079E+00   0.259141E+05   0.315181E-16
   LPB:    4  -0.324411580584573E+00   0.282628264454601E-01   0.338235E-01   0.382925E+00   0.159614E+04   0.319447E-16
   LPB:    5  -0.324378802648452E+00   0.450230331138225E-01   0.247791E-01   0.537583E+00   0.190349E+03   0.394066E-16
   LPB:    6  -0.324356499667436E+00   0.154315721025793E-01   0.190851E-01   0.883431E+00   0.203340E+03   0.299269E-16
   LPB:    7  -0.324338715966051E+00   0.884320712134702E-02   0.346139E-01   0.439645E+00   0.560383E+03   0.563330E-16
   LPB:    8  -0.324328586383694E+00   0.159099432483599E-01   0.332403E-01   0.593137E+00   0.382165E+03   0.839302E-16
   LPB:    9  -0.324322372075906E+00   0.995507089595957E-02   0.241852E-01   0.843175E+00   0.107075E+03   0.184391E-15
   LPB:   10  -0.324316921955947E+00   0.330757301164172E-02   0.328496E-01   0.645702E+00   0.796099E+03   0.208250E-15
   LPB:   11  -0.324313127547830E+00   0.923375626139090E-03   0.395598E-01   0.578115E+00   0.689308E+03   0.239771E-15
  Finished solving LPB equations
  A_corr:   -0.257882150322913     
 End minimization
 Ecorr=   1723.79269970489     
 A_corr= -0.257882150322913     
 Ecorr_band=  -1724.05058185521     
 End Solvation calculations
DAV:   1    -0.136533701663E+03   -0.30848E-02   -0.56458E-01 12717   0.156E+00    0.191E-01
 Begin Solvation calculations
  rms_SCF =   1.293629420692108E-002 tol =   1.293629420692108E-003
 Begin minimization
 Creating dielectric and ionic cavities
  area:      126.396014316254     
  volume:    637.735870930867     
  Acav:     6.635790751603346E-002
  Solving linear dielectric/ionic screening model
        iter                  A_solv                     rms
   LPB:       -0.329112242099479E+00   0.698869455033656E+00
   LPB:    0  -0.328829463812299E+00   0.613151301034488E+00  -0.441669E-02   0.000000E+00   0.289923E+02  -0.128050E+00
   LPB:    1  -0.327605197574057E+00   0.938220895587237E-01   0.977587E-02   0.000000E+00   0.662501E+02   0.835411E-17
   LPB:    2  -0.327423460658402E+00   0.188176499196579E-01   0.146403E-01   0.991229E-01   0.233864E+03  -0.992993E-16
   LPB:    3  -0.327385255178365E+00   0.176093510820462E-01   0.247809E-01   0.124198E+00   0.434920E+03  -0.275383E-15
   LPB:    4  -0.327373597505776E+00   0.153728256203306E-01   0.225216E-01   0.335741E+00   0.102713E+03  -0.298717E-15
   LPB:    5  -0.327366957800144E+00   0.777261916710258E-02   0.245811E-01   0.521837E+00   0.247581E+03  -0.268448E-15
   LPB:    6  -0.327363037539310E+00   0.323845630366976E-02   0.309319E-01   0.469203E+00   0.184285E+03  -0.202974E-15
   LPB:    7  -0.327360576041051E+00   0.216145192407160E-02   0.334548E-01   0.580540E+00   0.516804E+03  -0.235160E-16
   LPB:    8  -0.327358880770697E+00   0.127858909301444E-02   0.367795E-01   0.626459E+00   0.303661E+03   0.103620E-15
  Finished solving LPB equations
  A_corr:   -0.261000973254663     
 End minimization
 Ecorr=   1723.85333433556     
 A_corr= -0.261000973254663     
 Ecorr_band=  -1724.11433530881     
 End Solvation calculations
RMM:   2    -0.136536311519E+03   -0.26099E-02   -0.30291E-02 16618   0.421E-01    0.210E-01
 Begin Solvation calculations
  rms_SCF =   1.293629420692108E-002 tol =   1.293629420692108E-003
 Begin minimization
 Creating dielectric and ionic cavities
  area:      126.375646468706     
  volume:    637.811220649600     
  Acav:     6.634721439607069E-002
  Solving linear dielectric/ionic screening model
        iter                  A_solv                     rms
   LPB:       -0.327973051621790E+00   0.331999798917219E+00
   LPB:    0  -0.327971602496626E+00   0.331557534942235E+00   0.316194E-03   0.000000E+00   0.289887E+02   0.916606E-02
   LPB:    1  -0.327706991127888E+00   0.365622290257293E-01   0.891149E-02   0.000000E+00   0.606186E+02   0.436795E-18
   LPB:    2  -0.327673828707944E+00   0.863761004057249E-02   0.166713E-01   0.669912E-01   0.115357E+03   0.126631E-16
   LPB:    3  -0.327668552796751E+00   0.496886349790112E-02   0.234403E-01   0.113151E+00   0.126819E+03  -0.296968E-16
   LPB:    4  -0.327666882471827E+00   0.543603203499134E-02   0.264469E-01   0.280602E+00   0.236598E+03  -0.203982E-16
   LPB:    5  -0.327665958084687E+00   0.336806329070183E-02   0.246783E-01   0.593079E+00   0.987877E+02  -0.305884E-16
   LPB:    6  -0.327665229630213E+00   0.233412147551345E-02   0.325038E-01   0.598316E+00   0.313283E+03  -0.429702E-16
   LPB:    7  -0.327664626994105E+00   0.133585970537579E-02   0.363832E-01   0.739071E+00   0.138336E+03  -0.434351E-16
   LPB:    8  -0.327664059580178E+00   0.867476688356130E-03   0.415809E-01   0.823857E+00   0.289067E+03  -0.347816E-16
  Finished solving LPB equations
  A_corr:   -0.261316845184108     
 End minimization
 Ecorr=   1723.35608511187     
 A_corr= -0.261316845184108     
 Ecorr_band=  -1723.61740195705     
 End Solvation calculations
RMM:   3    -0.136535290799E+03    0.10207E-02   -0.23999E-03 14740   0.124E-01    0.109E-01
 Begin Solvation calculations
  rms_SCF =   1.293629420692108E-002 tol =   1.293629420692108E-003
 Begin minimization
 Creating dielectric and ionic cavities
  area:      126.379203520712     
  volume:    637.824128301885     
  Acav:     6.634908184837389E-002
  Solving linear dielectric/ionic screening model
        iter                  A_solv                     rms
   LPB:       -0.328348576996826E+00   0.128765199094512E+00
   LPB:    0  -0.328343215189433E+00   0.119989043004378E+00  -0.608220E-03   0.000000E+00   0.289881E+02  -0.176311E-01
   LPB:    1  -0.328293559976791E+00   0.209892181259523E-01   0.974410E-02   0.000000E+00   0.714610E+02  -0.431014E-18
   LPB:    2  -0.328285568392291E+00   0.427479759628529E-02   0.151811E-01   0.103301E+00   0.197096E+03   0.217675E-16
   LPB:    3  -0.328283737003278E+00   0.197276919973540E-02   0.257968E-01   0.134861E+00   0.227617E+03   0.497808E-16
   LPB:    4  -0.328283081934484E+00   0.172856163049247E-02   0.312533E-01   0.295241E+00   0.191386E+03   0.492548E-16
   LPB:    5  -0.328282700687621E+00   0.261542820523265E-02   0.314425E-01   0.578492E+00   0.414901E+03   0.508142E-16
   LPB:    6  -0.328282403501307E+00   0.242527127197886E-02   0.310684E-01   0.788899E+00   0.673174E+02   0.563096E-16
   LPB:    7  -0.328282131395691E+00   0.160045486369700E-02   0.317085E-01   0.897123E+00   0.328889E+03   0.752246E-16
   LPB:    8  -0.328281835581820E+00   0.793381009870802E-03   0.405940E-01   0.849171E+00   0.101623E+03   0.745024E-16
  Finished solving LPB equations
  A_corr:   -0.261932753733446     
 End minimization
 Ecorr=   1723.16027932971     
 A_corr= -0.261932753733446     
 Ecorr_band=  -1723.42221208344     
 End Solvation calculations
RMM:   4    -0.136535165125E+03    0.12567E-03   -0.42784E-04 13495   0.671E-02    0.675E-02
 Begin Solvation calculations
  rms_SCF =   1.293629420692108E-002 tol =   1.293629420692108E-003
 Begin minimization
 Creating dielectric and ionic cavities
  area:      126.388687807422     
  volume:    637.839346780777     
  Acav:     6.635406109889630E-002
  Solving linear dielectric/ionic screening model
        iter                  A_solv                     rms
   LPB:       -0.329903575244034E+00   0.229116776399960E+00
   LPB:    0  -0.329862794727636E+00   0.187303256392344E+00  -0.167740E-02   0.000000E+00   0.289874E+02  -0.486235E-01
   LPB:    1  -0.329713786034746E+00   0.485215145960359E-01   0.104433E-01   0.000000E+00   0.731589E+02   0.260434E-18
   LPB:    2  -0.329684997479652E+00   0.912921254133880E-02   0.149589E-01   0.134881E+00   0.145717E+03   0.145503E-15
   LPB:    3  -0.329678905988229E+00   0.581906007185668E-02   0.229853E-01   0.137706E+00   0.235260E+03   0.134898E-15
   LPB:    4  -0.329677160804004E+00   0.500367445752917E-02   0.246460E-01   0.267190E+00   0.102521E+03   0.132144E-15
   LPB:    5  -0.329676335549237E+00   0.382751983529919E-02   0.236511E-01   0.492767E+00   0.269817E+03   0.144114E-15
   LPB:    6  -0.329675762707716E+00   0.160417250370515E-02   0.301540E-01   0.544445E+00   0.920871E+02   0.131756E-15
   LPB:    7  -0.329675325748927E+00   0.957990506234643E-03   0.348255E-01   0.660471E+00   0.211371E+03   0.117489E-15
  Finished solving LPB equations
  A_corr:   -0.263321264650031     
 End minimization
 Ecorr=   1722.93274791713     
 A_corr= -0.263321264650031     
 Ecorr_band=  -1723.19606918178     
 End Solvation calculations
RMM:   5    -0.136535183571E+03   -0.18446E-04   -0.17405E-04 13577   0.387E-02    0.567E-02
 Begin Solvation calculations
  rms_SCF =   1.293629420692108E-002 tol =   1.293629420692108E-003
 Begin minimization
 Creating dielectric and ionic cavities
  area:      126.393592185905     
  volume:    637.867496650935     
  Acav:     6.635663589760012E-002
  Solving linear dielectric/ionic screening model
        iter                  A_solv                     rms
   LPB:       -0.330703964868214E+00   0.141894102190043E+00
   LPB:    0  -0.330693768026063E+00   0.123961054222533E+00  -0.838790E-03   0.000000E+00   0.289861E+02  -0.243132E-01
   LPB:    1  -0.330626720669485E+00   0.378524073065911E-01   0.117293E-01   0.000000E+00   0.601554E+02   0.209054E-19
   LPB:    2  -0.330606557216632E+00   0.453172226404203E-02   0.155785E-01   0.226428E+00   0.131321E+03   0.372401E-16
   LPB:    3  -0.330603236472718E+00   0.322769837468555E-02   0.256528E-01   0.100014E+00   0.367409E+03  -0.229975E-16
   LPB:    4  -0.330602025640713E+00   0.241144451639873E-02   0.294782E-01   0.317310E+00   0.119476E+03  -0.349246E-16
   LPB:    5  -0.330601271092818E+00   0.352850625892859E-02   0.329679E-01   0.557201E+00   0.254546E+03  -0.185313E-16
   LPB:    6  -0.330600752584611E+00   0.308523975089154E-02   0.293726E-01   0.771290E+00   0.600246E+02  -0.289669E-16
   LPB:    7  -0.330600337750349E+00   0.175881158760595E-02   0.289013E-01   0.813099E+00   0.221093E+03  -0.461834E-16
   LPB:    8  -0.330599997943898E+00   0.789750933430750E-03   0.353860E-01   0.669027E+00   0.114815E+03  -0.675149E-16
  Finished solving LPB equations
  A_corr:   -0.264243362046298     
 End minimization
 Ecorr=   1722.52286247622     
 A_corr= -0.264243362046298     
 Ecorr_band=  -1722.78710583826     
 End Solvation calculations
RMM:   6    -0.136535169139E+03    0.14432E-04   -0.11430E-04 12179   0.394E-02    0.465E-02
 Begin Solvation calculations
  rms_SCF =   1.293629420692108E-002 tol =   1.293629420692108E-003
 Begin minimization
 Creating dielectric and ionic cavities
  area:      126.413776307438     
  volume:    637.910958433987     
  Acav:     6.636723256140520E-002
  Solving linear dielectric/ionic screening model
        iter                  A_solv                     rms
   LPB:       -0.332003996723490E+00   0.184568499195411E+00
   LPB:    0  -0.331988059637825E+00   0.162413555891500E+00  -0.104867E-02   0.000000E+00   0.289840E+02  -0.303948E-01
   LPB:    1  -0.331876718027036E+00   0.423881907290533E-01   0.101062E-01   0.000000E+00   0.783707E+02   0.176092E-18
   LPB:    2  -0.331855535722528E+00   0.761957718079704E-02   0.154133E-01   0.124741E+00   0.116880E+03   0.180282E-15
   LPB:    3  -0.331851364626392E+00   0.365280488255966E-02   0.230310E-01   0.131783E+00   0.181719E+03   0.327678E-15
   LPB:    4  -0.331850051113286E+00   0.235179908535690E-02   0.287723E-01   0.252071E+00   0.128143E+03   0.358075E-15
   LPB:    5  -0.331849400594419E+00   0.366136805893083E-02   0.301433E-01   0.472725E+00   0.366354E+03   0.408079E-15
   LPB:    6  -0.331848919244012E+00   0.290777582807670E-02   0.300266E-01   0.742823E+00   0.520514E+02   0.469785E-15
   LPB:    7  -0.331848496054948E+00   0.168449175344477E-02   0.308171E-01   0.856621E+00   0.192203E+03   0.492184E-15
   LPB:    8  -0.331848119594082E+00   0.746444532960625E-03   0.371532E-01   0.737871E+00   0.853059E+02   0.519418E-15
  Finished solving LPB equations
  A_corr:   -0.265480887032677     
 End minimization
 Ecorr=   1722.04300807785     
 A_corr= -0.265480887032677     
 Ecorr_band=  -1722.30848896488     
 End Solvation calculations
RMM:   7    -0.136535180966E+03   -0.11826E-04   -0.77614E-05 11827   0.369E-02    0.203E-02
 Begin Solvation calculations
  rms_SCF =   1.293629420692108E-002 tol =   1.293629420692108E-003
 Begin minimization
 Creating dielectric and ionic cavities
  area:      126.422676284882     
  volume:    637.920826159807     
  Acav:     6.637190504956307E-002
  Solving linear dielectric/ionic screening model
        iter                  A_solv                     rms
   LPB:       -0.332339161771302E+00   0.594012341163645E-01
   LPB:    0  -0.332334584523190E+00   0.369746633085621E-01  -0.562006E-03   0.000000E+00   0.289836E+02  -0.162890E-01
   LPB:    1  -0.332322176973812E+00   0.136547188390501E-01   0.164990E-01   0.000000E+00   0.517042E+02   0.744629E-18
   LPB:    2  -0.332320293555112E+00   0.515646530416863E-02   0.126530E-01   0.197937E+00   0.194026E+03  -0.876036E-16
   LPB:    3  -0.332319708521022E+00   0.277673088004302E-02   0.200646E-01   0.195883E+00   0.155651E+03  -0.119732E-15
   LPB:    4  -0.332319472338651E+00   0.198991465429231E-02   0.248447E-01   0.326033E+00   0.718878E+02  -0.129626E-15
   LPB:    5  -0.332319303137408E+00   0.187898486727086E-02   0.310532E-01   0.573171E+00   0.167742E+03  -0.125831E-15
   LPB:    6  -0.332319094420578E+00   0.967268545721222E-03   0.370035E-01   0.103518E+01   0.625995E+02  -0.122813E-15
  Finished solving LPB equations
  A_corr:   -0.265947189371015     
 End minimization
 Ecorr=   1721.87635435136     
 A_corr= -0.265947189371015     
 Ecorr_band=  -1722.14230154073     
 End Solvation calculations
RMM:   8    -0.136535186775E+03   -0.58093E-05   -0.16919E-05  7089   0.195E-02
 Begin Solvation calculations
  rms_SCF =   1.293629420692108E-002 tol =   1.293629420692108E-003
 Begin minimization
 Creating dielectric and ionic cavities
  area:      126.436918483135     
  volume:    637.939314520808     
  Acav:     6.637938220364613E-002
  Solving linear dielectric/ionic screening model
        iter                  A_solv                     rms
   LPB:       -0.333040799093912E+00   0.685060649221500E-01
   LPB:    0  -0.333034317297113E+00   0.367119491950591E-01  -0.668795E-03   0.000000E+00   0.289827E+02  -0.193835E-01
   LPB:    1  -0.333012366194930E+00   0.226221937165632E-01   0.163757E-01   0.000000E+00   0.775346E+02   0.108363E-17
   LPB:    2  -0.333009310407308E+00   0.660028270137383E-02   0.130388E-01   0.174836E+00   0.684959E+02   0.189539E-15
   LPB:    3  -0.333008427968822E+00   0.303703818247728E-02   0.178787E-01   0.210602E+00   0.299281E+03   0.211817E-15
   LPB:    4  -0.333007978979609E+00   0.209120666990968E-02   0.296622E-01   0.306679E+00   0.642402E+02   0.218848E-15
   LPB:    5  -0.333007675720579E+00   0.280517967094770E-02   0.315149E-01   0.635718E+00   0.189505E+03   0.189949E-15
   LPB:    6  -0.333007408628350E+00   0.145964543464508E-02   0.287201E-01   0.966448E+00   0.487729E+02   0.162915E-15
   LPB:    7  -0.333007165075078E+00   0.654054920817913E-03   0.370298E-01   0.707240E+00   0.136391E+03   0.125002E-15
  Finished solving LPB equations
  A_corr:   -0.266627782871432     
 End minimization
 Ecorr=   1721.54921861975     
 A_corr= -0.266627782871432     
 Ecorr_band=  -1721.81584640262     
 End Solvation calculations
   3 F= -.13653519E+03 E0= -.13653103E+03  d E =-.456669E-02
quench:  g(F)=  0.000E+00 g(S)=  0.000E+00 dE (1.order)= 0.000E+00
 bond charge predicted
       N       E                     dE             d eps       ncg     rms          rms(c)
 Begin Solvation calculations
  rms_SCF =   1.293629420692108E-002 tol =   1.293629420692108E-003
 Begin minimization
 Creating dielectric and ionic cavities
  area:      126.802803872655     
  volume:    637.844944594464     
  Acav:     6.657147203314394E-002
  Solving linear dielectric/ionic screening model
        iter                  A_solv                     rms
   LPB:       -0.349116986797336E+00   0.128945809000721E-01
   LPB:    0  -0.349116984555445E+00   0.131329389570593E-01  -0.124371E-04   0.000000E+00   0.289871E+02  -0.360516E-03
   LPB:    1  -0.336964540585791E+00   0.589237193406635E-02   0.155746E-01   0.000000E+00   0.509199E+06   0.149525E-19
   LPB:    2  -0.335825774968392E+00   0.718999741745726E-02   0.266475E-01   0.547684E-01   0.837263E+05   0.462844E-16
   LPB:    3  -0.335461785061181E+00   0.153346923785142E-01   0.323456E-01   0.263328E+00   0.169926E+05   0.369224E-16
   LPB:    4  -0.335312347694261E+00   0.434873378068723E-01   0.335719E-01   0.395556E+00   0.150096E+04  -0.541319E-17
   LPB:    5  -0.335255671721949E+00   0.595855625181935E-01   0.228533E-01   0.557144E+00   0.160544E+03  -0.261498E-16
   LPB:    6  -0.335213423923514E+00   0.172342897063581E-01   0.200768E-01   0.848515E+00   0.244378E+03  -0.376542E-16
   LPB:    7  -0.335181135376899E+00   0.744099408092619E-02   0.363900E-01   0.421654E+00   0.150028E+04  -0.477613E-16
   LPB:    8  -0.335161371089813E+00   0.142426540007721E-01   0.382318E-01   0.582626E+00   0.357300E+03  -0.588885E-16
   LPB:    9  -0.335150276610922E+00   0.181243616297427E-01   0.281926E-01   0.761230E+00   0.224407E+03   0.343123E-16
   LPB:   10  -0.335141468274379E+00   0.741638551923840E-02   0.266789E-01   0.838985E+00   0.135441E+03   0.102118E-15
   LPB:   11  -0.335134609080716E+00   0.283190197683987E-02   0.366537E-01   0.566799E+00   0.145798E+04   0.256756E-15
   LPB:   12  -0.335130121446575E+00   0.211046679478192E-02   0.395538E-01   0.606280E+00   0.687151E+03   0.456425E-15
   LPB:   13  -0.335127231396132E+00   0.240203467090046E-02   0.379855E-01   0.670593E+00   0.107480E+04   0.586908E-15
   LPB:   14  -0.335125254005728E+00   0.223946458220436E-02   0.368693E-01   0.704919E+00   0.659353E+03   0.680860E-15
   LPB:   15  -0.335123814445063E+00   0.137834277438576E-02   0.361804E-01   0.741872E+00   0.849034E+03   0.744816E-15
   LPB:   16  -0.335122608624078E+00   0.783679715202958E-03   0.429165E-01   0.706159E+00   0.114663E+04   0.787998E-15
  Finished solving LPB equations
  A_corr:   -0.268551136590934     
 End minimization
 Ecorr=   1721.01557465307     
 A_corr= -0.268551136590934     
 Ecorr_band=  -1721.28412578967     
 End Solvation calculations
DAV:   1    -0.136536327023E+03   -0.11461E-02   -0.92801E-01 12483   0.213E+00    0.234E-01
 Begin Solvation calculations
  rms_SCF =   1.293629420692108E-002 tol =   1.293629420692108E-003
 Begin minimization
 Creating dielectric and ionic cavities
  area:      126.560568922702     
  volume:    637.635080740858     
  Acav:     6.644429868441874E-002
  Solving linear dielectric/ionic screening model
        iter                  A_solv                     rms
   LPB:       -0.341494304673402E+00   0.726097813060917E+00
   LPB:    0  -0.340965610623361E+00   0.563723373727220E+00  -0.603866E-02   0.000000E+00   0.289970E+02  -0.175103E+00
   LPB:    1  -0.339630221738462E+00   0.130877788616954E+00   0.106239E-01   0.000000E+00   0.701251E+02  -0.107363E-17
   LPB:    2  -0.339397057501088E+00   0.247408413888497E-01   0.142637E-01   0.130049E+00   0.215927E+03   0.555632E-15
   LPB:    3  -0.339341998958076E+00   0.231421073664497E-01   0.237640E-01   0.141735E+00   0.354671E+03   0.591542E-15
   LPB:    4  -0.339325269443987E+00   0.193226702947740E-01   0.211923E-01   0.340721E+00   0.100164E+03   0.586833E-15
   LPB:    5  -0.339315419872010E+00   0.821873788931891E-02   0.250924E-01   0.497246E+00   0.226509E+03   0.558471E-15
   LPB:    6  -0.339310154415464E+00   0.324670562364910E-02   0.319471E-01   0.419884E+00   0.231214E+03   0.512177E-15
   LPB:    7  -0.339307207300953E+00   0.215141116180355E-02   0.329510E-01   0.542654E+00   0.601226E+03   0.469358E-15
   LPB:    8  -0.339305385975266E+00   0.142915865634927E-02   0.346701E-01   0.587360E+00   0.437478E+03   0.437811E-15
   LPB:    9  -0.339304190027192E+00   0.962128798199649E-03   0.373716E-01   0.609170E+00   0.466725E+03   0.427627E-15
  Finished solving LPB equations
  A_corr:   -0.272859891342773     
 End minimization
 Ecorr=   1721.22071830040     
 A_corr= -0.272859891342773     
 Ecorr_band=  -1721.49357819174     
 End Solvation calculations
RMM:   2    -0.136540428043E+03   -0.41010E-02   -0.47639E-02 15959   0.578E-01    0.281E-01
 Begin Solvation calculations
  rms_SCF =   1.293629420692108E-002 tol =   1.293629420692108E-003
 Begin minimization
 Creating dielectric and ionic cavities
  area:      126.536164163840     
  volume:    637.722989878586     
  Acav:     6.643148618601623E-002
  Solving linear dielectric/ionic screening model
        iter                  A_solv                     rms
   LPB:       -0.339722701851131E+00   0.663184846700469E-01
   LPB:    0  -0.339720843382533E+00   0.636965042944987E-01   0.358053E-03   0.000000E+00   0.289929E+02   0.103810E-01
   LPB:    1  -0.339700027683443E+00   0.210669701287253E-01   0.122181E-01   0.000000E+00   0.686625E+02   0.450784E-18
   LPB:    2  -0.339694371715119E+00   0.494497295437288E-02   0.153739E-01   0.215941E+00   0.123240E+03  -0.189446E-16
   LPB:    3  -0.339692973088476E+00   0.516040763353354E-02   0.228094E-01   0.166673E+00   0.107107E+03   0.523740E-17
   LPB:    4  -0.339692287135002E+00   0.377382257357917E-02   0.229497E-01   0.487449E+00   0.228975E+03  -0.106469E-16
   LPB:    5  -0.339691778531565E+00   0.155331100956020E-02   0.301924E-01   0.563591E+00   0.103995E+03   0.925214E-17
   LPB:    6  -0.339691335468152E+00   0.991846751541076E-03   0.407046E-01   0.646160E+00   0.598877E+03  -0.980364E-17
  Finished solving LPB equations
[...]
 Ecorr_band=  -1712.43059356820     
 End Solvation calculations
RMM:   3    -0.136552436678E+03    0.18947E-04   -0.19370E-05  7395   0.169E-02    0.691E-03
 Begin Solvation calculations
  rms_SCF =   1.571472228038998E-003 tol =   1.571472228038998E-004
 Begin minimization
 Creating dielectric and ionic cavities
  area:      126.060722088088     
  volume:    636.132795280323     
  Acav:     6.618187909624644E-002
  Solving linear dielectric/ionic screening model
        iter                  A_solv                     rms
   LPB:       -0.389067650943644E+00   0.121455398127221E-01
   LPB:    0  -0.389067643389232E+00   0.120591138272032E-01   0.227988E-04   0.000000E+00   0.290674E+02   0.662702E-03
   LPB:    1  -0.389067181373684E+00   0.196321718813506E-02   0.101030E-01   0.000000E+00   0.622504E+02   0.359486E-19
   LPB:    2  -0.389067095512526E+00   0.455194504483228E-03   0.152826E-01   0.122855E+00   0.228030E+03  -0.195499E-18
   LPB:    3  -0.389067075934982E+00   0.248285199446094E-03   0.243276E-01   0.143239E+00   0.200228E+03   0.422848E-18
   LPB:    4  -0.389067069766409E+00   0.330357445092035E-03   0.271763E-01   0.282056E+00   0.374332E+03  -0.341719E-18
   LPB:    5  -0.389067065852123E+00   0.251201145110641E-03   0.262704E-01   0.656436E+00   0.105943E+03  -0.292266E-18
   LPB:    6  -0.389067062290384E+00   0.193368424908297E-03   0.343453E-01   0.695998E+00   0.368657E+03  -0.105532E-17
   LPB:    7  -0.389067058974587E+00   0.105148156631311E-03   0.380388E-01   0.840555E+00   0.123823E+03  -0.316807E-17
  Finished solving LPB equations
  A_corr:   -0.322885179878341     
 End minimization
 Ecorr=   1712.08179096095     
 A_corr= -0.322885179878341     
 Ecorr_band=  -1712.40467614083     
 End Solvation calculations
RMM:   4    -0.136552437032E+03   -0.35451E-06   -0.39168E-06  6618   0.103E-02
 Begin Solvation calculations
  rms_SCF =   1.571472228038998E-003 tol =   1.571472228038998E-004
 Begin minimization
 Creating dielectric and ionic cavities
  area:      126.061547290743     
  volume:    636.132353322486     
  Acav:     6.618231232764012E-002
  Solving linear dielectric/ionic screening model
        iter                  A_solv                     rms
   LPB:       -0.389094058960187E+00   0.770452180310370E-02
   LPB:    0  -0.389094046473751E+00   0.738198246177418E-02  -0.293110E-04   0.000000E+00   0.290674E+02  -0.851996E-03
   LPB:    1  -0.389093866936829E+00   0.104838501163077E-02   0.909028E-02   0.000000E+00   0.789681E+02  -0.158626E-19
   LPB:    2  -0.389093835636438E+00   0.255541424740176E-03   0.184285E-01   0.859968E-01   0.219154E+03  -0.191703E-17
   LPB:    3  -0.389093829753036E+00   0.155078855036060E-03   0.235837E-01   0.146878E+00   0.361392E+03  -0.246121E-17
   LPB:    4  -0.389093826993288E+00   0.126565918243927E-03   0.338076E-01   0.327219E+00   0.129563E+03  -0.263270E-17
  Finished solving LPB equations
  A_corr:   -0.322911514665648     
 End minimization
 Ecorr=   1712.07778997968     
 A_corr= -0.322911514665648     
 Ecorr_band=  -1712.40070149435     
 End Solvation calculations
  70 F= -.13655244E+03 E0= -.13654878E+03  d E =-.594553E-05
quench:  g(F)=  0.000E+00 g(S)=  0.000E+00 dE (1.order)= 0.000E+00
 bond charge predicted
       N       E                     dE             d eps       ncg     rms          rms(c)
 Begin Solvation calculations
  rms_SCF =   1.571472228038998E-003 tol =   1.571472228038998E-004
 Begin minimization
 Creating dielectric and ionic cavities
  area:      126.060719246785     
  volume:    636.126027104936     
  Acav:     6.618187760456229E-002
  Solving linear dielectric/ionic screening model
        iter                  A_solv                     rms
   LPB:       -0.389165831346524E+00   0.660000472722852E-03
   LPB:    0  -0.389165831341219E+00   0.676076037241849E-03  -0.604144E-06   0.000000E+00   0.290677E+02  -0.175611E-04
   LPB:    1  -0.389139894404551E+00   0.300297384337361E-03   0.161562E-01   0.000000E+00   0.336250E+06   0.111141E-20
   LPB:    2  -0.389137192663127E+00   0.359612091009011E-03   0.262526E-01   0.641050E-01   0.728139E+05  -0.119992E-17
   LPB:    3  -0.389136391325455E+00   0.768879431923296E-03   0.315814E-01   0.246554E+00   0.137591E+05  -0.301939E-17
   LPB:    4  -0.389136069722215E+00   0.178880622332548E-02   0.334732E-01   0.378650E+00   0.104328E+04  -0.101994E-17
   LPB:    5  -0.389135941452907E+00   0.262717364881296E-02   0.247484E-01   0.539452E+00   0.182315E+03   0.348313E-17
   LPB:    6  -0.389135854757421E+00   0.114467097150904E-02   0.200203E-01   0.835507E+00   0.199956E+03   0.301118E-17
   LPB:    7  -0.389135790958356E+00   0.118746887002609E-02   0.304715E-01   0.483498E+00   0.284714E+03   0.198153E-17
   LPB:    8  -0.389135754725052E+00   0.954369693580470E-03   0.238126E-01   0.726743E+00   0.152118E+03   0.114309E-17
   LPB:    9  -0.389135723125967E+00   0.286804317607445E-03   0.295624E-01   0.702480E+00   0.271692E+03  -0.404707E-18
   LPB:   10  -0.389135699772719E+00   0.928272794750008E-04   0.395502E-01   0.552413E+00   0.381372E+04   0.374076E-17
  Finished solving LPB equations
  A_corr:   -0.322953822168157     
 End minimization
 Ecorr=   1712.06941964566     
 A_corr= -0.322953822168157     
 Ecorr_band=  -1712.39237346782     
 End Solvation calculations
DAV:   1    -0.136552423059E+03    0.13618E-04   -0.39028E-03 12726   0.150E-01    0.149E-02
 Begin Solvation calculations
  rms_SCF =   1.571472228038998E-003 tol =   1.571472228038998E-004
 Begin minimization
 Creating dielectric and ionic cavities
  area:      126.059896061520     
  volume:    636.122764691538     
  Acav:     6.618144543229780E-002
  Solving linear dielectric/ionic screening model
        iter                  A_solv                     rms
   LPB:       -0.389219642156177E+00   0.154899968624266E-01
   LPB:    0  -0.389219402988643E+00   0.118766754388485E-01  -0.128280E-03   0.000000E+00   0.290679E+02  -0.372883E-02
   LPB:    1  -0.389218813041721E+00   0.325585568783147E-02   0.114658E-01   0.000000E+00   0.587088E+02  -0.101586E-18
   LPB:    2  -0.389218626016561E+00   0.732589354578964E-03   0.168798E-01   0.215339E+00   0.168988E+03  -0.510970E-17
   LPB:    3  -0.389218589257152E+00   0.718972947082559E-03   0.217421E-01   0.152594E+00   0.350456E+03  -0.500008E-17
   LPB:    4  -0.389218572122210E+00   0.564835491870036E-03   0.240440E-01   0.421510E+00   0.107795E+03  -0.100619E-16
   LPB:    5  -0.389218561314356E+00   0.337558497594631E-03   0.276631E-01   0.548231E+00   0.204529E+03  -0.129137E-16
   LPB:    6  -0.389218552660495E+00   0.144133546183468E-03   0.346663E-01   0.638945E+00   0.257888E+03  -0.125708E-16
  Finished solving LPB equations
  A_corr:   -0.323037107228197     
 End minimization
 Ecorr=   1712.06516335501     
 A_corr= -0.323037107228197     
 Ecorr_band=  -1712.38820046224     
 End Solvation calculations
RMM:   2    -0.136552446881E+03   -0.23821E-04   -0.24310E-04 15865   0.406E-02    0.137E-02
 Begin Solvation calculations
  rms_SCF =   1.571472228038998E-003 tol =   1.571472228038998E-004
 Begin minimization
 Creating dielectric and ionic cavities
  area:      126.060736160280     
  volume:    636.125482505241     
  Acav:     6.618188648414684E-002
  Solving linear dielectric/ionic screening model
        iter                  A_solv                     rms
   LPB:       -0.389221355432240E+00   0.256540822870103E-01
   LPB:    0  -0.389221345015506E+00   0.255934522335407E-01   0.267716E-04   0.000000E+00   0.290678E+02   0.778192E-03
   LPB:    1  -0.389219795833854E+00   0.227514206663524E-02   0.853004E-02   0.000000E+00   0.650000E+02  -0.447634E-19
   LPB:    2  -0.389219665394940E+00   0.351448353132144E-03   0.163021E-01   0.440568E-01   0.127973E+03  -0.109920E-17
   LPB:    3  -0.389219646984020E+00   0.164134942688914E-03   0.240144E-01   0.958165E-01   0.350916E+03  -0.279658E-18
   LPB:    4  -0.389219639471945E+00   0.196183691456416E-03   0.317138E-01   0.308964E+00   0.463313E+03  -0.535048E-18
   LPB:    5  -0.389219634564674E+00   0.270063030905047E-03   0.344484E-01   0.601394E+00   0.149010E+03  -0.481023E-18
   LPB:    6  -0.389219630318922E+00   0.344409735217574E-03   0.343156E-01   0.868545E+00   0.263057E+03  -0.165751E-17
   LPB:    7  -0.389219626167360E+00   0.206895908229719E-03   0.312823E-01   0.107263E+01   0.989996E+02  -0.660339E-18
   LPB:    8  -0.389219621757146E+00   0.921853328449478E-04   0.382888E-01   0.867910E+00   0.456440E+03   0.456904E-19
  Finished solving LPB equations
  A_corr:   -0.323037735272999     
 End minimization
 Ecorr=   1712.04875211502     
 A_corr= -0.323037735272999     
 Ecorr_band=  -1712.37178985030     
 End Solvation calculations
RMM:   3    -0.136552445163E+03    0.17176E-05   -0.15503E-05  7372   0.129E-02
 Begin Solvation calculations
  rms_SCF =   1.571472228038998E-003 tol =   1.571472228038998E-004
 Begin minimization
 Creating dielectric and ionic cavities
  area:      126.060538515030     
  volume:    636.126712732078     
  Acav:     6.618178272039071E-002
  Solving linear dielectric/ionic screening model
        iter                  A_solv                     rms
   LPB:       -0.389226885723444E+00   0.223439918806373E-01
   LPB:    0  -0.389226885653578E+00   0.223437051853072E-01   0.219252E-05   0.000000E+00   0.290677E+02   0.637314E-04
   LPB:    1  -0.389225669057632E+00   0.235386018460435E-02   0.890984E-02   0.000000E+00   0.613926E+02   0.295041E-20
   LPB:    2  -0.389225526636105E+00   0.524307376985785E-03   0.160418E-01   0.650198E-01   0.135819E+03   0.366728E-18
   LPB:    3  -0.389225502064905E+00   0.215954597847786E-03   0.239234E-01   0.115686E+00   0.173149E+03   0.133456E-17
   LPB:    4  -0.389225494423555E+00   0.213278772429787E-03   0.291597E-01   0.255143E+00   0.318234E+03  -0.761474E-18
   LPB:    5  -0.389225490649241E+00   0.227102958045275E-03   0.271406E-01   0.530679E+00   0.176713E+03  -0.173499E-17
   LPB:    6  -0.389225488441202E+00   0.211004581140249E-03   0.272712E-01   0.582216E+00   0.149502E+03  -0.937131E-18
   LPB:    7  -0.389225486652130E+00   0.109669135691809E-03   0.305934E-01   0.722268E+00   0.132976E+03  -0.757102E-18
  Finished solving LPB equations
  A_corr:   -0.323043703931739     
 End minimization
 Ecorr=   1712.03483246112     
 A_corr= -0.323043703931739     
 Ecorr_band=  -1712.35787616505     
 End Solvation calculations
  71 F= -.13655245E+03 E0= -.13654879E+03  d E =-.813085E-05
quench:  g(F)=  0.000E+00 g(S)=  0.000E+00 dE (1.order)= 0.000E+00
 bond charge predicted
       N       E                     dE             d eps       ncg     rms          rms(c)
 Begin Solvation calculations
  rms_SCF =   1.571472228038998E-003 tol =   1.571472228038998E-004
 Begin minimization
 Creating dielectric and ionic cavities
  area:      126.063104112867     
  volume:    636.123131829129     
  Acav:     6.618312965925513E-002
  Solving linear dielectric/ionic screening model
        iter                  A_solv                     rms
   LPB:       -0.389308414435565E+00   0.697935778935822E-03
   LPB:    0  -0.389308414433966E+00   0.703920682385845E-03  -0.331725E-06   0.000000E+00   0.290679E+02  -0.964253E-05
   LPB:    1  -0.389267684907425E+00   0.258187839990674E-03   0.160980E-01   0.000000E+00   0.568551E+06   0.213272E-21
   LPB:    2  -0.389263489826605E+00   0.258066101073340E-03   0.266035E-01   0.623252E-01   0.161750E+06   0.652984E-18
   LPB:    3  -0.389262196153308E+00   0.546793854459496E-03   0.318702E-01   0.257418E+00   0.420100E+05  -0.190444E-18
   LPB:    4  -0.389261663985890E+00   0.141119782781718E-02   0.343256E-01   0.381936E+00   0.336958E+04  -0.250473E-18
   LPB:    5  -0.389261437736096E+00   0.305506379197682E-02   0.301527E-01   0.483984E+00   0.328826E+03   0.135078E-17
   LPB:    6  -0.389261326604152E+00   0.179849550061457E-02   0.181400E-01   0.816470E+00   0.148841E+03   0.271097E-18
   LPB:    7  -0.389261226288896E+00   0.948762786726186E-03   0.291439E-01   0.561847E+00   0.441071E+03  -0.822939E-18
   LPB:    8  -0.389261168304428E+00   0.133025582196860E-02   0.300443E-01   0.560699E+00   0.218011E+03  -0.159792E-17
   LPB:    9  -0.389261128488745E+00   0.673619394379852E-03   0.242393E-01   0.851106E+00   0.144338E+03  -0.529340E-17
   LPB:   10  -0.389261094036744E+00   0.191068523188935E-03   0.352065E-01   0.595743E+00   0.861659E+03  -0.112852E-16
   LPB:   11  -0.389261070237472E+00   0.674165843284085E-04   0.409429E-01   0.594009E+00   0.282121E+04  -0.222232E-16
  Finished solving LPB equations
  A_corr:   -0.323077940578216     
 End minimization
 Ecorr=   1712.02795052107     
 A_corr= -0.323077940578216     
 Ecorr_band=  -1712.35102846165     
 End Solvation calculations
DAV:   1    -0.136552422662E+03    0.24219E-04   -0.61886E-03 12240   0.187E-01    0.216E-02
 Begin Solvation calculations
  rms_SCF =   1.571472228038998E-003 tol =   1.571472228038998E-004
 Begin minimization
 Creating dielectric and ionic cavities
  area:      126.062438263535     
  volume:    636.112295936327     
  Acav:     6.618278008835590E-002
  Solving linear dielectric/ionic screening model
        iter                  A_solv                     rms
   LPB:       -0.389463049165945E+00   0.505656349808696E-01
   LPB:    0  -0.389461776834331E+00   0.455498740544198E-01  -0.295873E-03   0.000000E+00   0.290684E+02  -0.860054E-02
   LPB:    1  -0.389455779962044E+00   0.539722877701674E-02   0.934152E-02   0.000000E+00   0.650255E+02  -0.152249E-18
   LPB:    2  -0.389454993811337E+00   0.113999978471891E-02   0.149957E-01   0.816645E-01   0.230651E+03   0.164058E-17
   LPB:    3  -0.389454834803879E+00   0.124227525046136E-02   0.253548E-01   0.119624E+00   0.515993E+03   0.974877E-17
   LPB:    4  -0.389454783428836E+00   0.101645589140710E-02   0.221825E-01   0.369303E+00   0.108423E+03   0.129851E-16
   LPB:    5  -0.389454751961658E+00   0.489634798882981E-03   0.257437E-01   0.527770E+00   0.247245E+03   0.164147E-16
   LPB:    6  -0.389454732656883E+00   0.228843885213649E-03   0.319199E-01   0.494786E+00   0.243579E+03   0.209936E-16
   LPB:    7  -0.389454719963985E+00   0.156520430431006E-03   0.344406E-01   0.609377E+00   0.606814E+03   0.180133E-16
  Finished solving LPB equations
  A_corr:   -0.323271939875629     
 End minimization
 Ecorr=   1712.05775941783     
 A_corr= -0.323271939875629     
 Ecorr_band=  -1712.38103135770     
 End Solvation calculations
RMM:   2    -0.136552465199E+03   -0.42538E-04   -0.44638E-04 17963   0.516E-02    0.243E-02
 Begin Solvation calculations
  rms_SCF =   1.571472228038998E-003 tol =   1.571472228038998E-004
 Begin minimization
 Creating dielectric and ionic cavities
  area:      126.062236620274     
  volume:    636.116900502464     
  Acav:     6.618267422564376E-002
  Solving linear dielectric/ionic screening model
        iter                  A_solv                     rms
   LPB:       -0.389481356120207E+00   0.879053948448721E-02
   LPB:    0  -0.389481353219006E+00   0.877489591271405E-02   0.141285E-04   0.000000E+00   0.290682E+02   0.410689E-03
   LPB:    1  -0.389481104710052E+00   0.169719884161723E-02   0.104310E-01   0.000000E+00   0.592691E+02   0.223954E-19
   LPB:    2  -0.389481039488809E+00   0.399010437772722E-03   0.170706E-01   0.160371E+00   0.163362E+03  -0.108459E-17
   LPB:    3  -0.389481024219424E+00   0.301524408370922E-03   0.249960E-01   0.159886E+00   0.182280E+03  -0.220672E-17
   LPB:    4  -0.389481016841066E+00   0.376564079924575E-03   0.300931E-01   0.401366E+00   0.302082E+03  -0.762961E-18
   LPB:    5  -0.389481011325811E+00   0.313730110500143E-03   0.288994E-01   0.778369E+00   0.101124E+03   0.136838E-17
   LPB:    6  -0.389481005996930E+00   0.212585943380298E-03   0.340093E-01   0.821032E+00   0.367015E+03   0.178918E-17
   LPB:    7  -0.389481000965076E+00   0.121919713113616E-03   0.385236E-01   0.833611E+00   0.163932E+03  -0.382238E-18
  Finished solving LPB equations
  A_corr:   -0.323298326739433     
 End minimization
 Ecorr=   1712.02845975801     
 A_corr= -0.323298326739433     
 Ecorr_band=  -1712.35175808475     
 End Solvation calculations
RMM:   3    -0.136552454365E+03    0.10834E-04   -0.24432E-05  7643   0.133E-02    0.147E-02
 Begin Solvation calculations
  rms_SCF =   1.571472228038998E-003 tol =   1.571472228038998E-004
 Begin minimization
 Creating dielectric and ionic cavities
  area:      126.061450288777     
  volume:    636.118125260423     
  Acav:     6.618226140160782E-002
  Solving linear dielectric/ionic screening model
        iter                  A_solv                     rms
   LPB:       -0.389535413334609E+00   0.255839830582153E-01
   LPB:    0  -0.389535399838458E+00   0.254994722319392E-01  -0.304728E-04   0.000000E+00   0.290681E+02  -0.885785E-03
   LPB:    1  -0.389533815185458E+00   0.289298329193920E-02   0.888948E-02   0.000000E+00   0.616575E+02   0.146618E-20
   LPB:    2  -0.389533589758223E+00   0.729005358728989E-03   0.177916E-01   0.710779E-01   0.111646E+03  -0.478894E-18
   LPB:    3  -0.389533554955885E+00   0.318917312155450E-03   0.224231E-01   0.122495E+00   0.147478E+03   0.210383E-17
   LPB:    4  -0.389533545228536E+00   0.286086817544063E-03   0.269532E-01   0.232526E+00   0.316466E+03   0.546962E-17
   LPB:    5  -0.389533540508593E+00   0.269904303189700E-03   0.277588E-01   0.471142E+00   0.121333E+03   0.685730E-17
   LPB:    6  -0.389533537079721E+00   0.233573768626978E-03   0.290524E-01   0.694119E+00   0.205919E+03   0.692576E-17
   LPB:    7  -0.389533533981685E+00   0.131469571874802E-03   0.332120E-01   0.790355E+00   0.114357E+03   0.678757E-17
  Finished solving LPB equations
  A_corr:   -0.323351272580077     
 End minimization
 Ecorr=   1712.01102949839     
 A_corr= -0.323351272580077     
 Ecorr_band=  -1712.33438077097     
 End Solvation calculations
RMM:   4    -0.136552453083E+03    0.12822E-05   -0.66624E-06  6854   0.114E-02
 Begin Solvation calculations
  rms_SCF =   1.571472228038998E-003 tol =   1.571472228038998E-004
 Begin minimization
 Creating dielectric and ionic cavities
  area:      126.062110695743     
  volume:    636.117762600804     
  Acav:     6.618260811526493E-002
  Solving linear dielectric/ionic screening model
        iter                  A_solv                     rms
   LPB:       -0.389632818005463E+00   0.359687040710166E-01
   LPB:    0  -0.389632711545574E+00   0.353922640853503E-01  -0.855854E-04   0.000000E+00   0.290681E+02  -0.248781E-02
   LPB:    1  -0.389629545471077E+00   0.318948633238112E-02   0.877992E-02   0.000000E+00   0.653943E+02  -0.413827E-19
   LPB:    2  -0.389629257445648E+00   0.478085756809967E-03   0.149004E-01   0.536047E-01   0.181507E+03   0.352984E-17
   LPB:    3  -0.389629214567019E+00   0.326540489323330E-03   0.252000E-01   0.880251E-01   0.530991E+03   0.167312E-17
   LPB:    4  -0.389629200598685E+00   0.274533757750653E-03   0.278145E-01   0.295144E+00   0.200316E+03   0.132455E-17
   LPB:    5  -0.389629193135705E+00   0.356944631893286E-03   0.293920E-01   0.505602E+00   0.386244E+03  -0.992518E-18
   LPB:    6  -0.389629188214351E+00   0.297961338527486E-03   0.283556E-01   0.683538E+00   0.814352E+02  -0.190101E-17
   LPB:    7  -0.389629184075334E+00   0.170773132192962E-03   0.305584E-01   0.780407E+00   0.369109E+03  -0.389024E-17
   LPB:    8  -0.389629180372046E+00   0.661837533581014E-04   0.387926E-01   0.704811E+00   0.152235E+03  -0.357932E-17
  Finished solving LPB equations
  A_corr:   -0.323446572256781     
 End minimization
 Ecorr=   1712.00083546495     
 A_corr= -0.323446572256781     
 Ecorr_band=  -1712.32428203720     
 End Solvation calculations
  72 F= -.13655245E+03 E0= -.13654879E+03  d E =-.791965E-05
quench:  g(F)=  0.000E+00 g(S)=  0.000E+00 dE (1.order)= 0.000E+00
 reached required accuracy - stopping structural energy minimisation
