 vasp.5.4.4.18Apr17-6-g9f103f2a35 (build Feb 06 2024 13:54:16) complex          
  
 POSCAR found type information on POSCAR  Rh N  O 
 02/POSCAR found :  3 types and      40 ions
 scaLAPACK will be used

 ----------------------------------------------------------------------------- 
|                                                                             |
|  ADVICE TO THIS USER RUNNING 'VASP/VAMP'   (HEAR YOUR MASTER'S VOICE ...):  |
|                                                                             |
|      You enforced a specific xc-type in the INCAR file,                     |
|      a different type was found on the POTCAR file                          |
|          I HOPE YOU KNOW, WHAT YOU ARE  DOING                               |
|                                                                             |
 ----------------------------------------------------------------------------- 

 LDA part: xc-table for Pade appr. of Perdew
 POSCAR found type information on POSCAR  Rh N  O 
 00/POSCAR found :  3 types and      40 ions
 POSCAR found type information on POSCAR  Rh N  O 
 06/POSCAR found :  3 types and      40 ions
 Jacobian:    21.3215267681110     
 POSCAR, INCAR and KPOINTS ok, starting setup
 FFT: planning ...
 WAVECAR not read
 entering main loop
       N       E                     dE             d eps       ncg     rms          rms(c)
  Solvation turned off during non-self-consistent phase (first NELMDL steps)
DAV:   1     0.613441167673E+04    0.61344E+04   -0.35761E+05  6594   0.164E+03
DAV:   2    -0.160054071974E+02   -0.61504E+04   -0.59665E+04  5874   0.478E+02
DAV:   3    -0.252991119553E+03   -0.23699E+03   -0.21892E+03  6051   0.912E+01
DAV:   4    -0.260488924227E+03   -0.74978E+01   -0.71021E+01  6240   0.142E+01
DAV:   5    -0.260724307327E+03   -0.23538E+00   -0.23464E+00  6519   0.234E+00    0.496E+01
 Begin Solvation calculations
  rms_SCF =    2.33809059168091      tol =   0.233809059168091     
 Begin minimization
 Creating dielectric and ionic cavities
  area:      179.845285126725     
  volume:    798.388987991218     
  Acav:     9.441877469153052E-002
  Solving linear dielectric/ionic screening model
        iter                  A_solv                     rms
   LPB:       -0.682788609396805E+03   0.313178452554699E+03
   LPB:    0  -0.248468796458548E+01   0.111657592321811E+02  -0.628722E+01   0.000000E+00   0.344204E+02  -0.216409E+03
   LPB:    1  -0.735213283528083E+00   0.496659769437465E+01   0.148237E-01   0.000000E+00   0.100748E+03  -0.125976E-13
   LPB:    2  -0.426843464497892E+00   0.168159153203093E+01   0.147766E-01   0.176826E+00   0.140351E+03  -0.117754E-13
   LPB:    3  -0.278862376262282E+00   0.646475464783702E+00   0.237232E-01   0.298908E+00   0.229723E+03  -0.828405E-14
   LPB:    4  -0.217826314389754E+00   0.437203717132558E+00   0.318860E-01   0.306869E+00   0.876714E+02  -0.244810E-14
   LPB:    5  -0.189716543306758E+00   0.673371450070923E+00   0.290072E-01   0.506251E+00   0.414795E+03  -0.758077E-16
   LPB:    6  -0.173735723686832E+00   0.355038212304086E+00   0.258120E-01   0.638888E+00   0.533587E+02  -0.103742E-14
   LPB:    7  -0.163015104352439E+00   0.190442630304066E+00   0.298105E-01   0.580864E+00   0.256046E+03  -0.698756E-14
  Finished solving LPB equations
  A_corr:   -6.859632966090874E-002
 End minimization
 Ecorr=   3320.69652221483     
 A_corr= -6.859632966090874E-002
 Ecorr_band=  -3320.76511854449     
 End Solvation calculations
RMM:   6    -0.250920608028E+03    0.98037E+01   -0.71552E+01  5428   0.166E+01    0.301E+01
 Begin Solvation calculations
  rms_SCF =    2.33809059168091      tol =   0.233809059168091     
 Begin minimization
 Creating dielectric and ionic cavities
  area:      164.497493845621     
  volume:    823.365751794676     
  Acav:     8.636118426895091E-002
  Solving linear dielectric/ionic screening model
        iter                  A_solv                     rms
   LPB:       -0.392274665246819E+01   0.287206236936905E+02
   LPB:    0  -0.985487367921721E+00   0.970899985166568E+01   0.420334E+00   0.000000E+00   0.332494E+02   0.139759E+02
   LPB:    1  -0.284506790249513E+00   0.942983744881362E+00   0.106073E-01   0.000000E+00   0.873535E+02   0.684766E-15
   LPB:    2  -0.205705840304231E+00   0.723491149008827E+00   0.248927E-01   0.479024E-01   0.404789E+03  -0.140494E-13
   LPB:    3  -0.180811625008847E+00   0.795338876574383E+00   0.213340E-01   0.368611E+00   0.166100E+03  -0.153389E-13
   LPB:    4  -0.168111562194058E+00   0.448364361783179E+00   0.207992E-01   0.523277E+00   0.202314E+03  -0.129446E-13
   LPB:    5  -0.158928562357364E+00   0.163424920761072E+00   0.304073E-01   0.494593E+00   0.270151E+03  -0.116195E-13
  Finished solving LPB equations
  A_corr:   -7.256737808841283E-002
 End minimization
 Ecorr=   3147.50825934544     
 A_corr= -7.256737808841283E-002
 Ecorr_band=  -3147.58082672353     
 End Solvation calculations
RMM:   7    -0.272807092100E+03   -0.21886E+02   -0.52636E+01  5426   0.913E+00    0.479E+01
 Begin Solvation calculations
  rms_SCF =    2.33809059168091      tol =   0.233809059168091     
 Begin minimization
 Creating dielectric and ionic cavities
  area:      177.034184589645     
  volume:    812.544052219166     
  Acav:     9.294294690956371E-002
  Solving linear dielectric/ionic screening model
        iter                  A_solv                     rms
   LPB:       -0.486246074604220E+01   0.360459395979951E+02
   LPB:    0  -0.451118422351238E+01   0.341793252155386E+02  -0.144264E+00   0.000000E+00   0.337568E+02  -0.486990E+01
   LPB:    1  -0.594249859415389E+00   0.339448041791728E+01   0.916407E-02   0.000000E+00   0.778340E+02   0.230455E-15
   LPB:    2  -0.286429234983942E+00   0.713831146825871E+00   0.169077E-01   0.425948E-01   0.116406E+03   0.297653E-14
   LPB:    3  -0.240806923268726E+00   0.569251082118062E+00   0.213817E-01   0.117198E+00   0.236852E+03   0.263489E-14
   LPB:    4  -0.224302057353158E+00   0.418701376787913E+00   0.254661E-01   0.303749E+00   0.102012E+03   0.183715E-14
   LPB:    5  -0.215202451449070E+00   0.287329034287199E+00   0.264699E-01   0.530421E+00   0.209545E+03   0.212895E-14
   LPB:    6  -0.208838905282104E+00   0.999061135431732E-01   0.330998E-01   0.559246E+00   0.107090E+03  -0.133625E-14
  Finished solving LPB equations
  A_corr:   -0.115895958372541     
 End minimization
 Ecorr=   3139.08348745662     
 A_corr= -0.115895958372541     
 Ecorr_band=  -3139.19938341499     
 End Solvation calculations
RMM:   8    -0.276215651211E+03   -0.34086E+01   -0.38753E+01  5424   0.971E+00    0.559E+01
 Begin Solvation calculations
  rms_SCF =    2.33809059168091      tol =   0.233809059168091     
 Begin minimization
 Creating dielectric and ionic cavities
  area:      190.879976438282     
  volume:    812.229437297735     
  Acav:     0.100211987630098     
  Solving linear dielectric/ionic screening model
        iter                  A_solv                     rms
   LPB:       -0.893515108925211E+01   0.491487206159429E+02
   LPB:    0  -0.890051714388922E+01   0.490656643629192E+02   0.452888E-01   0.000000E+00   0.337715E+02   0.152947E+01
   LPB:    1  -0.973572413029859E+00   0.470559700054734E+01   0.918700E-02   0.000000E+00   0.780032E+02   0.813648E-16
   LPB:    2  -0.341730235517609E+00   0.820373282323169E+00   0.165850E-01   0.441531E-01   0.136941E+03  -0.765980E-16
   LPB:    3  -0.242674270024651E+00   0.320899846985537E+00   0.234994E-01   0.110645E+00   0.256748E+03  -0.174574E-15
   LPB:    4  -0.214574615869429E+00   0.161235239197013E+00   0.279383E-01   0.238604E+00   0.350827E+03  -0.110108E-15
  Finished solving LPB equations
  A_corr:   -0.114362628239331     
 End minimization
 Ecorr=   3118.64195408496     
 A_corr= -0.114362628239331     
 Ecorr_band=  -3118.75631671320     
 End Solvation calculations
RMM:   9    -0.261616307258E+03    0.14599E+02   -0.78496E+00  5424   0.403E+00    0.445E+01
 Begin Solvation calculations
  rms_SCF =    2.33809059168091      tol =   0.233809059168091     
 Begin minimization
 Creating dielectric and ionic cavities
  area:      167.873398201501     
  volume:    811.045064045716     
  Acav:     8.813353405578787E-002
  Solving linear dielectric/ionic screening model
        iter                  A_solv                     rms
   LPB:       -0.163614136326387E+01   0.191004665676741E+02
   LPB:    0  -0.162496356623036E+01   0.191433728247161E+02   0.257076E-01   0.000000E+00   0.338270E+02   0.869611E+00
   LPB:    1  -0.376114842242068E+00   0.194958394892345E+01   0.923885E-02   0.000000E+00   0.795245E+02   0.147597E-17
   LPB:    2  -0.242165643531363E+00   0.453152311850019E+00   0.187511E-01   0.528470E-01   0.126977E+03   0.366318E-14
   LPB:    3  -0.217068898302467E+00   0.168987012401153E+00   0.230134E-01   0.152660E+00   0.291589E+03   0.790097E-14
   LPB:    4  -0.208603825663790E+00   0.103231930281437E+00   0.293843E-01   0.264167E+00   0.308144E+03   0.641749E-14
  Finished solving LPB equations
  A_corr:   -0.120470291608002     
 End minimization
 Ecorr=   3068.46592558094     
 A_corr= -0.120470291608002     
 Ecorr_band=  -3068.58639587254     
 End Solvation calculations
RMM:  10    -0.247184993732E+03    0.14431E+02   -0.91943E+00  5426   0.469E+00    0.186E+01
 Begin Solvation calculations
  rms_SCF =    2.33809059168091      tol =   0.233809059168091     
 Begin minimization
 Creating dielectric and ionic cavities
  area:      161.528873388299     
  volume:    805.042640116885     
  Acav:     8.480265852885720E-002
  Solving linear dielectric/ionic screening model
        iter                  A_solv                     rms
   LPB:       -0.492709577109875E+00   0.836246828550901E+01
   LPB:    0  -0.479698808492705E+00   0.798812172296703E+01  -0.276208E-01   0.000000E+00   0.341084E+02  -0.942101E+00
   LPB:    1  -0.249772305304052E+00   0.701266615492057E+00   0.925640E-02   0.000000E+00   0.815117E+02  -0.163893E-16
   LPB:    2  -0.228286571054093E+00   0.299737668864042E+00   0.179627E-01   0.481540E-01   0.175451E+03  -0.847985E-14
   LPB:    3  -0.221064940174575E+00   0.324649169277776E+00   0.252559E-01   0.239052E+00   0.246763E+03  -0.897958E-14
   LPB:    4  -0.217421565688176E+00   0.187025673809845E+00   0.277000E-01   0.459994E+00   0.924852E+02  -0.768250E-14
  Finished solving LPB equations
  A_corr:   -0.132618907159319     
 End minimization
 Ecorr=   3058.83811265252     
 A_corr= -0.132618907159319     
 Ecorr_band=  -3058.97073155967     
 End Solvation calculations
RMM:  11    -0.248033706109E+03   -0.84871E+00   -0.75326E+00  5430   0.427E+00    0.235E+01
 Begin Solvation calculations
  rms_SCF =    2.33809059168091      tol =   0.233809059168091     
 Begin minimization
 Creating dielectric and ionic cavities
  area:      160.714993058966     
  volume:    802.623542267814     
  Acav:     8.437537135595735E-002
  Solving linear dielectric/ionic screening model
        iter                  A_solv                     rms
   LPB:       -0.290701481037800E+00   0.306921716820874E+01
   LPB:    0  -0.252982269762855E+00   0.118775002127718E+01   0.469510E-01   0.000000E+00   0.342219E+02   0.160675E+01
   LPB:    1  -0.231096430988270E+00   0.697496016166704E+00   0.154476E-01   0.000000E+00   0.106351E+03   0.457327E-16
   LPB:    2  -0.221951265066894E+00   0.227030795999896E+00   0.198779E-01   0.324726E+00   0.231163E+03   0.690893E-15
   LPB:    3  -0.218754557462395E+00   0.214974147583397E+00   0.230027E-01   0.302068E+00   0.212518E+03   0.209921E-14
   LPB:    4  -0.216494577144299E+00   0.230456798876665E+00   0.264762E-01   0.614220E+00   0.297077E+03   0.214571E-14
  Finished solving LPB equations
  A_corr:   -0.132119205788342     
 End minimization
 Ecorr=   3035.43991656001     
 A_corr= -0.132119205788342     
 Ecorr_band=  -3035.57203576580     
 End Solvation calculations
RMM:  12    -0.244657975808E+03    0.33757E+01   -0.29877E+00  5433   0.275E+00    0.107E+01
 Begin Solvation calculations
  rms_SCF =    1.84334914750468      tol =   0.184334914750468     
 Begin minimization
 Creating dielectric and ionic cavities
  area:      160.003808970237     
  volume:    800.776540937117     
  Acav:     8.400199970937468E-002
  Solving linear dielectric/ionic screening model
        iter                  A_solv                     rms
   LPB:       -0.246587070046029E+00   0.201944811453517E+01
   LPB:    0  -0.246297481703796E+00   0.205023805860167E+01   0.410871E-02   0.000000E+00   0.343084E+02   0.140963E+00
   LPB:    1  -0.227600126138193E+00   0.290721840285141E+00   0.103009E-01   0.000000E+00   0.815409E+02   0.112904E-16
   LPB:    2  -0.223577666320611E+00   0.122046343724715E+00   0.197961E-01   0.111945E+00   0.293506E+03   0.197118E-14
   LPB:    3  -0.221650290566139E+00   0.164949218463062E+00   0.290154E-01   0.326907E+00   0.366979E+03   0.227495E-14
   LPB:    4  -0.220407789286243E+00   0.145701551790020E+00   0.315300E-01   0.593247E+00   0.744528E+02   0.318986E-14
  Finished solving LPB equations
  A_corr:   -0.136405789576869     
 End minimization
 Ecorr=   3023.57422189679     
 A_corr= -0.136405789576869     
 Ecorr_band=  -3023.71062768637     
 End Solvation calculations
RMM:  13    -0.243727740668E+03    0.93024E+00   -0.10847E+00  5433   0.171E+00    0.493E+00
 Begin Solvation calculations
  rms_SCF =    1.84334914750468      tol =   0.184334914750468     
 Begin minimization
 Creating dielectric and ionic cavities
  area:      159.697451830218     
  volume:    796.367829133230     
  Acav:     8.384116221086441E-002
  Solving linear dielectric/ionic screening model
        iter                  A_solv                     rms
   LPB:       -0.255000824453401E+00   0.211712629258519E+01
   LPB:    0  -0.253392815320714E+00   0.186145965263457E+01  -0.965283E-02   0.000000E+00   0.345151E+02  -0.333169E+00
   LPB:    1  -0.233142236961650E+00   0.328986702596497E+00   0.106264E-01   0.000000E+00   0.902977E+02  -0.396338E-18
   LPB:    2  -0.230109604441842E+00   0.140423551593446E+00   0.169597E-01   0.938314E-01   0.321656E+03   0.335764E-15
   LPB:    3  -0.228689484785964E+00   0.170659276911331E+00   0.270432E-01   0.293675E+00   0.272575E+03   0.278012E-15
   LPB:    4  -0.227675050264014E+00   0.119887570599889E+00   0.279917E-01   0.690125E+00   0.100286E+03   0.392550E-15
  Finished solving LPB equations
  A_corr:   -0.143833888053149     
 End minimization
 Ecorr=   3016.80160295247     
 A_corr= -0.143833888053149     
 Ecorr_band=  -3016.94543684052     
 End Solvation calculations
RMM:  14    -0.243962616157E+03   -0.23488E+00   -0.43690E-01  5432   0.102E+00    0.745E+00
 Begin Solvation calculations
  rms_SCF =    1.84334914750468      tol =   0.184334914750468     
 Begin minimization
 Creating dielectric and ionic cavities
  area:      159.423671672567     
  volume:    793.351355575399     
  Acav:     8.369742762809786E-002
  Solving linear dielectric/ionic screening model
        iter                  A_solv                     rms
   LPB:       -0.241531828511186E+00   0.541627371008895E+00
   LPB:    0  -0.238341035662596E+00   0.388688054876114E+00   0.135697E-01   0.000000E+00   0.346566E+02   0.470281E+00
   LPB:    1  -0.232650271865517E+00   0.155741115775893E+00   0.163212E-01   0.000000E+00   0.241750E+03   0.198680E-16
   LPB:    2  -0.231460669787349E+00   0.157121856455365E+00   0.220330E-01   0.154849E+00   0.225515E+03   0.523246E-15
   LPB:    3  -0.230620529107221E+00   0.152946865967916E+00   0.268192E-01   0.580201E+00   0.114754E+03   0.144875E-15
   LPB:    4  -0.229758680688412E+00   0.161570081393020E+00   0.350435E-01   0.785087E+00   0.121124E+03  -0.274381E-15
  Finished solving LPB equations
  A_corr:   -0.146061253060314     
 End minimization
 Ecorr=   3003.52439132712     
 A_corr= -0.146061253060314     
 Ecorr_band=  -3003.67045258018     
 End Solvation calculations
RMM:  15    -0.243613246229E+03    0.34937E+00   -0.20374E-01  5436   0.773E-01    0.292E+00
 Begin Solvation calculations
  rms_SCF =    1.84334914750468      tol =   0.184334914750468     
 Begin minimization
 Creating dielectric and ionic cavities
  area:      160.085542427905     
  volume:    789.808310975532     
  Acav:     8.404490977465036E-002
  Solving linear dielectric/ionic screening model
        iter                  A_solv                     rms
   LPB:       -0.248674068848326E+00   0.944633078852843E+00
   LPB:    0  -0.245230998139754E+00   0.916705868668125E+00   0.140623E-01   0.000000E+00   0.348227E+02   0.489687E+00
   LPB:    1  -0.236418037513387E+00   0.326276938903986E+00   0.133519E-01   0.000000E+00   0.111004E+03   0.236745E-16
   LPB:    2  -0.234458447142557E+00   0.107438069586971E+00   0.154685E-01   0.191928E+00   0.272562E+03   0.300132E-14
   LPB:    3  -0.233703407769424E+00   0.131095392224938E+00   0.271034E-01   0.219901E+00   0.215127E+03   0.412044E-14
   LPB:    4  -0.233106304334326E+00   0.996187109845952E-01   0.287739E-01   0.744912E+00   0.124934E+03   0.441175E-14
  Finished solving LPB equations
  A_corr:   -0.149061394559675     
 End minimization
 Ecorr=   2992.06480361266     
 A_corr= -0.149061394559675     
 Ecorr_band=  -2992.21386500722     
 End Solvation calculations
RMM:  16    -0.243624375112E+03   -0.11129E-01   -0.11760E-01  5432   0.567E-01    0.300E+00
 Begin Solvation calculations
  rms_SCF =    1.61852925403541      tol =   0.161852925403541     
 Begin minimization
 Creating dielectric and ionic cavities
  area:      160.646564586170     
  volume:    784.323449512767     
  Acav:     8.433944640773917E-002
  Solving linear dielectric/ionic screening model
        iter                  A_solv                     rms
   LPB:       -0.273971560893120E+00   0.994565393246039E+00
   LPB:    0  -0.267845946731315E+00   0.103881901126472E+01   0.186879E-01   0.000000E+00   0.350798E+02   0.655569E+00
   LPB:    1  -0.247854242758873E+00   0.414615233315377E+00   0.143401E-01   0.000000E+00   0.161189E+03  -0.387795E-16
   LPB:    2  -0.244142404997429E+00   0.180487444456260E+00   0.166643E-01   0.159773E+00   0.170322E+03  -0.180695E-14
   LPB:    3  -0.242680646343403E+00   0.189851628370989E+00   0.248425E-01   0.264167E+00   0.180930E+03  -0.145226E-14
   LPB:    4  -0.241758818632622E+00   0.153652562040327E+00   0.241859E-01   0.647748E+00   0.180012E+03  -0.409098E-15
  Finished solving LPB equations
  A_corr:   -0.157419372224883     
 End minimization
 Ecorr=   2977.72347917780     
 A_corr= -0.157419372224883     
 Ecorr_band=  -2977.88089855002     
 End Solvation calculations
RMM:  17    -0.243564397181E+03    0.59978E-01   -0.75127E-02  5435   0.433E-01    0.172E+00
 Begin Solvation calculations
  rms_SCF =   0.810300388550510      tol =   8.103003885505104E-002
 Begin minimization
 Creating dielectric and ionic cavities
  area:      160.920962346726     
  volume:    781.943548173493     
  Acav:     8.448350523203135E-002
  Solving linear dielectric/ionic screening model
        iter                  A_solv                     rms
   LPB:       -0.253507388949848E+00   0.409196933408207E+00
   LPB:    0  -0.252217985486944E+00   0.408297787662721E+00   0.856035E-02   0.000000E+00   0.351914E+02   0.301250E+00
   LPB:    1  -0.247184435201352E+00   0.167149647390644E+00   0.147323E-01   0.000000E+00   0.252838E+03   0.437686E-17
   LPB:    2  -0.246303407896228E+00   0.110686361581920E+00   0.201546E-01   0.127942E+00   0.139858E+03   0.435972E-15
   LPB:    3  -0.245404427630764E+00   0.103933060591170E+00   0.403067E-01   0.510220E+00   0.130441E+03   0.915469E-15
   LPB:    4  -0.244516698701432E+00   0.121045541820238E+00   0.364653E-01   0.109151E+01   0.334687E+03   0.137502E-14
   LPB:    5  -0.244025572758744E+00   0.133123795121719E+00   0.248432E-01   0.812055E+00   0.150620E+03   0.316128E-14
   LPB:    6  -0.243648639794735E+00   0.542748894442630E-01   0.229233E-01   0.831767E+00   0.137787E+03   0.384642E-14
  Finished solving LPB equations
  A_corr:   -0.159165134562704     
 End minimization
 Ecorr=   2968.23501615921     
 A_corr= -0.159165134562704     
 Ecorr_band=  -2968.39418129377     
 End Solvation calculations
RMM:  18    -0.243564675192E+03   -0.27801E-03   -0.36535E-02  5432   0.312E-01    0.192E+00
 Begin Solvation calculations
  rms_SCF =   0.810300388550510      tol =   8.103003885505104E-002
 Begin minimization
 Creating dielectric and ionic cavities
  area:      161.320595381390     
  volume:    779.463500944380     
  Acav:     8.469331257522954E-002
  Solving linear dielectric/ionic screening model
        iter                  A_solv                     rms
   LPB:       -0.256573681975802E+00   0.453270898992876E+00
   LPB:    0  -0.255958418623468E+00   0.566819821907674E+00   0.590352E-02   0.000000E+00   0.353076E+02   0.208439E+00
   LPB:    1  -0.249258929454610E+00   0.218588622311938E+00   0.136705E-01   0.000000E+00   0.189849E+03  -0.106946E-16
   LPB:    2  -0.248214858944312E+00   0.663127346165207E-01   0.169209E-01   0.125906E+00   0.145356E+03  -0.940884E-15
   LPB:    3  -0.247977325486203E+00   0.333221175141572E-01   0.227603E-01   0.169138E+00   0.228035E+03  -0.168806E-14
   LPB:    4  -0.247826291630041E+00   0.522594375848800E-01   0.377339E-01   0.383527E+00   0.434645E+03  -0.232675E-14
  Finished solving LPB equations
  A_corr:   -0.163132979054812     
 End minimization
 Ecorr=   2962.43528399410     
 A_corr= -0.163132979054812     
 Ecorr_band=  -2962.59841697315     
 End Solvation calculations
RMM:  19    -0.243541711313E+03    0.22964E-01   -0.18723E-02  5440   0.221E-01    0.931E-01
 Begin Solvation calculations
  rms_SCF =   0.810300388550510      tol =   8.103003885505104E-002
 Begin minimization
 Creating dielectric and ionic cavities
  area:      161.437704011764     
  volume:    778.637012002328     
  Acav:     8.475479460617631E-002
  Solving linear dielectric/ionic screening model
        iter                  A_solv                     rms
   LPB:       -0.250304889315727E+00   0.298692334801000E+00
   LPB:    0  -0.250184512799757E+00   0.319980223016091E+00   0.260984E-02   0.000000E+00   0.353464E+02   0.922483E-01
   LPB:    1  -0.248862455740737E+00   0.938896852921385E-01   0.135025E-01   0.000000E+00   0.134607E+03  -0.412807E-17
   LPB:    2  -0.248670706303288E+00   0.435249658427424E-01   0.154877E-01   0.126447E+00   0.181085E+03   0.314593E-15
   LPB:    3  -0.248562788089009E+00   0.646056328998919E-01   0.321090E-01   0.271470E+00   0.117210E+03  -0.223489E-15
   LPB:    4  -0.248420564899053E+00   0.614067957446695E-01   0.331460E-01   0.127664E+01   0.150309E+03  -0.609715E-15
  Finished solving LPB equations
  A_corr:   -0.163665770292877     
 End minimization
 Ecorr=   2959.69557525409     
 A_corr= -0.163665770292877     
 Ecorr_band=  -2959.85924102439     
 End Solvation calculations
RMM:  20    -0.243539728995E+03    0.19823E-02   -0.56116E-03  5432   0.121E-01    0.821E-01
 Begin Solvation calculations
  rms_SCF =   0.810300388550510      tol =   8.103003885505104E-002
 Begin minimization
 Creating dielectric and ionic cavities
  area:      161.888639691367     
  volume:    776.384489591595     
  Acav:     8.499153583796780E-002
  Solving linear dielectric/ionic screening model
        iter                  A_solv                     rms
   LPB:       -0.268669334552328E+00   0.105007713216530E+01
   LPB:    0  -0.267151153615155E+00   0.104909720033367E+01   0.925457E-02   0.000000E+00   0.354520E+02   0.328093E+00
   LPB:    1  -0.253109528628700E+00   0.281478647426082E+00   0.134412E-01   0.000000E+00   0.140017E+03  -0.951569E-17
   LPB:    2  -0.251517100431871E+00   0.131020822371222E+00   0.142050E-01   0.107309E+00   0.184457E+03   0.591089E-15
   LPB:    3  -0.251096910739320E+00   0.789272947390702E-01   0.193700E-01   0.193508E+00   0.139807E+03   0.179635E-14
   LPB:    4  -0.250890720105551E+00   0.691934737816799E-01   0.236375E-01   0.402115E+00   0.264374E+03   0.189025E-14
  Finished solving LPB equations
  A_corr:   -0.165899184267583     
 End minimization
 Ecorr=   2954.59955606976     
 A_corr= -0.165899184267583     
 Ecorr_band=  -2954.76545525403     
 End Solvation calculations
RMM:  21    -0.243537641421E+03    0.20876E-02   -0.38399E-03  5435   0.972E-02    0.757E-01
 Begin Solvation calculations
  rms_SCF =   0.810300388550510      tol =   8.103003885505104E-002
 Begin minimization
 Creating dielectric and ionic cavities
  area:      162.047953256143     
  volume:    775.642892787004     
  Acav:     8.507517545947503E-002
  Solving linear dielectric/ionic screening model
        iter                  A_solv                     rms
   LPB:       -0.254125413066014E+00   0.381170040439478E+00
   LPB:    0  -0.254035739218831E+00   0.382897929663949E+00   0.224810E-02   0.000000E+00   0.354868E+02   0.797776E-01
   LPB:    1  -0.252070080635638E+00   0.100470297492415E+00   0.136629E-01   0.000000E+00   0.143386E+03   0.386114E-17
   LPB:    2  -0.251815441780833E+00   0.654461428327109E-01   0.162693E-01   0.108791E+00   0.164678E+03   0.727676E-16
   LPB:    3  -0.251642835213569E+00   0.679991822098571E-01   0.289900E-01   0.380411E+00   0.101110E+03  -0.243314E-16
   LPB:    4  -0.251480191913316E+00   0.599818417579469E-01   0.293794E-01   0.929789E+00   0.231425E+03  -0.660393E-16
  Finished solving LPB equations
  A_corr:   -0.166405016453841     
 End minimization
 Ecorr=   2953.63903533309     
 A_corr= -0.166405016453841     
 Ecorr_band=  -2953.80544034954     
 End Solvation calculations
RMM:  22    -0.243536455598E+03    0.11858E-02   -0.20004E-03  5434   0.717E-02    0.698E-01
 Begin Solvation calculations
  rms_SCF =   0.810300388550510      tol =   8.103003885505104E-002
 Begin minimization
 Creating dielectric and ionic cavities
  area:      162.233873610030     
  volume:    774.830541354497     
  Acav:     8.517278364526581E-002
  Solving linear dielectric/ionic screening model
        iter                  A_solv                     rms
   LPB:       -0.257019738471039E+00   0.618122534841438E+00
   LPB:    0  -0.256818901652063E+00   0.615288959046446E+00   0.336256E-02   0.000000E+00   0.355248E+02   0.119455E+00
   LPB:    1  -0.252802530794576E+00   0.144643544857375E+00   0.132344E-01   0.000000E+00   0.121094E+03  -0.760250E-17
   LPB:    2  -0.252402074980546E+00   0.709137391569823E-01   0.134010E-01   0.984664E-01   0.212183E+03  -0.172422E-15
   LPB:    3  -0.252274052920398E+00   0.423765419021000E-01   0.215064E-01   0.199205E+00   0.117116E+03  -0.368084E-15
   LPB:    4  -0.252165105337591E+00   0.526586985298259E-01   0.332372E-01   0.550651E+00   0.217082E+03  -0.673059E-15
  Finished solving LPB equations
  A_corr:   -0.166992321692325     
 End minimization
 Ecorr=   2952.08388216430     
 A_corr= -0.166992321692325     
 Ecorr_band=  -2952.25087448599     
 End Solvation calculations
RMM:  23    -0.243536838224E+03   -0.38263E-03   -0.12342E-03  5411   0.544E-02    0.757E-01
 Begin Solvation calculations
  rms_SCF =   0.810300388550510      tol =   8.103003885505104E-002
 Begin minimization
 Creating dielectric and ionic cavities
  area:      162.505693833501     
  volume:    773.768178486757     
  Acav:     8.531548926258781E-002
  Solving linear dielectric/ionic screening model
        iter                  A_solv                     rms
   LPB:       -0.265076530398941E+00   0.969854038249369E+00
   LPB:    0  -0.264747044068564E+00   0.974170876968599E+00   0.430391E-02   0.000000E+00   0.355746E+02   0.153110E+00
   LPB:    1  -0.255054949869547E+00   0.226178405807482E+00   0.132132E-01   0.000000E+00   0.116869E+03   0.588326E-17
   LPB:    2  -0.254049199472640E+00   0.110118263746235E+00   0.135761E-01   0.100997E+00   0.205969E+03   0.107347E-16
   LPB:    3  -0.253762284038385E+00   0.589457926299446E-01   0.198501E-01   0.195107E+00   0.124299E+03   0.751799E-17
   LPB:    4  -0.253595680383389E+00   0.625030812479621E-01   0.270015E-01   0.426881E+00   0.272126E+03  -0.879431E-16
  Finished solving LPB equations
  A_corr:   -0.168280191120801     
 End minimization
 Ecorr=   2950.30624572089     
 A_corr= -0.168280191120801     
 Ecorr_band=  -2950.47452591201     
 End Solvation calculations
RMM:  24    -0.243535599927E+03    0.12383E-02   -0.11229E-03  5379   0.488E-02    0.670E-01
 Begin Solvation calculations
  rms_SCF =   0.810300388550510      tol =   8.103003885505104E-002
 Begin minimization
 Creating dielectric and ionic cavities
  area:      162.628242397132     
  volume:    773.357708602673     
  Acav:     8.537982725849455E-002
  Solving linear dielectric/ionic screening model
        iter                  A_solv                     rms
   LPB:       -0.256820635935123E+00   0.482495810362478E+00
   LPB:    0  -0.256778699512084E+00   0.481413573939884E+00   0.153505E-02   0.000000E+00   0.355939E+02   0.546385E-01
   LPB:    1  -0.254668190342748E+00   0.109545701957443E+00   0.131469E-01   0.000000E+00   0.105349E+03  -0.370115E-17
   LPB:    2  -0.254430752393066E+00   0.589445945990202E-01   0.139086E-01   0.106342E+00   0.213728E+03  -0.246774E-16
   LPB:    3  -0.254299300067017E+00   0.453214726922869E-01   0.278355E-01   0.276631E+00   0.100242E+03   0.192902E-15
   LPB:    4  -0.254159428033989E+00   0.507988155125689E-01   0.352553E-01   0.840112E+00   0.201602E+03   0.427655E-15
  Finished solving LPB equations
  A_corr:   -0.168779600775495     
 End minimization
 Ecorr=   2950.06683553677     
 A_corr= -0.168779600775495     
 Ecorr_band=  -2950.23561513755     
 End Solvation calculations
RMM:  25    -0.243535791488E+03   -0.19156E-03   -0.46697E-04  4839   0.314E-02    0.693E-01
 Begin Solvation calculations
  rms_SCF =   0.810300388550510      tol =   8.103003885505104E-002
 Begin minimization
 Creating dielectric and ionic cavities
  area:      162.944656976849     
  volume:    772.464565001555     
  Acav:     8.554594491284556E-002
  Solving linear dielectric/ionic screening model
        iter                  A_solv                     rms
   LPB:       -0.279002096310250E+00   0.154626871363269E+01
   LPB:    0  -0.278650140451598E+00   0.155145259871655E+01   0.444443E-02   0.000000E+00   0.356358E+02   0.158381E+00
   LPB:    1  -0.259254324380759E+00   0.335554725715087E+00   0.128032E-01   0.000000E+00   0.982811E+02   0.389445E-19
   LPB:    2  -0.257243985676054E+00   0.138710807237635E+00   0.127418E-01   0.104147E+00   0.241262E+03  -0.548209E-15
   LPB:    3  -0.256780581231283E+00   0.571628336692782E-01   0.188718E-01   0.155636E+00   0.138818E+03  -0.598530E-15
   LPB:    4  -0.256567921315308E+00   0.673405168425382E-01   0.264795E-01   0.327060E+00   0.284219E+03  -0.588586E-15
  Finished solving LPB equations
  A_corr:   -0.171021976402462     
 End minimization
 Ecorr=   2948.34306893690     
 A_corr= -0.171021976402462     
 Ecorr_band=  -2948.51409091330     
 End Solvation calculations
RMM:  26    -0.243533651090E+03    0.21404E-02   -0.96525E-04  4873   0.387E-02    0.356E-01
 Begin Solvation calculations
  rms_SCF =   0.569918522948016      tol =   5.699185229480158E-002
 Begin minimization
 Creating dielectric and ionic cavities
  area:      163.041970555680     
  volume:    772.259884969178     
  Acav:     8.559703454173179E-002
  Solving linear dielectric/ionic screening model
        iter                  A_solv                     rms
   LPB:       -0.260480101829793E+00   0.596524076885709E+00
   LPB:    0  -0.260461525072777E+00   0.595344134951257E+00   0.102094E-02   0.000000E+00   0.356454E+02   0.363916E-01
   LPB:    1  -0.257860198346222E+00   0.126169092848137E+00   0.128022E-01   0.000000E+00   0.894265E+02  -0.327682E-17
   LPB:    2  -0.257567071913121E+00   0.604957297508109E-01   0.132819E-01   0.108614E+00   0.237679E+03  -0.876863E-16
   LPB:    3  -0.257409728693272E+00   0.403139055817030E-01   0.289909E-01   0.245919E+00   0.998434E+02  -0.137667E-15
   LPB:    4  -0.257243946508428E+00   0.462829350352177E-01   0.372563E-01   0.819882E+00   0.184689E+03  -0.286497E-15
  Finished solving LPB equations
  A_corr:   -0.171646911966696     
 End minimization
 Ecorr=   2948.63806653638     
 A_corr= -0.171646911966696     
 Ecorr_band=  -2948.80971344835     
 End Solvation calculations
RMM:  27    -0.243534374119E+03   -0.72303E-03   -0.26807E-04  4748   0.237E-02    0.424E-01
 Begin Solvation calculations
  rms_SCF =   0.569918522948016      tol =   5.699185229480158E-002
 Begin minimization
 Creating dielectric and ionic cavities
  area:      163.137211267075     
  volume:    772.124949864881     
  Acav:     8.564703591521433E-002
  Solving linear dielectric/ionic screening model
        iter                  A_solv                     rms
   LPB:       -0.262705737123483E+00   0.746603067648174E+00
   LPB:    0  -0.262690186716125E+00   0.747188174132840E+00   0.933998E-03   0.000000E+00   0.356517E+02   0.332986E-01
   LPB:    1  -0.258932207844536E+00   0.150616584290462E+00   0.125210E-01   0.000000E+00   0.858646E+02   0.114432E-17
   LPB:    2  -0.258560275502105E+00   0.549158530743521E-01   0.121152E-01   0.102286E+00   0.272770E+03   0.238241E-15
   LPB:    3  -0.258465753935403E+00   0.232618600470809E-01   0.220699E-01   0.139508E+00   0.127621E+03   0.387081E-15
   LPB:    4  -0.258375388732798E+00   0.415818007749528E-01   0.420515E-01   0.501751E+00   0.162630E+03   0.493518E-15
  Finished solving LPB equations
  A_corr:   -0.172728352817584     
 End minimization
 Ecorr=   2948.40327995339     
 A_corr= -0.172728352817584     
 Ecorr_band=  -2948.57600830621     
 End Solvation calculations
RMM:  28    -0.243534277662E+03    0.96457E-04   -0.20475E-04  4610   0.189E-02    0.334E-01
 Begin Solvation calculations
  rms_SCF =   0.533110359089942      tol =   5.331103590899423E-002
 Begin minimization
 Creating dielectric and ionic cavities
  area:      163.203276303836     
  volume:    772.089762842336     
  Acav:     8.568172005951402E-002
  Solving linear dielectric/ionic screening model
        iter                  A_solv                     rms
   LPB:       -0.262141112813094E+00   0.615411321204045E+00
   LPB:    0  -0.262139788043992E+00   0.615750596162749E+00   0.272606E-03   0.000000E+00   0.356533E+02   0.971930E-02
   LPB:    1  -0.259686502374511E+00   0.121230903638630E+00   0.124686E-01   0.000000E+00   0.832317E+02  -0.638422E-18
   LPB:    2  -0.259443675361009E+00   0.454161666359213E-01   0.121493E-01   0.101581E+00   0.272970E+03   0.297237E-16
   LPB:    3  -0.259373363566658E+00   0.203511728094945E-01   0.236741E-01   0.148597E+00   0.117614E+03   0.491968E-16
   LPB:    4  -0.259298038524519E+00   0.340368286841810E-01   0.437727E-01   0.579405E+00   0.147727E+03   0.590188E-16
  Finished solving LPB equations
  A_corr:   -0.173616318465005     
 End minimization
 Ecorr=   2948.46082642888     
 A_corr= -0.173616318465005     
 Ecorr_band=  -2948.63444274735     
 End Solvation calculations
RMM:  29    -0.243534616100E+03   -0.33844E-03   -0.16225E-04  4606   0.176E-02    0.316E-01
 Begin Solvation calculations
  rms_SCF =   0.518625508176155      tol =   5.186255081761554E-002
 Begin minimization
 Creating dielectric and ionic cavities
  area:      163.277349545579     
  volume:    772.202717313609     
  Acav:     8.572060851142903E-002
  Solving linear dielectric/ionic screening model
        iter                  A_solv                     rms
   LPB:       -0.267761266126125E+00   0.102926846177560E+01
   LPB:    0  -0.267760385242024E+00   0.102874848567025E+01  -0.222309E-03   0.000000E+00   0.356480E+02  -0.792487E-02
   LPB:    1  -0.261587038859757E+00   0.192678197095862E+00   0.121430E-01   0.000000E+00   0.791169E+02   0.237991E-18
   LPB:    2  -0.260967681182529E+00   0.636172519416771E-01   0.119629E-01   0.101838E+00   0.286363E+03   0.228058E-15
   LPB:    3  -0.260847883196646E+00   0.192521617872626E-01   0.199459E-01   0.116009E+00   0.139749E+03   0.913679E-16
   LPB:    4  -0.260778551803533E+00   0.302603685742787E-01   0.352123E-01   0.327824E+00   0.201646E+03   0.230126E-16
  Finished solving LPB equations
  A_corr:   -0.175057943292104     
 End minimization
 Ecorr=   2948.53873426999     
 A_corr= -0.175057943292104     
 Ecorr_band=  -2948.71379221329     
 End Solvation calculations
RMM:  30    -0.243534798045E+03   -0.18195E-03   -0.30733E-04  4606   0.223E-02    0.187E-01
 Begin Solvation calculations
  rms_SCF =   0.282901947542940      tol =   2.829019475429397E-002
 Begin minimization
 Creating dielectric and ionic cavities
  area:      163.347990733674     
  volume:    772.380327110796     
  Acav:     8.575769513517909E-002
  Solving linear dielectric/ionic screening model
        iter                  A_solv                     rms
   LPB:       -0.270375659063088E+00   0.110328420890383E+01
   LPB:    0  -0.270368695522814E+00   0.110148359422928E+01  -0.625119E-03   0.000000E+00   0.356397E+02  -0.222791E-01
   LPB:    1  -0.263502057939511E+00   0.203445641477300E+00   0.120779E-01   0.000000E+00   0.775863E+02  -0.222412E-18
   LPB:    2  -0.262800209421115E+00   0.678633613046225E-01   0.120471E-01   0.102473E+00   0.283524E+03  -0.427840E-16
   LPB:    3  -0.262656686897012E+00   0.207706006368363E-01   0.204676E-01   0.120362E+00   0.136654E+03  -0.499898E-16
   LPB:    4  -0.262572344660464E+00   0.307873602819783E-01   0.350970E-01   0.342707E+00   0.205326E+03  -0.159786E-15
   LPB:    5  -0.262509100958425E+00   0.368099886196940E-01   0.324047E-01   0.812145E+00   0.800015E+02  -0.228639E-15
   LPB:    6  -0.262456508606654E+00   0.224153628781193E-01   0.297702E-01   0.905174E+00   0.127046E+03  -0.342590E-15
  Finished solving LPB equations
  A_corr:   -0.176698813471475     
 End minimization
 Ecorr=   2948.93268898395     
 A_corr= -0.176698813471475     
 Ecorr_band=  -2949.10938779742     
 End Solvation calculations
RMM:  31    -0.243535060728E+03   -0.26268E-03   -0.30447E-04  4605   0.198E-02    0.152E-01
 Begin Solvation calculations
  rms_SCF =   0.239719493944133      tol =   2.397194939441327E-002
 Begin minimization
 Creating dielectric and ionic cavities
  area:      163.364727259072     
  volume:    772.441190435955     
  Acav:     8.576648181101290E-002
  Solving linear dielectric/ionic screening model
        iter                  A_solv                     rms
   LPB:       -0.263811891930802E+00   0.351464880964842E+00
   LPB:    0  -0.263808574777622E+00   0.350350465982510E+00  -0.431467E-03   0.000000E+00   0.356369E+02  -0.153761E-01
   LPB:    1  -0.263165397552566E+00   0.631489292080271E-01   0.117161E-01   0.000000E+00   0.763454E+02   0.411852E-18
   LPB:    2  -0.263090825082427E+00   0.194312005880364E-01   0.125935E-01   0.107866E+00   0.291180E+03   0.175906E-16
   LPB:    3  -0.263074633281683E+00   0.684914774830120E-02   0.208371E-01   0.131228E+00   0.176785E+03   0.153194E-17
   LPB:    4  -0.263053064509903E+00   0.106677564363458E-01   0.677318E-01   0.409803E+00   0.244868E+03  -0.994313E-17
  Finished solving LPB equations
  A_corr:   -0.177286582698890     
 End minimization
 Ecorr=   2948.99440801739     
 A_corr= -0.177286582698890     
 Ecorr_band=  -2949.17169460009     
 End Solvation calculations
RMM:  32    -0.243534971436E+03    0.89292E-04   -0.99135E-05  4259   0.995E-03    0.101E-01
 Begin Solvation calculations
  rms_SCF =   0.156393225490672      tol =   1.563932254906724E-002
 Begin minimization
 Creating dielectric and ionic cavities
  area:      163.380540065818     
  volume:    772.513279279316     
  Acav:     8.577478353455448E-002
  Solving linear dielectric/ionic screening model
        iter                  A_solv                     rms
   LPB:       -0.264590529344547E+00   0.393849254507581E+00
   LPB:    0  -0.264582832501442E+00   0.390468440282468E+00  -0.657268E-03   0.000000E+00   0.356335E+02  -0.234207E-01
   LPB:    1  -0.263847435902543E+00   0.664876111691918E-01   0.114643E-01   0.000000E+00   0.732477E+02  -0.617033E-18
   LPB:    2  -0.263771256118357E+00   0.178178329219998E-01   0.119084E-01   0.997270E-01   0.285614E+03   0.168400E-15
   LPB:    3  -0.263757581465292E+00   0.608404573690001E-02   0.229785E-01   0.930272E-01   0.135705E+03   0.188974E-15
   LPB:    4  -0.263742008361731E+00   0.100666878476389E-01   0.525271E-01   0.498191E+00   0.109449E+03   0.187600E-15
  Finished solving LPB equations
  A_corr:   -0.177967224827177     
 End minimization
 Ecorr=   2948.93502913825     
 A_corr= -0.177967224827177     
 Ecorr_band=  -2949.11299636308     
 End Solvation calculations
RMM:  33    -0.243535212799E+03   -0.24136E-03   -0.82354E-05  4024   0.869E-03    0.193E-01
 Begin Solvation calculations
  rms_SCF =   0.156393225490672      tol =   1.563932254906724E-002
 Begin minimization
 Creating dielectric and ionic cavities
  area:      163.384556118885     
  volume:    772.514585186298     
  Acav:     8.577689196241466E-002
  Solving linear dielectric/ionic screening model
        iter                  A_solv                     rms
   LPB:       -0.263925330536143E+00   0.827367284833265E-01
   LPB:    0  -0.263925304095909E+00   0.827561145012435E-01  -0.385229E-04   0.000000E+00   0.356334E+02  -0.137270E-02
   LPB:    1  -0.263892358646745E+00   0.153793647859119E-01   0.113507E-01   0.000000E+00   0.746123E+02   0.809736E-19
   LPB:    2  -0.263886894007163E+00   0.463887311570570E-02   0.147410E-01   0.127721E+00   0.301022E+03   0.171649E-16
   LPB:    3  -0.263873406204322E+00   0.107424519345899E-01   0.110748E+00   0.328526E+00   0.833067E+02   0.205269E-16
   LPB:    4  -0.263849919821493E+00   0.511202881028606E-02   0.425851E-01   0.452848E+01   0.598167E+02   0.757502E-17
  Finished solving LPB equations
  A_corr:   -0.178073027859078     
 End minimization
 Ecorr=   2949.12071312020     
 A_corr= -0.178073027859078     
 Ecorr_band=  -2949.29878614806     
 End Solvation calculations
RMM:  34    -0.243536019314E+03   -0.80651E-03   -0.70297E-05  4241   0.899E-03    0.362E-01
 Begin Solvation calculations
  rms_SCF =   0.156393225490672      tol =   1.563932254906724E-002
 Begin minimization
 Creating dielectric and ionic cavities
  area:      163.384630091180     
  volume:    772.529761548033     
  Acav:     8.577693079786967E-002
  Solving linear dielectric/ionic screening model
        iter                  A_solv                     rms
   LPB:       -0.263883647329951E+00   0.106263423664516E-01
   LPB:    0  -0.263883462010760E+00   0.658511130206109E-02  -0.101988E-03   0.000000E+00   0.356327E+02  -0.363412E-02
   LPB:    1  -0.263878956175638E+00   0.272444557572468E-02   0.187198E-01   0.000000E+00   0.379138E+03  -0.222619E-18
   LPB:    2  -0.263877017251957E+00   0.682253549707194E-02   0.329205E-01   0.244692E+00   0.633974E+03   0.244926E-16
   LPB:    3  -0.263875888130994E+00   0.709602608840164E-02   0.214421E-01   0.894088E+00   0.157841E+03   0.354004E-16
   LPB:    4  -0.263874670602219E+00   0.300210968492959E-02   0.303166E-01   0.762649E+00   0.275977E+03   0.412210E-16
  Finished solving LPB equations
  A_corr:   -0.178097739804349     
 End minimization
 Ecorr=   2949.01902969188     
 A_corr= -0.178097739804349     
 Ecorr_band=  -2949.19712743168     
 End Solvation calculations
RMM:  35    -0.243536584715E+03   -0.56540E-03   -0.14989E-05  3339   0.454E-03    0.435E-01
 Begin Solvation calculations
  rms_SCF =   0.156393225490672      tol =   1.563932254906724E-002
 Begin minimization
 Creating dielectric and ionic cavities
  area:      163.387334661045     
  volume:    772.542820781534     
  Acav:     8.577835069704870E-002
  Solving linear dielectric/ionic screening model
        iter                  A_solv                     rms
   LPB:       -0.263953209527151E+00   0.234987711848807E-01
   LPB:    0  -0.263953112657542E+00   0.228942051665417E-01  -0.737374E-04   0.000000E+00   0.356321E+02  -0.262742E-02
   LPB:    1  -0.263947847243420E+00   0.346308730157058E-02   0.132157E-01   0.000000E+00   0.114363E+03   0.883556E-19
   LPB:    2  -0.263947438129620E+00   0.310066247151386E-02   0.163192E-01   0.629222E-01   0.328751E+03  -0.227197E-16
   LPB:    3  -0.263947024051741E+00   0.361706925015713E-02   0.323374E-01   0.510777E+00   0.128411E+03  -0.227956E-16
   LPB:    4  -0.263946081537320E+00   0.162413410303791E-02   0.525832E-01   0.139979E+01   0.401927E+03  -0.230101E-16
  Finished solving LPB equations
  A_corr:   -0.178167730840272     
 End minimization
 Ecorr=   2949.01002278977     
 A_corr= -0.178167730840272     
 Ecorr_band=  -2949.18819052062     
 End Solvation calculations
RMM:  36    -0.243537007224E+03   -0.42251E-03   -0.65577E-06  2929   0.330E-03    0.484E-01
 Begin Solvation calculations
  rms_SCF =   0.156393225490672      tol =   1.563932254906724E-002
 Begin minimization
 Creating dielectric and ionic cavities
  area:      163.387245673172     
  volume:    772.547892720073     
  Acav:     8.577830397841536E-002
  Solving linear dielectric/ionic screening model
        iter                  A_solv                     rms
   LPB:       -0.263917342025744E+00   0.292514309281828E-01
   LPB:    0  -0.263917338485905E+00   0.292763565314510E-01  -0.140957E-04   0.000000E+00   0.356319E+02  -0.502257E-03
   LPB:    1  -0.263913406084856E+00   0.505458018724626E-02   0.107311E-01   0.000000E+00   0.796746E+02  -0.203751E-19
   LPB:    2  -0.263912551477714E+00   0.130997542135407E-02   0.166820E-01   0.139799E+00   0.265903E+03  -0.154897E-17
   LPB:    3  -0.263912275336846E+00   0.138809016976704E-02   0.269731E-01   0.199839E+00   0.628315E+03  -0.127362E-16
   LPB:    4  -0.263911969823548E+00   0.229631095094023E-02   0.445444E-01   0.669942E+00   0.476026E+03  -0.176455E-16
  Finished solving LPB equations
  A_corr:   -0.178133665845133     
 End minimization
 Ecorr=   2949.00944253214     
 A_corr= -0.178133665845133     
 Ecorr_band=  -2949.18757619799     
 End Solvation calculations
RMM:  37    -0.243537332806E+03   -0.32558E-03   -0.36147E-06  2354   0.241E-03    0.519E-01
 Begin Solvation calculations
  rms_SCF =   0.156393225490672      tol =   1.563932254906724E-002
 Begin minimization
 Creating dielectric and ionic cavities
  area:      163.386966528896     
  volume:    772.547619927477     
  Acav:     8.577815742767041E-002
  Solving linear dielectric/ionic screening model
        iter                  A_solv                     rms
   LPB:       -0.263900054792090E+00   0.882127149450343E-02
   LPB:    0  -0.263900054573861E+00   0.884497157808153E-02   0.349987E-05   0.000000E+00   0.356319E+02   0.124707E-03
   LPB:    1  -0.263899594827230E+00   0.224349965182384E-02   0.121870E-01   0.000000E+00   0.777125E+02  -0.572205E-20
   LPB:    2  -0.263899480295823E+00   0.903045840972894E-03   0.170759E-01   0.177795E+00   0.453650E+03  -0.152690E-17
   LPB:    3  -0.263899232613184E+00   0.260126876155608E-02   0.778078E-01   0.474603E+00   0.191790E+03  -0.101495E-17
   LPB:    4  -0.263898806227720E+00   0.260809389451331E-02   0.428822E-01   0.312358E+01   0.102009E+03   0.724054E-17
  Finished solving LPB equations
  A_corr:   -0.178120648800049     
 End minimization
 Ecorr=   2948.98279874630     
 A_corr= -0.178120648800049     
 Ecorr_band=  -2949.16091939510     
 End Solvation calculations
RMM:  38    -0.243537447666E+03   -0.11486E-03   -0.11571E-06  1690   0.155E-03    0.531E-01
 Begin Solvation calculations
  rms_SCF =   0.156393225490672      tol =   1.563932254906724E-002
 Begin minimization
 Creating dielectric and ionic cavities
  area:      163.388676971937     
  volume:    772.549159436745     
  Acav:     8.577905541026697E-002
  Solving linear dielectric/ionic screening model
        iter                  A_solv                     rms
   LPB:       -0.263950151036815E+00   0.339537237064627E-01
   LPB:    0  -0.263950151022259E+00   0.339542755921533E-01  -0.903893E-06   0.000000E+00   0.356318E+02  -0.322073E-04
   LPB:    1  -0.263945331903240E+00   0.542365816102314E-02   0.108680E-01   0.000000E+00   0.707539E+02  -0.778880E-22
   LPB:    2  -0.263944652938420E+00   0.151698336851499E-02   0.137466E-01   0.111387E+00   0.238826E+03  -0.198766E-17
   LPB:    3  -0.263944489140723E+00   0.642912885214303E-03   0.238320E-01   0.139154E+00   0.167147E+03  -0.297522E-17
   LPB:    4  -0.263944398770728E+00   0.404582254231708E-03   0.342135E-01   0.384308E+00   0.449095E+03   0.225100E-17
  Finished solving LPB equations
  A_corr:   -0.178165343360461     
 End minimization
 Ecorr=   2948.97379411907     
 A_corr= -0.178165343360461     
 Ecorr_band=  -2949.15195946243     
 End Solvation calculations
RMM:  39    -0.243537316176E+03    0.13149E-03   -0.33410E-07  1173   0.129E-03    0.518E-01
 Begin Solvation calculations
  rms_SCF =   0.156393225490672      tol =   1.563932254906724E-002
 Begin minimization
 Creating dielectric and ionic cavities
  area:      163.387143177631     
  volume:    772.559165345353     
  Acav:     8.577825016825621E-002
  Solving linear dielectric/ionic screening model
        iter                  A_solv                     rms
   LPB:       -0.263922578066821E+00   0.264786145108617E-01
   LPB:    0  -0.263922488249197E+00   0.263436468044899E-01  -0.710035E-04   0.000000E+00   0.356313E+02  -0.252995E-02
   LPB:    1  -0.263918407098335E+00   0.429925679930334E-02   0.993273E-02   0.000000E+00   0.119013E+03   0.110765E-19
   LPB:    2  -0.263918086999024E+00   0.101867810630097E-02   0.127812E-01   0.609537E-01   0.262890E+03  -0.670414E-18
   LPB:    3  -0.263918007648445E+00   0.855863909278537E-03   0.247632E-01   0.127947E+00   0.178638E+03  -0.665671E-17
   LPB:    4  -0.263917959860927E+00   0.109430271208265E-02   0.310965E-01   0.479579E+00   0.311769E+03  -0.947645E-17
  Finished solving LPB equations
  A_corr:   -0.178139709692671     
 End minimization
 Ecorr=   2948.96950688744     
 A_corr= -0.178139709692671     
 Ecorr_band=  -2949.14764659714     
 End Solvation calculations
RMM:  40    -0.243537214512E+03    0.10166E-03   -0.23423E-06  2603   0.222E-03    0.505E-01
 Begin Solvation calculations
  rms_SCF =   0.156393225490672      tol =   1.563932254906724E-002
 Begin minimization
 Creating dielectric and ionic cavities
  area:      163.383698661857     
  volume:    772.616704515324     
  Acav:     8.577644179747491E-002
  Solving linear dielectric/ionic screening model
        iter                  A_solv                     rms
   LPB:       -0.264455731149597E+00   0.258907364092138E+00
   LPB:    0  -0.264449172179680E+00   0.255745824332454E+00  -0.606783E-03   0.000000E+00   0.356286E+02  -0.216188E-01
   LPB:    1  -0.264195436078711E+00   0.329311497088365E-01   0.997013E-02   0.000000E+00   0.777559E+02   0.120346E-17
   LPB:    2  -0.264171481802624E+00   0.803408415607418E-02   0.128028E-01   0.735184E-01   0.228904E+03  -0.579333E-16
   LPB:    3  -0.264168918787842E+00   0.167056088631420E-02   0.188836E-01   0.725418E-01   0.142354E+03  -0.145038E-15
   LPB:    4  -0.264168321400140E+00   0.192025506999144E-02   0.262726E-01   0.167528E+00   0.453004E+03  -0.175798E-15
  Finished solving LPB equations
  A_corr:   -0.178391879602665     
 End minimization
 Ecorr=   2948.91587529415     
 A_corr= -0.178391879602665     
 Ecorr_band=  -2949.09426717375     
 End Solvation calculations
RMM:  41    -0.243536210059E+03    0.10045E-02   -0.36120E-05  3883   0.648E-03    0.365E-01
 Begin Solvation calculations
  rms_SCF =   0.156393225490672      tol =   1.563932254906724E-002
 Begin minimization
 Creating dielectric and ionic cavities
  area:      163.388070582233     
  volume:    772.673948365380     
  Acav:     8.577873705567253E-002
  Solving linear dielectric/ionic screening model
        iter                  A_solv                     rms
   LPB:       -0.265502315858016E+00   0.402295046723376E+00
   LPB:    0  -0.265491873578957E+00   0.397867970678774E+00  -0.765649E-03   0.000000E+00   0.356259E+02  -0.272770E-01
   LPB:    1  -0.264877658046085E+00   0.553550550446839E-01   0.103060E-01   0.000000E+00   0.727243E+02  -0.189265E-17
   LPB:    2  -0.264810492835832E+00   0.130126800177530E-01   0.129260E-01   0.871863E-01   0.227070E+03  -0.174036E-16
   LPB:    3  -0.264802520276322E+00   0.268330293812210E-02   0.194127E-01   0.790371E-01   0.167403E+03  -0.403422E-16
   LPB:    4  -0.264800214677790E+00   0.158411723436370E-02   0.287312E-01   0.195397E+00   0.312798E+03  -0.354828E-16
  Finished solving LPB equations
  A_corr:   -0.179021477622117     
 End minimization
 Ecorr=   2948.73371749830     
 A_corr= -0.179021477622117     
 Ecorr_band=  -2948.91273897593     
 End Solvation calculations
RMM:  42    -0.243535248874E+03    0.96118E-03   -0.79969E-05  4452   0.940E-03    0.143E-01
 Begin Solvation calculations
  rms_SCF =   0.156393225490672      tol =   1.563932254906724E-002
 Begin minimization
 Creating dielectric and ionic cavities
  area:      163.393101738737     
  volume:    772.684490891326     
  Acav:     8.578137841283708E-002
  Solving linear dielectric/ionic screening model
        iter                  A_solv                     rms
   LPB:       -0.265273553624601E+00   0.165962108107475E+00
   LPB:    0  -0.265271724854370E+00   0.163703553490865E+00  -0.320416E-03   0.000000E+00   0.356255E+02  -0.114150E-01
   LPB:    1  -0.265166807024730E+00   0.239224819594439E-01   0.104483E-01   0.000000E+00   0.712065E+02   0.863256E-18
   LPB:    2  -0.265154449872469E+00   0.591010718947376E-02   0.131190E-01   0.938023E-01   0.216454E+03  -0.451923E-16
   LPB:    3  -0.265152404962941E+00   0.186028307442216E-02   0.229861E-01   0.944475E-01   0.143787E+03  -0.515909E-16
   LPB:    4  -0.265151194324533E+00   0.158128235368420E-02   0.357497E-01   0.380656E+00   0.166300E+03  -0.587485E-16
  Finished solving LPB equations
  A_corr:   -0.179369815911696     
 End minimization
 Ecorr=   2948.57634862549     
 A_corr= -0.179369815911696     
 Ecorr_band=  -2948.75571844140     
 End Solvation calculations
RMM:  43    -0.243535095541E+03    0.15333E-03   -0.21099E-05  3495   0.579E-03    0.538E-02
 Begin Solvation calculations
  rms_SCF =   6.190813553714952E-002 tol =   6.190813553714952E-003
 Begin minimization
 Creating dielectric and ionic cavities
  area:      163.388587622785     
  volume:    772.669087464426     
  Acav:     8.577900850196213E-002
  Solving linear dielectric/ionic screening model
        iter                  A_solv                     rms
   LPB:       -0.265287201056154E+00   0.841045535656387E-01
   LPB:    0  -0.265283712678458E+00   0.783315923856058E-01  -0.442529E-03   0.000000E+00   0.356262E+02  -0.157656E-01
   LPB:    1  -0.265210907798431E+00   0.153910167441389E-01   0.132657E-01   0.000000E+00   0.129399E+03  -0.938799E-18
   LPB:    2  -0.265204844704068E+00   0.100037209434560E-01   0.141214E-01   0.782322E-01   0.213218E+03   0.501036E-16
   LPB:    3  -0.265203242308982E+00   0.387070332908063E-02   0.165449E-01   0.225575E+00   0.131279E+03   0.544216E-16
   LPB:    4  -0.265202710616020E+00   0.321158222250657E-02   0.230537E-01   0.238130E+00   0.424977E+03   0.710869E-16
  Finished solving LPB equations
  A_corr:   -0.179423702114058     
 End minimization
 Ecorr=   2948.45268369872     
 A_corr= -0.179423702114058     
 Ecorr_band=  -2948.63210740084     
 End Solvation calculations
RMM:  44    -0.243535217496E+03   -0.12195E-03   -0.19416E-05  3374   0.486E-03    0.458E-02
 Begin Solvation calculations
  rms_SCF =   6.190813553714952E-002 tol =   6.190813553714952E-003
 Begin minimization
 Creating dielectric and ionic cavities
  area:      163.386672415362     
  volume:    772.663577648391     
  Acav:     8.577800301806526E-002
  Solving linear dielectric/ionic screening model
        iter                  A_solv                     rms
   LPB:       -0.265207921380157E+00   0.396139156550232E-01
   LPB:    0  -0.265207585793108E+00   0.379764099894532E-01  -0.137256E-03   0.000000E+00   0.356264E+02  -0.488994E-02
   LPB:    1  -0.265195859455380E+00   0.769325661866618E-02   0.128856E-01   0.000000E+00   0.942170E+02  -0.301857E-18
   LPB:    2  -0.265194778407659E+00   0.370196491595237E-02   0.128429E-01   0.924963E-01   0.238316E+03  -0.466696E-16
   LPB:    3  -0.265194345400267E+00   0.197777863406030E-02   0.231158E-01   0.222538E+00   0.135050E+03  -0.493149E-16
   LPB:    4  -0.265194075711849E+00   0.161384392488786E-02   0.317822E-01   0.452992E+00   0.228129E+03  -0.464062E-16
  Finished solving LPB equations
  A_corr:   -0.179416072693784     
 End minimization
 Ecorr=   2948.32982688791     
 A_corr= -0.179416072693784     
 Ecorr_band=  -2948.50924296060     
 End Solvation calculations
RMM:  45    -0.243535259909E+03   -0.42413E-04   -0.61245E-06  2602   0.270E-03    0.501E-02
 Begin Solvation calculations
  rms_SCF =   6.190813553714952E-002 tol =   6.190813553714952E-003
 Begin minimization
 Creating dielectric and ionic cavities
  area:      163.387499522329     
  volume:    772.651543749155     
  Acav:     8.577843724922256E-002
  Solving linear dielectric/ionic screening model
        iter                  A_solv                     rms
   LPB:       -0.265418114895264E+00   0.489826181591674E-01
   LPB:    0  -0.265413865818886E+00   0.284439845140189E-01  -0.488397E-03   0.000000E+00   0.356270E+02  -0.174001E-01
   LPB:    1  -0.265392877397612E+00   0.961790921843668E-02   0.130385E-01   0.000000E+00   0.189499E+03  -0.635469E-18
   LPB:    2  -0.265391769806540E+00   0.495925421029643E-02   0.163345E-01   0.421232E-01   0.729872E+02  -0.156218E-16
   LPB:    3  -0.265391339436348E+00   0.189341119119707E-02   0.181090E-01   0.350488E+00   0.235003E+03  -0.169423E-16
   LPB:    4  -0.265391035829118E+00   0.133384220956739E-02   0.298389E-01   0.428135E+00   0.180020E+03  -0.169858E-16
  Finished solving LPB equations
  A_corr:   -0.179612598579895     
 End minimization
 Ecorr=   2948.13241746913     
 A_corr= -0.179612598579895     
 Ecorr_band=  -2948.31203006771     
 End Solvation calculations
RMM:  46    -0.243535309204E+03   -0.49295E-04   -0.11349E-05  2866   0.282E-03    0.332E-02
 Begin Solvation calculations
  rms_SCF =   4.825926672604618E-002 tol =   4.825926672604618E-003
 Begin minimization
 Creating dielectric and ionic cavities
  area:      163.387803653571     
  volume:    772.648354519253     
  Acav:     8.577859691812503E-002
  Solving linear dielectric/ionic screening model
        iter                  A_solv                     rms
   LPB:       -0.265464322742578E+00   0.212432422640880E-01
   LPB:    0  -0.265463607394111E+00   0.130405235411449E-01  -0.200393E-03   0.000000E+00   0.356271E+02  -0.713944E-02
   LPB:    1  -0.265459965177585E+00   0.325363759525098E-02   0.134626E-01   0.000000E+00   0.153218E+03  -0.827456E-19
   LPB:    2  -0.265459738250976E+00   0.254605112333764E-02   0.206434E-01   0.406318E-01   0.787402E+02   0.195568E-16
   LPB:    3  -0.265459581073725E+00   0.203018347103542E-02   0.255404E-01   0.559832E+00   0.147088E+03   0.234615E-16
   LPB:    4  -0.265459390180337E+00   0.883651521967227E-03   0.302566E-01   0.102520E+01   0.748208E+02   0.296468E-16
  Finished solving LPB equations
  A_corr:   -0.179680793262212     
 End minimization
 Ecorr=   2947.99203289764     
 A_corr= -0.179680793262212     
 Ecorr_band=  -2948.17171369091     
 End Solvation calculations
RMM:  47    -0.243535323929E+03   -0.14725E-04   -0.35235E-06  1990   0.192E-03    0.261E-02
 Begin Solvation calculations
  rms_SCF =   3.740024443882718E-002 tol =   3.740024443882718E-003
 Begin minimization
 Creating dielectric and ionic cavities
  area:      163.392033698802     
  volume:    772.636016915496     
  Acav:     8.578081769187107E-002
  Solving linear dielectric/ionic screening model
        iter                  A_solv                     rms
   LPB:       -0.265696677319158E+00   0.481499127381016E-01
   LPB:    0  -0.265693111205720E+00   0.280982735423984E-01  -0.447423E-03   0.000000E+00   0.356277E+02  -0.159407E-01
   LPB:    1  -0.265679737132768E+00   0.888109679387207E-02   0.127068E-01   0.000000E+00   0.126095E+03  -0.693911E-18
   LPB:    2  -0.265679098610468E+00   0.294721162443090E-02   0.126405E-01   0.479939E-01   0.963058E+02  -0.146921E-15
   LPB:    3  -0.265678865777031E+00   0.118213011289170E-02   0.201220E-01   0.229066E+00   0.232334E+03  -0.156636E-15
   LPB:    4  -0.265678717763643E+00   0.831427220701192E-03   0.333512E-01   0.383544E+00   0.834918E+02  -0.155410E-15
  Finished solving LPB equations
  A_corr:   -0.179897900071772     
 End minimization
 Ecorr=   2947.80679141836     
 A_corr= -0.179897900071772     
 Ecorr_band=  -2947.98668931843     
 End Solvation calculations
RMM:  48    -0.243535346934E+03   -0.23004E-04   -0.59121E-06  2195   0.203E-03    0.144E-02
 Begin Solvation calculations
  rms_SCF =   1.946016797986733E-002 tol =   1.946016797986733E-003
 Begin minimization
 Creating dielectric and ionic cavities
  area:      163.393439053206     
  volume:    772.632750188181     
  Acav:     8.578155550293300E-002
  Solving linear dielectric/ionic screening model
        iter                  A_solv                     rms
   LPB:       -0.265740103435596E+00   0.129461035047759E-01
   LPB:    0  -0.265739856341554E+00   0.769530633874423E-02  -0.117774E-03   0.000000E+00   0.356279E+02  -0.419605E-02
   LPB:    1  -0.265738902602406E+00   0.185609651679714E-02   0.132146E-01   0.000000E+00   0.113494E+03   0.988229E-19
   LPB:    2  -0.265738841236382E+00   0.158944197305124E-02   0.178217E-01   0.477093E-01   0.101969E+03   0.139909E-16
   LPB:    3  -0.265738743412556E+00   0.132072642837368E-02   0.408092E-01   0.696156E+00   0.793504E+02   0.146835E-16
   LPB:    4  -0.265738611643379E+00   0.119779311627882E-02   0.335441E-01   0.163875E+01   0.377112E+02   0.130024E-16
  Finished solving LPB equations
  A_corr:   -0.179957056140446     
 End minimization
 Ecorr=   2947.67243238059     
 A_corr= -0.179957056140446     
 Ecorr_band=  -2947.85238943673     
 End Solvation calculations
RMM:  49    -0.243535351007E+03   -0.40732E-05   -0.17052E-06  1513   0.146E-03
 Begin Solvation calculations
  rms_SCF =   1.946016797986733E-002 tol =   1.946016797986733E-003
 Begin minimization
 Creating dielectric and ionic cavities
  area:      163.396327180352     
  volume:    772.628157336823     
  Acav:     8.578307176968460E-002
  Solving linear dielectric/ionic screening model
        iter                  A_solv                     rms
   LPB:       -0.265867014374650E+00   0.265647717881990E-01
   LPB:    0  -0.265866036850291E+00   0.159894101437608E-01  -0.234252E-03   0.000000E+00   0.356281E+02  -0.834594E-02
   LPB:    1  -0.265863008481254E+00   0.255610997001783E-02   0.127841E-01   0.000000E+00   0.906338E+02   0.489259E-19
   LPB:    2  -0.265862883039620E+00   0.111110669079565E-02   0.135666E-01   0.390329E-01   0.223263E+03  -0.364703E-16
   LPB:    3  -0.265862847052000E+00   0.757319664643797E-03   0.222994E-01   0.174537E+00   0.138648E+03  -0.412965E-16
   LPB:    4  -0.265862819602960E+00   0.982032764456036E-03   0.312183E-01   0.544827E+00   0.753942E+02  -0.361812E-16
  Finished solving LPB equations
  A_corr:   -0.180079747833275     
 End minimization
 Ecorr=   2947.59205394963     
 A_corr= -0.180079747833275     
 Ecorr_band=  -2947.77213369747     
 End Solvation calculations
   1 F= -.24353535E+03 E0= -.24352630E+03  d E =-.243535E+03
quench:  g(F)=  0.000E+00 g(S)=  0.000E+00 dE (1.order)= 0.000E+00
 bond charge predicted
       N       E                     dE             d eps       ncg     rms          rms(c)
 Begin Solvation calculations
  rms_SCF =   1.946016797986733E-002 tol =   1.946016797986733E-003
 Begin minimization
 Creating dielectric and ionic cavities
  area:      163.439387818217     
  volume:    772.657146285720     
  Acav:     8.580567860456374E-002
  Solving linear dielectric/ionic screening model
        iter                  A_solv                     rms
   LPB:       -0.269526995447656E+00   0.583271971739856E-02
   LPB:    0  -0.269526995391199E+00   0.584009238091634E-02   0.178027E-05   0.000000E+00   0.356267E+02   0.634251E-04
   LPB:    1  -0.266102791471258E+00   0.206771557654172E-02   0.153323E-01   0.000000E+00   0.841359E+06  -0.121253E-20
   LPB:    2  -0.265827487739119E+00   0.260034069733348E-02   0.264514E-01   0.466028E-01   0.178978E+06   0.547191E-17
   LPB:    3  -0.265747010837095E+00   0.590860481273711E-02   0.318004E-01   0.243150E+00   0.264013E+05   0.806625E-17
   LPB:    4  -0.265714620838535E+00   0.153484842105513E-01   0.336300E-01   0.380579E+00   0.214359E+04   0.955503E-17
   LPB:    5  -0.265701807574129E+00   0.233642073554850E-01   0.248652E-01   0.535035E+00   0.251630E+03   0.155826E-16
   LPB:    6  -0.265693314588354E+00   0.830032737950306E-02   0.197355E-01   0.835114E+00   0.262161E+03   0.169067E-16
   LPB:    7  -0.265686993692618E+00   0.406404509849756E-02   0.329290E-01   0.446053E+00   0.144071E+04   0.308816E-16
   LPB:    8  -0.265683287922278E+00   0.719060351823232E-02   0.359352E-01   0.537228E+00   0.428493E+03   0.443882E-16
   LPB:    9  -0.265681250856935E+00   0.557124289965396E-02   0.245514E-01   0.804583E+00   0.204674E+03   0.242475E-16
   LPB:   10  -0.265679696163807E+00   0.205078177628937E-02   0.295910E-01   0.633223E+00   0.358876E+03   0.127047E-16
   LPB:   11  -0.265678542365846E+00   0.716965283125673E-03   0.377910E-01   0.581106E+00   0.326820E+04  -0.349058E-16
  Finished solving LPB equations
  A_corr:   -0.179872863761283     
 End minimization
 Ecorr=   2947.53301974972     
 A_corr= -0.179872863761283     
 Ecorr_band=  -2947.71289261348     
 End Solvation calculations
DAV:   1    -0.243536290451E+03   -0.94352E-03   -0.21759E-01  5514   0.712E-01    0.176E-01
 Begin Solvation calculations
  rms_SCF =   1.946016797986733E-002 tol =   1.946016797986733E-003
 Begin minimization
 Creating dielectric and ionic cavities
  area:      163.387831631097     
  volume:    772.560879205544     
  Acav:     8.577861160632599E-002
  Solving linear dielectric/ionic screening model
        iter                  A_solv                     rms
   LPB:       -0.267588463661941E+00   0.288619195301282E+00
   LPB:    0  -0.267499391983978E+00   0.225647225004563E+00  -0.223599E-02   0.000000E+00   0.356312E+02  -0.796710E-01
   LPB:    1  -0.267056847157450E+00   0.733988962298774E-01   0.121428E-01   0.000000E+00   0.106484E+03   0.662643E-17
   LPB:    2  -0.266994288142136E+00   0.136681808894485E-01   0.132211E-01   0.129832E+00   0.224575E+03  -0.190718E-15
   LPB:    3  -0.266975494032114E+00   0.104932733385909E-01   0.239034E-01   0.166166E+00   0.629298E+03  -0.195837E-15
   LPB:    4  -0.266969570489089E+00   0.949447358492180E-02   0.227349E-01   0.331379E+00   0.174010E+03  -0.196520E-15
   LPB:    5  -0.266966324642013E+00   0.481331823501317E-02   0.238676E-01   0.521954E+00   0.291985E+03  -0.197678E-15
   LPB:    6  -0.266964439623726E+00   0.200582189544683E-02   0.320966E-01   0.431853E+00   0.268782E+03  -0.155303E-15
   LPB:    7  -0.266963395075645E+00   0.119251343846399E-02   0.338520E-01   0.525398E+00   0.107488E+04  -0.145921E-15
  Finished solving LPB equations
  A_corr:   -0.181184783469319     
 End minimization
 Ecorr=   2947.25748191466     
 A_corr= -0.181184783469319     
 Ecorr_band=  -2947.43866669813     
 End Solvation calculations
RMM:   2    -0.243537553965E+03   -0.12635E-02   -0.14178E-02  5226   0.154E-01    0.232E-01
 Begin Solvation calculations
  rms_SCF =   1.946016797986733E-002 tol =   1.946016797986733E-003
 Begin minimization
 Creating dielectric and ionic cavities
  area:      163.381850624770     
  volume:    772.571921778833     
  Acav:     8.577547157800426E-002
  Solving linear dielectric/ionic screening model
        iter                  A_solv                     rms
   LPB:       -0.267475053448403E+00   0.287309813495694E+00
   LPB:    0  -0.267474704265767E+00   0.287001706483807E+00  -0.140000E-03   0.000000E+00   0.356307E+02  -0.498831E-02
   LPB:    1  -0.267215163162455E+00   0.292524160704305E-01   0.890613E-02   0.000000E+00   0.793743E+02   0.459493E-19
   LPB:    2  -0.267190482265230E+00   0.484082493207936E-02   0.167188E-01   0.506570E-01   0.135030E+03   0.184682E-16
   LPB:    3  -0.267187507781370E+00   0.248763346977621E-02   0.229737E-01   0.877051E-01   0.257835E+03   0.412843E-17
   LPB:    4  -0.267186444189449E+00   0.178396472652151E-02   0.287843E-01   0.285390E+00   0.364584E+03  -0.163707E-16
  Finished solving LPB equations
  A_corr:   -0.181410972611445     
 End minimization
 Ecorr=   2947.13321749427     
 A_corr= -0.181410972611445     
 Ecorr_band=  -2947.31462846688     
 End Solvation calculations
RMM:   3    -0.243538131927E+03   -0.57796E-03   -0.81729E-04  5101   0.429E-02    0.384E-01
 Begin Solvation calculations
  rms_SCF =   1.946016797986733E-002 tol =   1.946016797986733E-003
 Begin minimization
 Creating dielectric and ionic cavities
  area:      163.396230081970     
  volume:    772.587819596341     
  Acav:     8.578302079303435E-002
  Solving linear dielectric/ionic screening model
        iter                  A_solv                     rms
   LPB:       -0.267527128202062E+00   0.369911236667295E+00
   LPB:    0  -0.267526924877326E+00   0.369827044610999E+00   0.106832E-03   0.000000E+00   0.356300E+02   0.380643E-02
   LPB:    1  -0.267096032217405E+00   0.344516892124001E-01   0.887303E-02   0.000000E+00   0.800178E+02   0.828610E-19
   LPB:    2  -0.267061727126110E+00   0.544216650864398E-02   0.156587E-01   0.451134E-01   0.156907E+03   0.234575E-16
   LPB:    3  -0.267057885920620E+00   0.211401964922687E-02   0.216133E-01   0.811228E-01   0.313402E+03   0.248835E-16
   LPB:    4  -0.267056937772171E+00   0.103967782928248E-02   0.268882E-01   0.198412E+00   0.506627E+03   0.129140E-16
  Finished solving LPB equations
  A_corr:   -0.181273916979137     
 End minimization
 Ecorr=   2947.09006912170     
 A_corr= -0.181273916979137     
 Ecorr_band=  -2947.27134303868     
 End Solvation calculations
RMM:   4    -0.243537562031E+03    0.56990E-03   -0.49860E-04  5046   0.343E-02    0.287E-01
 Begin Solvation calculations
  rms_SCF =   1.946016797986733E-002 tol =   1.946016797986733E-003
 Begin minimization
 Creating dielectric and ionic cavities
  area:      163.395371841863     
  volume:    772.584373703897     
  Acav:     8.578257021697805E-002
  Solving linear dielectric/ionic screening model
        iter                  A_solv                     rms
   LPB:       -0.267712275255687E+00   0.120300039784630E+00
   LPB:    0  -0.267703993683912E+00   0.106025159103770E+00  -0.681809E-03   0.000000E+00   0.356301E+02  -0.242929E-01
   LPB:    1  -0.267652719536444E+00   0.204604648243262E-01   0.104935E-01   0.000000E+00   0.778799E+02   0.565973E-19
   LPB:    2  -0.267642209395711E+00   0.378060949448744E-02   0.159429E-01   0.134916E+00   0.176740E+03   0.300600E-15
   LPB:    3  -0.267640672986445E+00   0.397774653455259E-02   0.243079E-01   0.958779E-01   0.377000E+03   0.409301E-15
   LPB:    4  -0.267640111089769E+00   0.255546523531724E-02   0.230858E-01   0.385081E+00   0.117068E+03   0.431371E-15
   LPB:    5  -0.267639705043040E+00   0.157260286596065E-02   0.297312E-01   0.561115E+00   0.410567E+03   0.472072E-15
  Finished solving LPB equations
  A_corr:   -0.181857134826062     
 End minimization
 Ecorr=   2946.93545837382     
 A_corr= -0.181857134826062     
 Ecorr_band=  -2947.11731550865     
 End Solvation calculations
RMM:   5    -0.243537084470E+03    0.47756E-03   -0.42773E-04  5004   0.322E-02    0.159E-01
 Begin Solvation calculations
  rms_SCF =   1.946016797986733E-002 tol =   1.946016797986733E-003
 Begin minimization
 Creating dielectric and ionic cavities
  area:      163.393117107816     
  volume:    772.577200498326     
  Acav:     8.578138648160355E-002
  Solving linear dielectric/ionic screening model
        iter                  A_solv                     rms
   LPB:       -0.268599797858441E+00   0.130368495608122E+00
   LPB:    0  -0.268577769826635E+00   0.912016605408310E-01  -0.111197E-02   0.000000E+00   0.356305E+02  -0.396199E-01
   LPB:    1  -0.268468050022449E+00   0.386645994992535E-01   0.134107E-01   0.000000E+00   0.120392E+03   0.323443E-17
   LPB:    2  -0.268454907468207E+00   0.843425720742297E-02   0.129201E-01   0.124331E+00   0.146386E+03   0.350012E-15
   LPB:    3  -0.268450510740049E+00   0.512227275951700E-02   0.222361E-01   0.194383E+00   0.444105E+03   0.382460E-15
   LPB:    4  -0.268448813697060E+00   0.509896119471411E-02   0.250638E-01   0.342433E+00   0.144952E+03   0.393536E-15
   LPB:    5  -0.268447795916441E+00   0.338336610619450E-02   0.246639E-01   0.609461E+00   0.307190E+03   0.349097E-15
   LPB:    6  -0.268447073256763E+00   0.141281000440815E-02   0.331559E-01   0.528179E+00   0.145569E+03   0.331772E-15
  Finished solving LPB equations
  A_corr:   -0.182665686775159     
 End minimization
 Ecorr=   2946.58645377929     
 A_corr= -0.182665686775159     
 Ecorr_band=  -2946.76911946607     
 End Solvation calculations
RMM:   6    -0.243537180847E+03   -0.96378E-04   -0.33356E-04  5064   0.299E-02    0.202E-01
 Begin Solvation calculations
  rms_SCF =   1.946016797986733E-002 tol =   1.946016797986733E-003
 Begin minimization
 Creating dielectric and ionic cavities
  area:      163.391887765316     
  volume:    772.586205173427     
  Acav:     8.578074107679065E-002
  Solving linear dielectric/ionic screening model
        iter                  A_solv                     rms
   LPB:       -0.269317763403042E+00   0.102229406484624E+00
   LPB:    0  -0.269303362146503E+00   0.665859735566413E-01  -0.899098E-03   0.000000E+00   0.356301E+02  -0.320349E-01
   LPB:    1  -0.269208564760230E+00   0.299899965460454E-01   0.149468E-01   0.000000E+00   0.144859E+03  -0.185020E-17
   LPB:    2  -0.269199876195540E+00   0.105675338167222E-01   0.140147E-01   0.977499E-01   0.117123E+03   0.448835E-15
   LPB:    3  -0.269196752252765E+00   0.391813166319293E-02   0.189336E-01   0.266136E+00   0.347036E+03   0.488008E-15
   LPB:    4  -0.269195372720025E+00   0.432032995133188E-02   0.271000E-01   0.308528E+00   0.168156E+03   0.521440E-15
   LPB:    5  -0.269194512365444E+00   0.387980741332959E-02   0.255721E-01   0.660917E+00   0.302020E+03   0.476821E-15
   LPB:    6  -0.269193809222176E+00   0.175879384753300E-02   0.317562E-01   0.658119E+00   0.106078E+03   0.409006E-15
  Finished solving LPB equations
  A_corr:   -0.183413068145385     
 End minimization
 Ecorr=   2946.16306238236     
 A_corr= -0.183413068145385     
 Ecorr_band=  -2946.34647545051     
 End Solvation calculations
RMM:   7    -0.243536871692E+03    0.30916E-03   -0.20416E-04  4822   0.237E-02    0.683E-02
 Begin Solvation calculations
  rms_SCF =   1.946016797986733E-002 tol =   1.946016797986733E-003
 Begin minimization
 Creating dielectric and ionic cavities
  area:      163.398332668227     
  volume:    772.594190880182     
  Acav:     8.578412465081928E-002
  Solving linear dielectric/ionic screening model
        iter                  A_solv                     rms
   LPB:       -0.269570060726560E+00   0.490377833731197E-01
   LPB:    0  -0.269566404313280E+00   0.300060752459077E-01  -0.453040E-03   0.000000E+00   0.356297E+02  -0.161417E-01
   LPB:    1  -0.269549603925568E+00   0.129907436790450E-01   0.147506E-01   0.000000E+00   0.122241E+03   0.498549E-18
   LPB:    2  -0.269547975542730E+00   0.431712391533511E-02   0.140997E-01   0.101399E+00   0.111913E+03   0.123617E-15
   LPB:    3  -0.269547429372415E+00   0.201136455185839E-02   0.191939E-01   0.246388E+00   0.309486E+03   0.133245E-15
   LPB:    4  -0.269547077944400E+00   0.259891308517853E-02   0.315575E-01   0.391352E+00   0.113444E+03   0.132982E-15
   LPB:    5  -0.269546725443747E+00   0.251962091424240E-02   0.310735E-01   0.101868E+01   0.245740E+03   0.148120E-15
   LPB:    6  -0.269546386235889E+00   0.122605168588847E-02   0.333381E-01   0.896923E+00   0.823754E+02   0.149719E-15
  Finished solving LPB equations
  A_corr:   -0.183762261585070     
 End minimization
 Ecorr=   2945.92048543496     
 A_corr= -0.183762261585070     
 Ecorr_band=  -2946.10424769654     
 End Solvation calculations
RMM:   8    -0.243536885915E+03   -0.14223E-04   -0.93618E-05  4567   0.154E-02    0.808E-02
 Begin Solvation calculations
  rms_SCF =   1.946016797986733E-002 tol =   1.946016797986733E-003
 Begin minimization
 Creating dielectric and ionic cavities
  area:      163.412359629503     
  volume:    772.612644685313     
  Acav:     8.579148880548920E-002
  Solving linear dielectric/ionic screening model
        iter                  A_solv                     rms
   LPB:       -0.270104699827808E+00   0.655486165103498E-01
   LPB:    0  -0.270098794446388E+00   0.412369573235793E-01  -0.575756E-03   0.000000E+00   0.356288E+02  -0.205135E-01
   LPB:    1  -0.270067746484662E+00   0.173609548050782E-01   0.146440E-01   0.000000E+00   0.119363E+03  -0.181612E-17
   LPB:    2  -0.270065011444303E+00   0.536061915218649E-02   0.137032E-01   0.941384E-01   0.107671E+03   0.769537E-15
   LPB:    3  -0.270064225714791E+00   0.231755160062854E-02   0.178501E-01   0.220542E+00   0.314413E+03   0.839654E-15
   LPB:    4  -0.270063904239471E+00   0.209765514165964E-02   0.249375E-01   0.292861E+00   0.121710E+03   0.856777E-15
   LPB:    5  -0.270063695942391E+00   0.188281159348408E-02   0.265204E-01   0.609268E+00   0.297878E+03   0.866400E-15
  Finished solving LPB equations
  A_corr:   -0.184272207136902     
 End minimization
 Ecorr=   2945.67335676577     
 A_corr= -0.184272207136902     
 Ecorr_band=  -2945.85762897290     
 End Solvation calculations
RMM:   9    -0.243536847199E+03    0.38715E-04   -0.35079E-05  3887   0.960E-03    0.395E-02
 Begin Solvation calculations
  rms_SCF =   1.946016797986733E-002 tol =   1.946016797986733E-003
 Begin minimization
 Creating dielectric and ionic cavities
  area:      163.418692582995     
  volume:    772.620453147728     
  Acav:     8.579481360607240E-002
  Solving linear dielectric/ionic screening model
        iter                  A_solv                     rms
   LPB:       -0.270213017070797E+00   0.191073966467392E-01
   LPB:    0  -0.270212683953936E+00   0.132893079871872E-01  -0.136746E-03   0.000000E+00   0.356285E+02  -0.487205E-02
   LPB:    1  -0.270210167736680E+00   0.565134878670927E-02   0.141259E-01   0.000000E+00   0.970649E+02   0.303302E-18
   LPB:    2  -0.270209894681439E+00   0.152715673977696E-02   0.134426E-01   0.114034E+00   0.105574E+03   0.154690E-16
   LPB:    3  -0.270209764598624E+00   0.151144770744843E-02   0.276637E-01   0.231495E+00   0.233958E+03   0.147009E-16
   LPB:    4  -0.270209594388905E+00   0.210426917691952E-02   0.381523E-01   0.948754E+00   0.516955E+02   0.145520E-16
   LPB:    5  -0.270209424192415E+00   0.115547835705626E-02   0.288781E-01   0.132105E+01   0.160028E+03   0.197989E-16
  Finished solving LPB equations
  A_corr:   -0.184414610586342     
 End minimization
 Ecorr=   2945.49427662327     
 A_corr= -0.184414610586342     
 Ecorr_band=  -2945.67869123385     
 End Solvation calculations
RMM:  10    -0.243536842810E+03    0.43898E-05   -0.90359E-06  2892   0.547E-03
 Begin Solvation calculations
  rms_SCF =   1.946016797986733E-002 tol =   1.946016797986733E-003
 Begin minimization
 Creating dielectric and ionic cavities
  area:      163.428666345771     
  volume:    772.627647350580     
[...]
 End minimization
 Ecorr=   2946.82095916189     
 A_corr= -0.182423636840475     
 Ecorr_band=  -2947.00338279873     
 End Solvation calculations
RMM:   4    -0.243535162990E+03    0.37901E-04   -0.16266E-05  3123   0.717E-03    0.232E-02
 Begin Solvation calculations
  rms_SCF =   4.414914500030879E-003 tol =   4.414914500030879E-004
 Begin minimization
 Creating dielectric and ionic cavities
  area:      163.425461152545     
  volume:    772.747900964892     
  Acav:     8.579836710508587E-002
  Solving linear dielectric/ionic screening model
        iter                  A_solv                     rms
   LPB:       -0.268201958483560E+00   0.105042985579378E-01
   LPB:    0  -0.268201958466674E+00   0.105006280345844E-01   0.973684E-06   0.000000E+00   0.356225E+02   0.346850E-04
   LPB:    1  -0.268201549631639E+00   0.154221718494101E-02   0.991162E-02   0.000000E+00   0.751456E+02  -0.290421E-21
   LPB:    2  -0.268201469768925E+00   0.285274608675685E-03   0.172647E-01   0.112145E+00   0.168598E+03  -0.284236E-17
   LPB:    3  -0.268201456671988E+00   0.177469924193323E-03   0.246059E-01   0.115066E+00   0.399553E+03  -0.183734E-17
   LPB:    4  -0.268201451353418E+00   0.174708101028818E-03   0.291343E-01   0.342973E+00   0.461363E+03  -0.961318E-18
  Finished solving LPB equations
  A_corr:   -0.182403084248332     
 End minimization
 Ecorr=   2946.83918062285     
 A_corr= -0.182403084248332     
 Ecorr_band=  -2947.02158370710     
 End Solvation calculations
RMM:   5    -0.243535165149E+03   -0.21586E-05   -0.86755E-06  2830   0.534E-03
 Begin Solvation calculations
  rms_SCF =   4.414914500030879E-003 tol =   4.414914500030879E-004
 Begin minimization
 Creating dielectric and ionic cavities
  area:      163.425860339162     
  volume:    772.744778481175     
  Acav:     8.579857667806001E-002
  Solving linear dielectric/ionic screening model
        iter                  A_solv                     rms
   LPB:       -0.268196147383745E+00   0.219322265984764E-02
   LPB:    0  -0.268196146663223E+00   0.230204128754394E-02  -0.636027E-05   0.000000E+00   0.356226E+02  -0.226570E-03
   LPB:    1  -0.268195970182795E+00   0.533019163543326E-03   0.182120E-01   0.000000E+00   0.180520E+03   0.963138E-20
   LPB:    2  -0.268195950515884E+00   0.635752420554243E-03   0.202377E-01   0.100285E+00   0.286999E+03  -0.623632E-18
   LPB:    3  -0.268195941928990E+00   0.449562690239226E-03   0.191141E-01   0.462283E+00   0.166485E+03  -0.546274E-18
   LPB:    4  -0.268195935878194E+00   0.271869328308166E-03   0.263976E-01   0.510230E+00   0.297243E+03  -0.247610E-17
  Finished solving LPB equations
  A_corr:   -0.182397359200134     
 End minimization
 Ecorr=   2946.86605421465     
 A_corr= -0.182397359200134     
 Ecorr_band=  -2947.04845157385     
 End Solvation calculations
  32 F= -.24353517E+03 E0= -.24352574E+03  d E =0.775076E-05
quench:  g(F)=  0.000E+00 g(S)=  0.000E+00 dE (1.order)= 0.000E+00
 bond charge predicted
       N       E                     dE             d eps       ncg     rms          rms(c)
 Begin Solvation calculations
  rms_SCF =   4.414914500030879E-003 tol =   4.414914500030879E-004
 Begin minimization
 Creating dielectric and ionic cavities
  area:      163.422926960612     
  volume:    772.745604074654     
  Acav:     8.579703665432108E-002
  Solving linear dielectric/ionic screening model
        iter                  A_solv                     rms
   LPB:       -0.268262366931683E+00   0.695292680271842E-03
   LPB:    0  -0.268262366931503E+00   0.694734936827317E-03   0.100575E-06   0.000000E+00   0.356226E+02   0.358276E-05
   LPB:    1  -0.268217290838068E+00   0.358131840695327E-03   0.157295E-01   0.000000E+00   0.748482E+06   0.109676E-21
   LPB:    2  -0.268212668001855E+00   0.584782821199869E-03   0.280917E-01   0.574248E-01   0.870849E+05   0.218121E-18
   LPB:    3  -0.268211158867701E+00   0.135505023026423E-02   0.326267E-01   0.281076E+00   0.989581E+04   0.116899E-17
   LPB:    4  -0.268210568538311E+00   0.320656371210061E-02   0.316338E-01   0.403449E+00   0.837632E+03   0.346686E-17
   LPB:    5  -0.268210335001582E+00   0.281070276142995E-02   0.198395E-01   0.630786E+00   0.185645E+03  -0.214883E-17
   LPB:    6  -0.268210139814173E+00   0.884328588139460E-03   0.245794E-01   0.674615E+00   0.477335E+03  -0.446600E-17
   LPB:    7  -0.268210015025027E+00   0.102455618390200E-02   0.344566E-01   0.456061E+00   0.827679E+03  -0.890661E-17
   LPB:    8  -0.268209947619578E+00   0.118549581508940E-02   0.280768E-01   0.662893E+00   0.203742E+03  -0.110665E-16
   LPB:    9  -0.268209898618122E+00   0.496372078485351E-03   0.260093E-01   0.784752E+00   0.282934E+03  -0.164422E-16
   LPB:   10  -0.268209861900276E+00   0.154278103777609E-03   0.363977E-01   0.535455E+00   0.109289E+04  -0.167648E-16
  Finished solving LPB equations
  A_corr:   -0.182412825245955     
 End minimization
 Ecorr=   2946.87373419104     
 A_corr= -0.182412825245955     
 Ecorr_band=  -2947.05614701628     
 End Solvation calculations
DAV:   1    -0.243535112212E+03    0.50778E-04   -0.92756E-03  5352   0.283E-01    0.308E-02
 Begin Solvation calculations
  rms_SCF =   4.414914500030879E-003 tol =   4.414914500030879E-004
 Begin minimization
 Creating dielectric and ionic cavities
  area:      163.422388797623     
  volume:    772.765136137021     
  Acav:     8.579675411875221E-002
  Solving linear dielectric/ionic screening model
        iter                  A_solv                     rms
   LPB:       -0.268099269368461E+00   0.552889394889462E-01
   LPB:    0  -0.268096338355705E+00   0.454901999914376E-01   0.405664E-03   0.000000E+00   0.356217E+02   0.144504E-01
   LPB:    1  -0.268086353326463E+00   0.722618495271746E-02   0.101441E-01   0.000000E+00   0.876598E+02  -0.104761E-18
   LPB:    2  -0.268085136835801E+00   0.174480159122332E-02   0.141762E-01   0.871786E-01   0.292348E+03  -0.325777E-17
   LPB:    3  -0.268084870804521E+00   0.169405241427092E-02   0.235628E-01   0.131570E+00   0.411156E+03  -0.215504E-17
   LPB:    4  -0.268084783444115E+00   0.943946230057060E-03   0.203732E-01   0.379795E+00   0.149687E+03   0.209535E-17
   LPB:    5  -0.268084732162253E+00   0.421467604506964E-03   0.276188E-01   0.433017E+00   0.450804E+03   0.667413E-17
  Finished solving LPB equations
  A_corr:   -0.182287978043500     
 End minimization
 Ecorr=   2946.84922805883     
 A_corr= -0.182287978043500     
 Ecorr_band=  -2947.03151603687     
 End Solvation calculations
RMM:   2    -0.243535222405E+03   -0.11019E-03   -0.78948E-04  5215   0.562E-02    0.735E-02
 Begin Solvation calculations
  rms_SCF =   4.414914500030879E-003 tol =   4.414914500030879E-004
 Begin minimization
 Creating dielectric and ionic cavities
  area:      163.425356566167     
  volume:    772.758694068934     
  Acav:     8.579831219723742E-002
  Solving linear dielectric/ionic screening model
        iter                  A_solv                     rms
   LPB:       -0.268047695638682E+00   0.493148536767006E-01
   LPB:    0  -0.268047640841380E+00   0.492298785447847E-01  -0.554671E-04   0.000000E+00   0.356220E+02  -0.197585E-02
   LPB:    1  -0.268039935812999E+00   0.494233054571378E-02   0.899073E-02   0.000000E+00   0.786603E+02   0.377378E-19
   LPB:    2  -0.268039174615839E+00   0.102557904740365E-02   0.164820E-01   0.538900E-01   0.150427E+03  -0.359171E-17
   LPB:    3  -0.268039065923083E+00   0.602495142762295E-03   0.232138E-01   0.101384E+00   0.218946E+03  -0.497985E-17
   LPB:    4  -0.268039030644576E+00   0.541650472413736E-03   0.266757E-01   0.282449E+00   0.334015E+03  -0.801294E-17
   LPB:    5  -0.268039014623731E+00   0.420078990581316E-03   0.260107E-01   0.465734E+00   0.176656E+03  -0.103680E-16
  Finished solving LPB equations
  A_corr:   -0.182240702426494     
 End minimization
 Ecorr=   2946.90191000566     
 A_corr= -0.182240702426494     
 Ecorr_band=  -2947.08415070809     
 End Solvation calculations
RMM:   3    -0.243535177744E+03    0.44661E-04   -0.40996E-05  3990   0.120E-02    0.566E-02
 Begin Solvation calculations
  rms_SCF =   4.414914500030879E-003 tol =   4.414914500030879E-004
 Begin minimization
 Creating dielectric and ionic cavities
  area:      163.423673328524     
  volume:    772.753087786601     
  Acav:     8.579742849747515E-002
  Solving linear dielectric/ionic screening model
        iter                  A_solv                     rms
   LPB:       -0.268092617326835E+00   0.526932196613253E-01
   LPB:    0  -0.268092511222635E+00   0.523439090704420E-01  -0.771828E-04   0.000000E+00   0.356222E+02  -0.274942E-02
   LPB:    1  -0.268083934410824E+00   0.495276889919174E-02   0.882214E-02   0.000000E+00   0.802239E+02  -0.149354E-18
   LPB:    2  -0.268083253728479E+00   0.719406159457140E-03   0.160980E-01   0.434930E-01   0.142243E+03   0.694175E-17
   LPB:    3  -0.268083171622647E+00   0.301119855674372E-03   0.223083E-01   0.870435E-01   0.342141E+03   0.236416E-17
   LPB:    4  -0.268083149041594E+00   0.364310975110519E-03   0.262692E-01   0.233555E+00   0.493576E+03   0.131786E-17
  Finished solving LPB equations
  A_corr:   -0.182285720544119     
 End minimization
 Ecorr=   2946.91107996577     
 A_corr= -0.182285720544119     
 Ecorr_band=  -2947.09336568632     
 End Solvation calculations
RMM:   4    -0.243535177088E+03    0.65583E-06   -0.12184E-05  2992   0.650E-03
 Begin Solvation calculations
  rms_SCF =   4.414914500030879E-003 tol =   4.414914500030879E-004
 Begin minimization
 Creating dielectric and ionic cavities
  area:      163.424078296671     
  volume:    772.750298590055     
  Acav:     8.579764110575247E-002
  Solving linear dielectric/ionic screening model
        iter                  A_solv                     rms
   LPB:       -0.268053109770263E+00   0.366890465995584E-01
   LPB:    0  -0.268053087192243E+00   0.365234255267211E-01   0.356038E-04   0.000000E+00   0.356224E+02   0.126829E-02
   LPB:    1  -0.268048772802042E+00   0.409801033673895E-02   0.916835E-02   0.000000E+00   0.766365E+02  -0.782376E-19
   LPB:    2  -0.268048242157394E+00   0.613861262320192E-03   0.168545E-01   0.669053E-01   0.141342E+03   0.901129E-17
   LPB:    3  -0.268048180479302E+00   0.271892502476245E-03   0.226517E-01   0.864852E-01   0.405398E+03   0.133648E-16
   LPB:    4  -0.268048161695304E+00   0.132094930112696E-03   0.273861E-01   0.251899E+00   0.512831E+03   0.128979E-16
  Finished solving LPB equations
  A_corr:   -0.182250520589552     
 End minimization
 Ecorr=   2946.93919994240     
 A_corr= -0.182250520589552     
 Ecorr_band=  -2947.12145046299     
 End Solvation calculations
  33 F= -.24353518E+03 E0= -.24352572E+03  d E =-.119395E-04
quench:  g(F)=  0.000E+00 g(S)=  0.000E+00 dE (1.order)= 0.000E+00
 bond charge predicted
       N       E                     dE             d eps       ncg     rms          rms(c)
 Begin Solvation calculations
  rms_SCF =   4.414914500030879E-003 tol =   4.414914500030879E-004
 Begin minimization
 Creating dielectric and ionic cavities
  area:      163.426590916561     
  volume:    772.756794841251     
  Acav:     8.579896023119445E-002
  Solving linear dielectric/ionic screening model
        iter                  A_solv                     rms
   LPB:       -0.268110666768608E+00   0.828085286410565E-03
   LPB:    0  -0.268110666761605E+00   0.837391071615522E-03   0.627057E-06   0.000000E+00   0.356221E+02   0.223371E-04
   LPB:    1  -0.268043396055745E+00   0.263576661690490E-03   0.154158E-01   0.000000E+00   0.726412E+06  -0.511339E-21
   LPB:    2  -0.268037536453719E+00   0.259819340504655E-03   0.269777E-01   0.497741E-01   0.210330E+06   0.502132E-17
   LPB:    3  -0.268035690896806E+00   0.532582044313601E-03   0.326702E-01   0.260083E+00   0.541850E+05   0.285555E-17
   LPB:    4  -0.268034914212495E+00   0.119386957756692E-02   0.347177E-01   0.396020E+00   0.438749E+04   0.326437E-17
   LPB:    5  -0.268034560277516E+00   0.259306636398532E-02   0.325053E-01   0.486716E+00   0.600537E+03   0.535079E-17
   LPB:    6  -0.268034393541339E+00   0.221219266266935E-02   0.211623E-01   0.723598E+00   0.187042E+03  -0.237853E-17
   LPB:    7  -0.268034257254311E+00   0.115289379663386E-02   0.254113E-01   0.680710E+00   0.405511E+03  -0.199980E-16
   LPB:    8  -0.268034171128142E+00   0.144439230892132E-02   0.295361E-01   0.543693E+00   0.303744E+03  -0.328503E-16
   LPB:    9  -0.268034115091871E+00   0.682432478620382E-03   0.233615E-01   0.822596E+00   0.182291E+03  -0.392781E-16
   LPB:   10  -0.268034070926717E+00   0.221662141029709E-03   0.341791E-01   0.538704E+00   0.112152E+04  -0.547772E-16
  Finished solving LPB equations
  A_corr:   -0.182235110695523     
 End minimization
 Ecorr=   2946.95021471492     
 A_corr= -0.182235110695523     
 Ecorr_band=  -2947.13244982561     
 End Solvation calculations
DAV:   1    -0.243535111082E+03    0.66662E-04   -0.79045E-03  5412   0.237E-01    0.374E-02
 Begin Solvation calculations
  rms_SCF =   4.414914500030879E-003 tol =   4.414914500030879E-004
 Begin minimization
 Creating dielectric and ionic cavities
  area:      163.416092749629     
  volume:    772.753719716666     
  Acav:     8.579344869355503E-002
  Solving linear dielectric/ionic screening model
        iter                  A_solv                     rms
   LPB:       -0.268120222662273E+00   0.559902971905479E-01
   LPB:    0  -0.268120191618061E+00   0.558689895561117E-01  -0.417489E-04   0.000000E+00   0.356222E+02  -0.148719E-02
   LPB:    1  -0.268109584729586E+00   0.591255448382037E-02   0.912143E-02   0.000000E+00   0.815786E+02   0.445647E-19
   LPB:    2  -0.268108087922186E+00   0.128456159656914E-02   0.185801E-01   0.692777E-01   0.168320E+03   0.100140E-16
   LPB:    3  -0.268107830430265E+00   0.811787478703211E-03   0.256266E-01   0.124725E+00   0.415141E+03   0.213700E-16
   LPB:    4  -0.268107733869455E+00   0.445666687730253E-03   0.281102E-01   0.341874E+00   0.475827E+03   0.284359E-16
   LPB:    5  -0.268107687903741E+00   0.406129247457957E-03   0.323152E-01   0.414085E+00   0.540943E+03   0.412214E-16
  Finished solving LPB equations
  A_corr:   -0.182314239210186     
 End minimization
 Ecorr=   2946.92356822275     
 A_corr= -0.182314239210186     
 Ecorr_band=  -2947.10588246196     
 End Solvation calculations
RMM:   2    -0.243535313876E+03   -0.20279E-03   -0.75272E-04  5209   0.518E-02    0.138E-01
 Begin Solvation calculations
  rms_SCF =   4.414914500030879E-003 tol =   4.414914500030879E-004
 Begin minimization
 Creating dielectric and ionic cavities
  area:      163.420163333654     
  volume:    772.755348747162     
  Acav:     8.579558575016825E-002
  Solving linear dielectric/ionic screening model
        iter                  A_solv                     rms
   LPB:       -0.268047005154373E+00   0.921823737769420E-01
   LPB:    0  -0.268046864006983E+00   0.918548252841015E-01   0.890208E-04   0.000000E+00   0.356221E+02   0.317111E-02
   LPB:    1  -0.268020282444344E+00   0.918420557816458E-02   0.894083E-02   0.000000E+00   0.786394E+02   0.137257E-18
   LPB:    2  -0.268017789808093E+00   0.138632928502328E-02   0.163546E-01   0.512644E-01   0.143529E+03   0.334247E-17
   LPB:    3  -0.268017473998295E+00   0.558071579168745E-03   0.231456E-01   0.895240E-01   0.337950E+03   0.428154E-17
   LPB:    4  -0.268017384074170E+00   0.355358178755611E-03   0.268525E-01   0.245433E+00   0.516621E+03   0.243627E-17
  Finished solving LPB equations
  A_corr:   -0.182221798324001     
 End minimization
 Ecorr=   2946.94475589955     
 A_corr= -0.182221798324001     
 Ecorr_band=  -2947.12697769787     
 End Solvation calculations
RMM:   3    -0.243535194552E+03    0.11932E-03   -0.69820E-05  4497   0.146E-02    0.811E-02
 Begin Solvation calculations
  rms_SCF =   4.414914500030879E-003 tol =   4.414914500030879E-004
 Begin minimization
 Creating dielectric and ionic cavities
  area:      163.418591084945     
  volume:    772.752834231706     
  Acav:     8.579476031959633E-002
  Solving linear dielectric/ionic screening model
        iter                  A_solv                     rms
   LPB:       -0.268076329824377E+00   0.565039713893352E-01
   LPB:    0  -0.268076290442692E+00   0.563700984815428E-01  -0.470220E-04   0.000000E+00   0.356222E+02  -0.167503E-02
   LPB:    1  -0.268066332506700E+00   0.542123800080600E-02   0.884561E-02   0.000000E+00   0.800025E+02  -0.336196E-19
   LPB:    2  -0.268065477871823E+00   0.834800308277886E-03   0.164818E-01   0.460610E-01   0.140976E+03  -0.730779E-17
   LPB:    3  -0.268065382156280E+00   0.295803535725213E-03   0.211830E-01   0.871405E-01   0.371656E+03  -0.756167E-17
   LPB:    4  -0.268065357426647E+00   0.144737165441379E-03   0.269553E-01   0.203038E+00   0.763949E+03  -0.102074E-16
  Finished solving LPB equations
  A_corr:   -0.182270597107051     
 End minimization
 Ecorr=   2946.93996968180     
 A_corr= -0.182270597107051     
 Ecorr_band=  -2947.12224027891     
 End Solvation calculations
RMM:   4    -0.243535160844E+03    0.33708E-04   -0.19196E-05  3252   0.767E-03    0.440E-02
 Begin Solvation calculations
  rms_SCF =   4.414914500030879E-003 tol =   4.414914500030879E-004
 Begin minimization
 Creating dielectric and ionic cavities
  area:      163.419953403886     
  volume:    772.749147046821     
  Acav:     8.579547553704031E-002
  Solving linear dielectric/ionic screening model
        iter                  A_solv                     rms
   LPB:       -0.268067903369197E+00   0.277871302179154E-01
   LPB:    0  -0.268067884583437E+00   0.277284982833187E-01  -0.324764E-04   0.000000E+00   0.356224E+02  -0.115689E-02
   LPB:    1  -0.268065355093990E+00   0.282352176241365E-02   0.919069E-02   0.000000E+00   0.778957E+02  -0.416841E-19
   LPB:    2  -0.268065071849317E+00   0.559232198354948E-03   0.161829E-01   0.635946E-01   0.181510E+03   0.145003E-18
   LPB:    3  -0.268065029040885E+00   0.322500028989994E-03   0.229244E-01   0.106691E+00   0.338268E+03   0.423433E-18
   LPB:    4  -0.268065014918342E+00   0.305113019668191E-03   0.288885E-01   0.261792E+00   0.399612E+03   0.665859E-17
  Finished solving LPB equations
  A_corr:   -0.182269539381302     
 End minimization
 Ecorr=   2946.95931069218     
 A_corr= -0.182269539381302     
 Ecorr_band=  -2947.14158023156     
 End Solvation calculations
RMM:   5    -0.243535152427E+03    0.84169E-05   -0.15384E-05  3015   0.701E-03
 Begin Solvation calculations
  rms_SCF =   4.414914500030879E-003 tol =   4.414914500030879E-004
 Begin minimization
 Creating dielectric and ionic cavities
  area:      163.419533296211     
  volume:    772.745960690782     
  Acav:     8.579525498051055E-002
  Solving linear dielectric/ionic screening model
        iter                  A_solv                     rms
   LPB:       -0.268099929361519E+00   0.462908873141310E-02
   LPB:    0  -0.268099870078884E+00   0.227379057516948E-02  -0.576921E-04   0.000000E+00   0.356226E+02  -0.205514E-02
   LPB:    1  -0.268099661653811E+00   0.106114323458493E-02   0.175293E-01   0.000000E+00   0.207384E+03  -0.208666E-19
   LPB:    2  -0.268099625365604E+00   0.647385064565217E-03   0.198162E-01   0.154013E+00   0.192616E+03  -0.126455E-16
   LPB:    3  -0.268099607728734E+00   0.317920366402304E-03   0.245493E-01   0.392318E+00   0.239290E+03  -0.183118E-16
   LPB:    4  -0.268099594475345E+00   0.168675192011654E-03   0.363154E-01   0.507988E+00   0.487456E+03  -0.215765E-16
  Finished solving LPB equations
  A_corr:   -0.182304339494834     
 End minimization
 Ecorr=   2946.97216735831     
 A_corr= -0.182304339494834     
 Ecorr_band=  -2947.15447169780     
 End Solvation calculations
  34 F= -.24353515E+03 E0= -.24352572E+03  d E =0.246612E-04
quench:  g(F)=  0.000E+00 g(S)=  0.000E+00 dE (1.order)= 0.000E+00
 reached required accuracy - stopping structural energy minimisation
