 vasp.5.4.4.18Apr17-6-g9f103f2a35 (build Feb 06 2024 13:54:16) complex          
  
 POSCAR found type information on POSCAR  Rh N  O 
 03/POSCAR found :  3 types and      40 ions
 scaLAPACK will be used

 ----------------------------------------------------------------------------- 
|                                                                             |
|  ADVICE TO THIS USER RUNNING 'VASP/VAMP'   (HEAR YOUR MASTER'S VOICE ...):  |
|                                                                             |
|      You enforced a specific xc-type in the INCAR file,                     |
|      a different type was found on the POTCAR file                          |
|          I HOPE YOU KNOW, WHAT YOU ARE  DOING                               |
|                                                                             |
 ----------------------------------------------------------------------------- 

 LDA part: xc-table for Pade appr. of Perdew
 POSCAR found type information on POSCAR  Rh N  O 
 00/POSCAR found :  3 types and      40 ions
 POSCAR found type information on POSCAR  Rh N  O 
 06/POSCAR found :  3 types and      40 ions
 Jacobian:    21.3215267681110     
 POSCAR, INCAR and KPOINTS ok, starting setup
 FFT: planning ...
 WAVECAR not read
 entering main loop
       N       E                     dE             d eps       ncg     rms          rms(c)
  Solvation turned off during non-self-consistent phase (first NELMDL steps)
DAV:   1     0.613449609429E+04    0.61345E+04   -0.35749E+05  6576   0.164E+03
DAV:   2    -0.152028075255E+02   -0.61497E+04   -0.59661E+04  5880   0.478E+02
DAV:   3    -0.254483807345E+03   -0.23928E+03   -0.21944E+03  6069   0.912E+01
DAV:   4    -0.261742320314E+03   -0.72585E+01   -0.71231E+01  5988   0.142E+01
DAV:   5    -0.261997207077E+03   -0.25489E+00   -0.25458E+00  6996   0.242E+00    0.502E+01
 Begin Solvation calculations
  rms_SCF =    2.39417691672909      tol =   0.239417691672909     
 Begin minimization
 Creating dielectric and ionic cavities
  area:      179.766106496385     
  volume:    798.369413051128     
  Acav:     9.437720591060224E-002
  Solving linear dielectric/ionic screening model
        iter                  A_solv                     rms
   LPB:       -0.681951901131213E+03   0.312408105603852E+03
   LPB:    0  -0.256147409121958E+01   0.122690668879625E+02  -0.628291E+01   0.000000E+00   0.344213E+02  -0.216266E+03
   LPB:    1  -0.792462664512072E+00   0.518859010429892E+01   0.142443E-01   0.000000E+00   0.978703E+02  -0.114225E-13
   LPB:    2  -0.440143970862664E+00   0.143141822005451E+01   0.147739E-01   0.192023E+00   0.160514E+03   0.103457E-13
   LPB:    3  -0.285340401429949E+00   0.672114613320449E+00   0.246472E-01   0.263373E+00   0.268670E+03   0.200271E-13
   LPB:    4  -0.221947019692038E+00   0.428848015736682E+00   0.321134E-01   0.314301E+00   0.867577E+02   0.231814E-13
   LPB:    5  -0.193054842581319E+00   0.653531020686390E+00   0.295818E-01   0.494764E+00   0.444255E+03   0.335652E-13
   LPB:    6  -0.176982589203021E+00   0.361301968893876E+00   0.258995E-01   0.635373E+00   0.569571E+02   0.402360E-13
   LPB:    7  -0.166313914305761E+00   0.212134794092350E+00   0.293143E-01   0.586471E+00   0.283521E+03   0.448431E-13
  Finished solving LPB equations
  A_corr:   -7.193670839515835E-002
 End minimization
 Ecorr=   3331.23250896769     
 A_corr= -7.193670839515835E-002
 Ecorr_band=  -3331.30444567608     
 End Solvation calculations
RMM:   6    -0.250861121653E+03    0.11136E+02   -0.72107E+01  5424   0.167E+01    0.304E+01
 Begin Solvation calculations
  rms_SCF =    2.39417691672909      tol =   0.239417691672909     
 Begin minimization
 Creating dielectric and ionic cavities
  area:      166.801869970323     
  volume:    822.739571622568     
  Acav:     8.757098173441939E-002
  Solving linear dielectric/ionic screening model
        iter                  A_solv                     rms
   LPB:       -0.391208466368449E+01   0.284156182387245E+02
   LPB:    0  -0.138591464448193E+01   0.142820012937758E+02   0.389639E+00   0.000000E+00   0.332788E+02   0.129667E+02
   LPB:    1  -0.360832302316475E+00   0.149508401329445E+01   0.101044E-01   0.000000E+00   0.844191E+02  -0.363921E-15
   LPB:    2  -0.239129733683153E+00   0.131157929332182E+01   0.197395E-01   0.607735E-01   0.289948E+03   0.218655E-13
   LPB:    3  -0.197221390622441E+00   0.845522745460057E+00   0.193694E-01   0.350931E+00   0.867629E+02   0.262085E-13
   LPB:    4  -0.175827127380165E+00   0.399064480386555E+00   0.258259E-01   0.382875E+00   0.282595E+03   0.223053E-13
   LPB:    5  -0.163658390082522E+00   0.136633106045715E+00   0.311942E-01   0.470902E+00   0.287306E+03   0.177385E-13
  Finished solving LPB equations
  A_corr:   -7.608740834810231E-002
 End minimization
 Ecorr=   3154.63003423351     
 A_corr= -7.608740834810231E-002
 Ecorr_band=  -3154.70612164186     
 End Solvation calculations
RMM:   7    -0.273097964547E+03   -0.22237E+02   -0.61878E+01  5430   0.959E+00    0.458E+01
 Begin Solvation calculations
  rms_SCF =    2.39417691672909      tol =   0.239417691672909     
 Begin minimization
 Creating dielectric and ionic cavities
  area:      176.007019310025     
  volume:    811.692453223690     
  Acav:     9.240368513776301E-002
  Solving linear dielectric/ionic screening model
        iter                  A_solv                     rms
   LPB:       -0.993013080821046E+00   0.148650951403183E+02
   LPB:    0  -0.665745683495062E+00   0.100079705558727E+02  -0.139165E+00   0.000000E+00   0.337967E+02  -0.470331E+01
   LPB:    1  -0.236535391547544E+00   0.111241234498521E+01   0.973999E-02   0.000000E+00   0.713049E+02  -0.396077E-15
   LPB:    2  -0.201572984764934E+00   0.612343714788252E+00   0.163456E-01   0.485387E-01   0.112089E+03   0.425952E-13
   LPB:    3  -0.191451712082571E+00   0.454238131560019E+00   0.211510E-01   0.223720E+00   0.127448E+03   0.463443E-13
   LPB:    4  -0.182047309450989E+00   0.200353357059625E+00   0.349822E-01   0.561798E+00   0.112721E+03   0.452027E-13
  Finished solving LPB equations
  A_corr:   -8.964362431322645E-002
 End minimization
 Ecorr=   3155.81989070784     
 A_corr= -8.964362431322645E-002
 Ecorr_band=  -3155.90953433215     
 End Solvation calculations
RMM:   8    -0.263902329747E+03    0.91956E+01   -0.39150E+01  5424   0.996E+00    0.422E+01
 Begin Solvation calculations
  rms_SCF =    2.39417691672909      tol =   0.239417691672909     
 Begin minimization
 Creating dielectric and ionic cavities
  area:      177.701507575710     
  volume:    812.043061653241     
  Acav:     9.329329147724752E-002
  Solving linear dielectric/ionic screening model
        iter                  A_solv                     rms
   LPB:       -0.846373019625745E+01   0.475129133920213E+02
   LPB:    0  -0.835051705458330E+01   0.472353789841120E+02   0.818714E-01   0.000000E+00   0.337803E+02   0.276564E+01
   LPB:    1  -0.988331834774891E+00   0.456397139762755E+01   0.920971E-02   0.000000E+00   0.777455E+02   0.235809E-16
   LPB:    2  -0.378576332444878E+00   0.765396554207329E+00   0.166623E-01   0.457783E-01   0.138217E+03   0.271735E-14
   LPB:    3  -0.289696694017284E+00   0.295928771722329E+00   0.225681E-01   0.107618E+00   0.297227E+03   0.277206E-14
   LPB:    4  -0.265304882061324E+00   0.237777346452953E+00   0.280776E-01   0.220585E+00   0.357112E+03   0.296200E-14
  Finished solving LPB equations
  A_corr:   -0.172011590584076     
 End minimization
 Ecorr=   3119.14959107154     
 A_corr= -0.172011590584076     
 Ecorr_band=  -3119.32160266213     
 End Solvation calculations
RMM:   9    -0.271401383381E+03   -0.74991E+01   -0.10708E+01  5424   0.484E+00    0.541E+01
 Begin Solvation calculations
  rms_SCF =    2.39417691672909      tol =   0.239417691672909     
 Begin minimization
 Creating dielectric and ionic cavities
  area:      172.408350351772     
  volume:    811.455320722479     
  Acav:     9.051438393468003E-002
  Solving linear dielectric/ionic screening model
        iter                  A_solv                     rms
   LPB:       -0.468471835188393E+01   0.352123423160100E+02
   LPB:    0  -0.467850101730943E+01   0.352279328709479E+02   0.191782E-01   0.000000E+00   0.338078E+02   0.648374E+00
   LPB:    1  -0.590516251577768E+00   0.337958739083739E+01   0.912539E-02   0.000000E+00   0.790451E+02  -0.125198E-17
   LPB:    2  -0.263398513762827E+00   0.634018322467376E+00   0.171344E-01   0.426165E-01   0.128661E+03   0.230959E-14
   LPB:    3  -0.215705505205523E+00   0.203801718125796E+00   0.218285E-01   0.114445E+00   0.249785E+03   0.505893E-14
   LPB:    4  -0.203491365425306E+00   0.137773169436424E+00   0.272951E-01   0.204808E+00   0.342965E+03   0.670814E-14
  Finished solving LPB equations
  A_corr:   -0.112976981490626     
 End minimization
 Ecorr=   3078.50654615973     
 A_corr= -0.112976981490626     
 Ecorr_band=  -3078.61952314122     
 End Solvation calculations
RMM:  10    -0.248477238763E+03    0.22924E+02   -0.80272E+00  5424   0.433E+00    0.196E+01
 Begin Solvation calculations
  rms_SCF =    2.39417691672909      tol =   0.239417691672909     
 Begin minimization
 Creating dielectric and ionic cavities
  area:      164.323291240417     
  volume:    805.185882928635     
  Acav:     8.626972790121894E-002
  Solving linear dielectric/ionic screening model
        iter                  A_solv                     rms
   LPB:       -0.697851619849341E+00   0.109821782975801E+02
   LPB:    0  -0.670109911014889E+00   0.104404833353705E+02  -0.403361E-01   0.000000E+00   0.341017E+02  -0.137553E+01
   LPB:    1  -0.278134935582998E+00   0.955367410896504E+00   0.937229E-02   0.000000E+00   0.796881E+02   0.422373E-16
   LPB:    2  -0.240950857017144E+00   0.306330104311874E+00   0.168297E-01   0.528286E-01   0.186526E+03   0.307967E-14
   LPB:    3  -0.231696670202003E+00   0.350140403524809E+00   0.239822E-01   0.174650E+00   0.347955E+03   0.596219E-14
   LPB:    4  -0.227342720667222E+00   0.206791713879134E+00   0.275649E-01   0.409333E+00   0.776979E+02   0.863543E-14
  Finished solving LPB equations
  A_corr:   -0.141072992766003     
 End minimization
 Ecorr=   3067.98457308047     
 A_corr= -0.141072992766003     
 Ecorr_band=  -3068.12564607323     
 End Solvation calculations
RMM:  11    -0.246848963621E+03    0.16283E+01   -0.62890E+00  5428   0.388E+00    0.183E+01
 Begin Solvation calculations
  rms_SCF =    2.39417691672909      tol =   0.239417691672909     
 Begin minimization
 Creating dielectric and ionic cavities
  area:      161.007272133245     
  volume:    799.672181138920     
  Acav:     8.452881786995343E-002
  Solving linear dielectric/ionic screening model
        iter                  A_solv                     rms
   LPB:       -0.385235767913228E+00   0.436410790425778E+01
   LPB:    0  -0.382683262788424E+00   0.438196697676709E+01   0.121891E-01   0.000000E+00   0.343602E+02   0.418819E+00
   LPB:    1  -0.283429855494418E+00   0.854356736778832E+00   0.109936E-01   0.000000E+00   0.850839E+02   0.267902E-17
   LPB:    2  -0.262059373846090E+00   0.233306246976616E+00   0.172763E-01   0.137011E+00   0.357546E+03   0.142319E-14
   LPB:    3  -0.253203506292769E+00   0.185327427678163E+00   0.288508E-01   0.248147E+00   0.401982E+03   0.165896E-14
   LPB:    4  -0.248619355358173E+00   0.149776385570524E+00   0.353166E-01   0.422870E+00   0.119726E+03   0.184535E-14
  Finished solving LPB equations
  A_corr:   -0.164090537488220     
 End minimization
 Ecorr=   3045.48485715679     
 A_corr= -0.164090537488220     
 Ecorr_band=  -3045.64894769428     
 End Solvation calculations
RMM:  12    -0.245434754782E+03    0.14142E+01   -0.29597E+00  5430   0.272E+00    0.126E+01
 Begin Solvation calculations
  rms_SCF =    2.39417691672909      tol =   0.239417691672909     
 Begin minimization
 Creating dielectric and ionic cavities
  area:      160.137774479531     
  volume:    797.627809025179     
  Acav:     8.407233160175373E-002
  Solving linear dielectric/ionic screening model
        iter                  A_solv                     rms
   LPB:       -0.287471615597677E+00   0.226126469150066E+01
   LPB:    0  -0.287394455914109E+00   0.227077193840022E+01   0.211630E-02   0.000000E+00   0.344561E+02   0.729194E-01
   LPB:    1  -0.264503701384251E+00   0.338452881089858E+00   0.103561E-01   0.000000E+00   0.820868E+02  -0.526979E-17
   LPB:    2  -0.259893342909223E+00   0.982925199817160E-01   0.181488E-01   0.114927E+00   0.295412E+03   0.103887E-15
   LPB:    3  -0.257010267458633E+00   0.141880359954715E+00   0.407187E-01   0.278725E+00   0.322817E+03  -0.116242E-15
   LPB:    4  -0.254493450262171E+00   0.156294109298424E+00   0.415938E-01   0.854597E+00   0.644492E+02   0.987336E-16
  Finished solving LPB equations
  A_corr:   -0.170421118660417     
 End minimization
 Ecorr=   3030.63720114227     
 A_corr= -0.170421118660417     
 Ecorr_band=  -3030.80762226093     
 End Solvation calculations
RMM:  13    -0.244174352123E+03    0.12604E+01   -0.10658E+00  5440   0.172E+00    0.564E+00
 Begin Solvation calculations
  rms_SCF =    2.39417691672909      tol =   0.239417691672909     
 Begin minimization
 Creating dielectric and ionic cavities
  area:      159.874711206705     
  volume:    794.096524092058     
  Acav:     8.393422338352011E-002
  Solving linear dielectric/ionic screening model
        iter                  A_solv                     rms
   LPB:       -0.280607111073983E+00   0.178898686145282E+01
   LPB:    0  -0.277116419965217E+00   0.125996961421664E+01  -0.142003E-01   0.000000E+00   0.346216E+02  -0.491637E+00
   LPB:    1  -0.264374252082627E+00   0.309261174798282E+00   0.123002E-01   0.000000E+00   0.811251E+02   0.134907E-16
   LPB:    2  -0.261290891814996E+00   0.181865813184450E+00   0.186674E-01   0.159445E+00   0.275330E+03   0.625193E-14
   LPB:    3  -0.260021851274013E+00   0.207923990564920E+00   0.244483E-01   0.314258E+00   0.141644E+03   0.848387E-14
   LPB:    4  -0.259012067663403E+00   0.999703940654411E-01   0.272385E-01   0.714195E+00   0.938108E+02   0.947725E-14
  Finished solving LPB equations
  A_corr:   -0.175077844279883     
 End minimization
 Ecorr=   3025.17495881852     
 A_corr= -0.175077844279883     
 Ecorr_band=  -3025.35003666280     
 End Solvation calculations
RMM:  14    -0.244253246162E+03   -0.78894E-01   -0.38519E-01  5424   0.957E-01    0.673E+00
 Begin Solvation calculations
  rms_SCF =    2.39417691672909      tol =   0.239417691672909     
 Begin minimization
 Creating dielectric and ionic cavities
  area:      159.607329999248     
  volume:    791.233171857528     
  Acav:     8.379384824960505E-002
  Solving linear dielectric/ionic screening model
        iter                  A_solv                     rms
   LPB:       -0.276650435838042E+00   0.784800799320562E+00
   LPB:    0  -0.273428156923912E+00   0.680056255315663E+00   0.136170E-01   0.000000E+00   0.347559E+02   0.473272E+00
   LPB:    1  -0.265248856338967E+00   0.254226055487620E+00   0.143826E-01   0.000000E+00   0.163407E+03  -0.175275E-16
   LPB:    2  -0.264047809441892E+00   0.152423174361919E+00   0.146502E-01   0.144157E+00   0.251122E+03   0.916952E-16
   LPB:    3  -0.263079171811826E+00   0.126167618513784E+00   0.336215E-01   0.351422E+00   0.110272E+03   0.164023E-15
   LPB:    4  -0.261914929240536E+00   0.107546982516727E+00   0.435666E-01   0.927569E+00   0.863757E+02  -0.618200E-16
  Finished solving LPB equations
  A_corr:   -0.178121080990931     
 End minimization
 Ecorr=   3009.84529264444     
 A_corr= -0.178121080990931     
 Ecorr_band=  -3010.02341372543     
 End Solvation calculations
RMM:  15    -0.243990948614E+03    0.26230E+00   -0.14352E-01  5426   0.635E-01    0.271E+00
 Begin Solvation calculations
  rms_SCF =    1.94814178852137      tol =   0.194814178852137     
 Begin minimization
 Creating dielectric and ionic cavities
  area:      159.833449776491     
  volume:    788.260037116815     
  Acav:     8.391256113265766E-002
  Solving linear dielectric/ionic screening model
        iter                  A_solv                     rms
   LPB:       -0.285979833829171E+00   0.639370229761849E+00
   LPB:    0  -0.285961833284707E+00   0.671378660093162E+00   0.101572E-02   0.000000E+00   0.348952E+02   0.354439E-01
   LPB:    1  -0.274439696334749E+00   0.257731201888226E+00   0.155505E-01   0.000000E+00   0.167582E+03   0.355595E-17
   LPB:    2  -0.272683900474970E+00   0.149341577320349E+00   0.169383E-01   0.139899E+00   0.213392E+03  -0.220054E-14
   LPB:    3  -0.271817524157593E+00   0.133508998936941E+00   0.266461E-01   0.313667E+00   0.122371E+03  -0.204250E-14
   LPB:    4  -0.271197760648039E+00   0.154626352454600E+00   0.296476E-01   0.642931E+00   0.114218E+03  -0.111504E-14
  Finished solving LPB equations
  A_corr:   -0.187285199515382     
 End minimization
 Ecorr=   3001.16343860165     
 A_corr= -0.187285199515382     
 Ecorr_band=  -3001.35072380116     
 End Solvation calculations
RMM:  16    -0.244007220100E+03   -0.16271E-01   -0.94838E-02  5424   0.482E-01    0.321E+00
 Begin Solvation calculations
  rms_SCF =    1.02740869086246      tol =   0.102740869086246     
 Begin minimization
 Creating dielectric and ionic cavities
  area:      160.406832945512     
  volume:    782.553533023993     
  Acav:     8.421358729639371E-002
  Solving linear dielectric/ionic screening model
        iter                  A_solv                     rms
   LPB:       -0.355232092085732E+00   0.117409232455784E+01
   LPB:    0  -0.354481400169936E+00   0.136227086488464E+01   0.653438E-02   0.000000E+00   0.351628E+02   0.229767E+00
   LPB:    1  -0.307241123023043E+00   0.666410891430038E+00   0.145989E-01   0.000000E+00   0.192926E+03   0.148655E-16
   LPB:    2  -0.300149702140271E+00   0.245471515133878E+00   0.164199E-01   0.133466E+00   0.139735E+03   0.285108E-14
   LPB:    3  -0.297637565245096E+00   0.170513590802570E+00   0.223882E-01   0.259814E+00   0.277116E+03   0.311464E-14
   LPB:    4  -0.296269039744162E+00   0.199299622057764E+00   0.249452E-01   0.488924E+00   0.143176E+03   0.303453E-14
   LPB:    5  -0.295140515386185E+00   0.126507790252097E+00   0.254710E-01   0.807605E+00   0.259842E+03   0.384574E-14
   LPB:    6  -0.294145136140326E+00   0.552328561527401E-01   0.360795E-01   0.622678E+00   0.107159E+03   0.454000E-14
  Finished solving LPB equations
  A_corr:   -0.209931548843932     
 End minimization
 Ecorr=   2982.61001626268     
 A_corr= -0.209931548843932     
 Ecorr_band=  -2982.81994781152     
 End Solvation calculations
RMM:  17    -0.243954222198E+03    0.52998E-01   -0.73703E-02  5428   0.445E-01    0.223E+00
 Begin Solvation calculations
  rms_SCF =   0.903932688460942      tol =   9.039326884609424E-002
 Begin minimization
 Creating dielectric and ionic cavities
  area:      160.657099078498     
  volume:    780.678414605495     
  Acav:     8.434497701621163E-002
  Solving linear dielectric/ionic screening model
        iter                  A_solv                     rms
   LPB:       -0.311324236021796E+00   0.365375198200648E+00
   LPB:    0  -0.310733995809389E+00   0.453036344025763E+00   0.578690E-02   0.000000E+00   0.352507E+02   0.203992E+00
   LPB:    1  -0.304068613509303E+00   0.238373384093813E+00   0.151031E-01   0.000000E+00   0.244336E+03  -0.114410E-16
   LPB:    2  -0.302999151600000E+00   0.109497504296330E+00   0.172065E-01   0.140836E+00   0.141694E+03   0.688541E-16
   LPB:    3  -0.302644921956426E+00   0.684483198007079E-01   0.214858E-01   0.265253E+00   0.193843E+03  -0.336565E-15
   LPB:    4  -0.302230275199241E+00   0.119172807163300E+00   0.396133E-01   0.634898E+00   0.109686E+03  -0.478779E-15
   LPB:    5  -0.301678540482871E+00   0.112211879796965E+00   0.313893E-01   0.167923E+01   0.171954E+03  -0.545974E-15
   LPB:    6  -0.301160484698397E+00   0.463158191391571E-01   0.310408E-01   0.949502E+00   0.561997E+02  -0.116714E-14
  Finished solving LPB equations
  A_corr:   -0.216815507682186     
 End minimization
 Ecorr=   2970.44445031050     
 A_corr= -0.216815507682186     
 Ecorr_band=  -2970.66126581818     
 End Solvation calculations
RMM:  18    -0.243926430204E+03    0.27792E-01   -0.36530E-02  5424   0.321E-01    0.130E+00
 Begin Solvation calculations
  rms_SCF =   0.896799245766373      tol =   8.967992457663726E-002
 Begin minimization
 Creating dielectric and ionic cavities
  area:      160.987356987486     
  volume:    778.526567009102     
  Acav:     8.451836241843003E-002
  Solving linear dielectric/ionic screening model
        iter                  A_solv                     rms
   LPB:       -0.327358967968271E+00   0.559204443701506E+00
   LPB:    0  -0.326598952484309E+00   0.684496449197886E+00   0.655725E-02   0.000000E+00   0.353516E+02   0.231809E+00
   LPB:    1  -0.315102458617046E+00   0.385769471143508E+00   0.139540E-01   0.000000E+00   0.215798E+03   0.995844E-17
   LPB:    2  -0.313396380552747E+00   0.117959536051602E+00   0.150316E-01   0.137761E+00   0.116966E+03  -0.172268E-14
   LPB:    3  -0.312999657870409E+00   0.636785453007917E-01   0.177724E-01   0.196674E+00   0.357380E+03  -0.242016E-14
   LPB:    4  -0.312827068706806E+00   0.554985866097767E-01   0.235925E-01   0.327717E+00   0.156374E+03  -0.256879E-14
  Finished solving LPB equations
  A_corr:   -0.228308706288376     
 End minimization
 Ecorr=   2962.02307155720     
 A_corr= -0.228308706288376     
 Ecorr_band=  -2962.25138026349     
 End Solvation calculations
RMM:  19    -0.243927096815E+03   -0.66661E-03   -0.19551E-02  5426   0.223E-01    0.131E+00
 Begin Solvation calculations
  rms_SCF =   0.896799245766373      tol =   8.967992457663726E-002
 Begin minimization
 Creating dielectric and ionic cavities
  area:      161.143582322456     
  volume:    777.565917243273     
  Acav:     8.460038071928964E-002
  Solving linear dielectric/ionic screening model
        iter                  A_solv                     rms
   LPB:       -0.321963544298287E+00   0.279419302476766E+00
   LPB:    0  -0.321713383968776E+00   0.314997653179086E+00   0.375962E-02   0.000000E+00   0.353966E+02   0.133078E+00
   LPB:    1  -0.318486182644985E+00   0.172587001393180E+00   0.148725E-01   0.000000E+00   0.271726E+03  -0.214631E-17
   LPB:    2  -0.318047907765239E+00   0.864370027092856E-01   0.168491E-01   0.119875E+00   0.989032E+02  -0.473265E-15
   LPB:    3  -0.317827051098638E+00   0.528777012658947E-01   0.238729E-01   0.355662E+00   0.196915E+03  -0.828862E-15
   LPB:    4  -0.317651890123043E+00   0.594660246012881E-01   0.288325E-01   0.656672E+00   0.139967E+03  -0.116331E-14
  Finished solving LPB equations
  A_corr:   -0.233051509403753     
 End minimization
 Ecorr=   2957.41086416454     
 A_corr= -0.233051509403753     
 Ecorr_band=  -2957.64391567394     
 End Solvation calculations
RMM:  20    -0.243922469215E+03    0.46276E-02   -0.99874E-03  5432   0.167E-01    0.105E+00
 Begin Solvation calculations
  rms_SCF =   0.896799245766373      tol =   8.967992457663726E-002
 Begin minimization
 Creating dielectric and ionic cavities
  area:      161.307303948361     
  volume:    776.641329331215     
  Acav:     8.468633457288964E-002
  Solving linear dielectric/ionic screening model
        iter                  A_solv                     rms
   LPB:       -0.326925701344859E+00   0.384919756560725E+00
   LPB:    0  -0.326851830630765E+00   0.414907511206279E+00   0.204176E-02   0.000000E+00   0.354399E+02   0.723599E-01
   LPB:    1  -0.322829298241738E+00   0.130510606001926E+00   0.151302E-01   0.000000E+00   0.192020E+03  -0.696147E-18
   LPB:    2  -0.322382126904123E+00   0.660562956305879E-01   0.169967E-01   0.989588E-01   0.147415E+03  -0.201647E-15
   LPB:    3  -0.322180271639252E+00   0.417346630901318E-01   0.279999E-01   0.274015E+00   0.106221E+03   0.385491E-15
   LPB:    4  -0.321980864807097E+00   0.340335413455899E-01   0.399902E-01   0.691677E+00   0.210200E+03   0.108222E-14
  Finished solving LPB equations
  A_corr:   -0.237294530234208     
 End minimization
 Ecorr=   2954.16010121638     
 A_corr= -0.237294530234208     
 Ecorr_band=  -2954.39739574661     
 End Solvation calculations
RMM:  21    -0.243922912247E+03   -0.44303E-03   -0.45241E-03  5426   0.106E-01    0.105E+00
 Begin Solvation calculations
  rms_SCF =   0.896799245766373      tol =   8.967992457663726E-002
 Begin minimization
 Creating dielectric and ionic cavities
  area:      161.541142941797     
  volume:    775.474003158744     
  Acav:     8.480910004444329E-002
  Solving linear dielectric/ionic screening model
        iter                  A_solv                     rms
   LPB:       -0.337935443822072E+00   0.599656065042623E+00
   LPB:    0  -0.337846068403862E+00   0.643868310248935E+00   0.224410E-02   0.000000E+00   0.354947E+02   0.796536E-01
   LPB:    1  -0.329879475948523E+00   0.203203292196366E+00   0.146568E-01   0.000000E+00   0.162716E+03  -0.607564E-17
   LPB:    2  -0.328977928965994E+00   0.789325254897412E-01   0.156201E-01   0.106187E+00   0.151300E+03  -0.992454E-16
   LPB:    3  -0.328690780388279E+00   0.471341040896188E-01   0.256245E-01   0.194154E+00   0.120851E+03  -0.291505E-15
   LPB:    4  -0.328480056972145E+00   0.642419535472845E-01   0.351823E-01   0.534486E+00   0.252255E+03  -0.175011E-15
  Finished solving LPB equations
  A_corr:   -0.243670956927702     
 End minimization
 Ecorr=   2949.71769346527     
 A_corr= -0.243670956927702     
 Ecorr_band=  -2949.96136442219     
 End Solvation calculations
RMM:  22    -0.243919887612E+03    0.30246E-02   -0.31272E-03  5427   0.870E-02    0.838E-01
 Begin Solvation calculations
  rms_SCF =   0.896799245766373      tol =   8.967992457663726E-002
 Begin minimization
 Creating dielectric and ionic cavities
  area:      161.746833170041     
  volume:    774.641178145054     
  Acav:     8.491708741427141E-002
  Solving linear dielectric/ionic screening model
        iter                  A_solv                     rms
   LPB:       -0.341486204388863E+00   0.625958326128552E+00
   LPB:    0  -0.341457748800465E+00   0.646792213956040E+00   0.126555E-02   0.000000E+00   0.355337E+02   0.449696E-01
   LPB:    1  -0.335103467915853E+00   0.169957319132895E+00   0.145522E-01   0.000000E+00   0.135313E+03   0.183477E-17
   LPB:    2  -0.334380309403016E+00   0.886130478248134E-01   0.152237E-01   0.108786E+00   0.196393E+03  -0.160065E-15
   LPB:    3  -0.334117847063714E+00   0.744145913274668E-01   0.241552E-01   0.228741E+00   0.102941E+03  -0.118222E-15
   LPB:    4  -0.333912740913277E+00   0.807166936840813E-01   0.280184E-01   0.673718E+00   0.185911E+03   0.239115E-15
  Finished solving LPB equations
  A_corr:   -0.248995653499005     
 End minimization
 Ecorr=   2946.02034275044     
 A_corr= -0.248995653499005     
 Ecorr_band=  -2946.26933840394     
 End Solvation calculations
RMM:  23    -0.243920818016E+03   -0.93040E-03   -0.16642E-03  5420   0.595E-02    0.875E-01
 Begin Solvation calculations
  rms_SCF =   0.896799245766373      tol =   8.967992457663726E-002
 Begin minimization
 Creating dielectric and ionic cavities
  area:      162.025996807059     
  volume:    773.680885612351     
  Acav:     8.506364832370586E-002
  Solving linear dielectric/ionic screening model
        iter                  A_solv                     rms
   LPB:       -0.355180158299008E+00   0.898851251670659E+00
   LPB:    0  -0.355150197362920E+00   0.915637633504631E+00   0.129777E-02   0.000000E+00   0.355787E+02   0.461730E-01
   LPB:    1  -0.343473670296115E+00   0.220456315481637E+00   0.144798E-01   0.000000E+00   0.128810E+03  -0.174873E-17
   LPB:    2  -0.342206452838402E+00   0.130475351879664E+00   0.148373E-01   0.105912E+00   0.230931E+03   0.834737E-15
   LPB:    3  -0.341784038400763E+00   0.875821810039766E-01   0.211233E-01   0.234143E+00   0.106836E+03   0.770933E-15
   LPB:    4  -0.341489201314003E+00   0.850368688519589E-01   0.272237E-01   0.541574E+00   0.204033E+03   0.889686E-15
  Finished solving LPB equations
  A_corr:   -0.256425552990297     
 End minimization
 Ecorr=   2942.11119631372     
 A_corr= -0.256425552990297     
 Ecorr_band=  -2942.36762186671     
 End Solvation calculations
RMM:  24    -0.243919932776E+03    0.88524E-03   -0.16232E-03  5414   0.552E-02    0.742E-01
 Begin Solvation calculations
  rms_SCF =   0.896799245766373      tol =   8.967992457663726E-002
 Begin minimization
 Creating dielectric and ionic cavities
  area:      162.217086661499     
  volume:    773.126802217647     
  Acav:     8.516397049728680E-002
  Solving linear dielectric/ionic screening model
        iter                  A_solv                     rms
   LPB:       -0.354321656766344E+00   0.685698828203416E+00
   LPB:    0  -0.354309141508880E+00   0.694370596437466E+00   0.838458E-03   0.000000E+00   0.356047E+02   0.298530E-01
   LPB:    1  -0.348220496301207E+00   0.161936250958192E+00   0.145205E-01   0.000000E+00   0.117643E+03  -0.115877E-17
   LPB:    2  -0.347550086135737E+00   0.106218643544598E+00   0.148188E-01   0.107892E+00   0.249805E+03   0.239959E-15
   LPB:    3  -0.347234283110102E+00   0.780841332346804E-01   0.240767E-01   0.289928E+00   0.963896E+02   0.184244E-15
   LPB:    4  -0.346929149667042E+00   0.780322414258410E-01   0.320735E-01   0.725310E+00   0.172120E+03  -0.277910E-16
  Finished solving LPB equations
  A_corr:   -0.261765179169755     
 End minimization
 Ecorr=   2939.12017644056     
 A_corr= -0.261765179169755     
 Ecorr_band=  -2939.38194161973     
 End Solvation calculations
RMM:  25    -0.243920215574E+03   -0.28280E-03   -0.91058E-04  5338   0.430E-02    0.738E-01
 Begin Solvation calculations
  rms_SCF =   0.896799245766373      tol =   8.967992457663726E-002
 Begin minimization
 Creating dielectric and ionic cavities
  area:      162.591301098163     
  volume:    772.237749919885     
  Acav:     8.536043307653540E-002
  Solving linear dielectric/ionic screening model
        iter                  A_solv                     rms
   LPB:       -0.388021215849944E+00   0.146651288258589E+01
   LPB:    0  -0.388009392707134E+00   0.147607961512287E+01   0.814467E-03   0.000000E+00   0.356464E+02   0.290328E-01
   LPB:    1  -0.362777903678685E+00   0.335697913026611E+00   0.143316E-01   0.000000E+00   0.110255E+03  -0.837498E-18
   LPB:    2  -0.360161877131930E+00   0.185960339122679E+00   0.139276E-01   0.106688E+00   0.261034E+03   0.135805E-15
   LPB:    3  -0.359398710720917E+00   0.100988928370756E+00   0.195364E-01   0.207973E+00   0.116476E+03  -0.213903E-16
   LPB:    4  -0.358924264321966E+00   0.992010382057687E-01   0.271069E-01   0.448058E+00   0.213069E+03   0.127029E-14
   LPB:    5  -0.358551141120742E+00   0.842745808896124E-01   0.290412E-01   0.734057E+00   0.109555E+03   0.202596E-14
  Finished solving LPB equations
  A_corr:   -0.273190708044206     
 End minimization
 Ecorr=   2935.17699287902     
 A_corr= -0.273190708044206     
 Ecorr_band=  -2935.45018358707     
 End Solvation calculations
RMM:  26    -0.243920327690E+03   -0.11212E-03   -0.15492E-03  4978   0.503E-02    0.633E-01
 Begin Solvation calculations
  rms_SCF =   0.896799245766373      tol =   8.967992457663726E-002
 Begin minimization
 Creating dielectric and ionic cavities
  area:      162.716960870785     
  volume:    772.047136265955     
  Acav:     8.542640445716229E-002
  Solving linear dielectric/ionic screening model
        iter                  A_solv                     rms
   LPB:       -0.366998050174209E+00   0.614399574526685E+00
   LPB:    0  -0.366997696452393E+00   0.611922653972556E+00  -0.140859E-03   0.000000E+00   0.356553E+02  -0.502236E-02
   LPB:    1  -0.363260880644302E+00   0.142972518440721E+00   0.141052E-01   0.000000E+00   0.943262E+02  -0.851618E-19
   LPB:    2  -0.362826342675836E+00   0.644676162751497E-01   0.138971E-01   0.118026E+00   0.240573E+03  -0.207366E-14
   LPB:    3  -0.362656809599162E+00   0.685884627060693E-01   0.267568E-01   0.202636E+00   0.107579E+03  -0.235970E-14
   LPB:    4  -0.362392146670321E+00   0.922315866386562E-01   0.394152E-01   0.105976E+01   0.105811E+03  -0.262504E-14
   LPB:    5  -0.362095153306948E+00   0.611156767068814E-01   0.302774E-01   0.146083E+01   0.817380E+02  -0.305859E-14
  Finished solving LPB equations
  A_corr:   -0.276668748849786     
 End minimization
 Ecorr=   2932.26018350550     
 A_corr= -0.276668748849786     
 Ecorr_band=  -2932.53685225435     
 End Solvation calculations
RMM:  27    -0.243922546515E+03   -0.22188E-02   -0.62675E-04  4920   0.364E-02    0.821E-01
 Begin Solvation calculations
  rms_SCF =   0.896799245766373      tol =   8.967992457663726E-002
 Begin minimization
 Creating dielectric and ionic cavities
  area:      162.950741396663     
  volume:    771.840209527880     
  Acav:     8.554913923324829E-002
  Solving linear dielectric/ionic screening model
        iter                  A_solv                     rms
   LPB:       -0.391783955479621E+00   0.155509555558668E+01
   LPB:    0  -0.391701514278125E+00   0.152688950690116E+01  -0.215014E-02   0.000000E+00   0.356650E+02  -0.766847E-01
   LPB:    1  -0.373429104912126E+00   0.343514667005882E+00   0.134684E-01   0.000000E+00   0.842490E+02  -0.471119E-17
   LPB:    2  -0.371389988730369E+00   0.123568026218882E+00   0.125114E-01   0.120131E+00   0.287791E+03   0.718676E-15
   LPB:    3  -0.371008963933182E+00   0.523373671088168E-01   0.177709E-01   0.131555E+00   0.162925E+03   0.534234E-15
   LPB:    4  -0.370849425463414E+00   0.534386328368990E-01   0.249993E-01   0.297642E+00   0.196335E+03   0.453908E-15
  Finished solving LPB equations
  A_corr:   -0.285300286230165     
 End minimization
 Ecorr=   2929.19092662597     
 A_corr= -0.285300286230165     
 Ecorr_band=  -2929.47622691220     
 End Solvation calculations
RMM:  28    -0.243919079866E+03    0.34666E-02   -0.16379E-03  5212   0.449E-02    0.302E-01
 Begin Solvation calculations
  rms_SCF =   0.347995841355651      tol =   3.479958413556509E-002
 Begin minimization
 Creating dielectric and ionic cavities
  area:      163.124501205242     
  volume:    771.727319966815     
  Acav:     8.564036313275186E-002
  Solving linear dielectric/ionic screening model
        iter                  A_solv                     rms
   LPB:       -0.388392089855013E+00   0.107337409623842E+01
   LPB:    0  -0.388354373208700E+00   0.105832419541408E+01  -0.145421E-02   0.000000E+00   0.356703E+02  -0.518722E-01
   LPB:    1  -0.379267300836559E+00   0.236078597194650E+00   0.136812E-01   0.000000E+00   0.856509E+02   0.208991E-17
   LPB:    2  -0.378243667949081E+00   0.107340964696029E+00   0.130560E-01   0.118042E+00   0.273936E+03  -0.171154E-14
   LPB:    3  -0.377916899489901E+00   0.499472941077750E-01   0.212368E-01   0.196252E+00   0.126666E+03  -0.152315E-14
   LPB:    4  -0.377696312606166E+00   0.556026219433712E-01   0.309454E-01   0.463269E+00   0.203587E+03  -0.141340E-14
   LPB:    5  -0.377534339884424E+00   0.596595647480984E-01   0.304773E-01   0.745557E+00   0.108593E+03  -0.121004E-14
   LPB:    6  -0.377391841709822E+00   0.308688837294328E-01   0.310219E-01   0.864322E+00   0.102409E+03  -0.137239E-14
  Finished solving LPB equations
  A_corr:   -0.291751478577070     
 End minimization
 Ecorr=   2926.92174585961     
 A_corr= -0.291751478577070     
 Ecorr_band=  -2927.21349733818     
 End Solvation calculations
RMM:  29    -0.243919253963E+03   -0.17410E-03   -0.64215E-04  4764   0.336E-02    0.222E-01
 Begin Solvation calculations
  rms_SCF =   0.339140016223990      tol =   3.391400162239898E-002
 Begin minimization
 Creating dielectric and ionic cavities
  area:      163.218334211988     
  volume:    771.879471753451     
  Acav:     8.568962546129387E-002
  Solving linear dielectric/ionic screening model
        iter                  A_solv                     rms
   LPB:       -0.387245606237461E+00   0.833073523682795E+00
   LPB:    0  -0.387185004651576E+00   0.814575939375407E+00  -0.184352E-02   0.000000E+00   0.356632E+02  -0.657457E-01
   LPB:    1  -0.382294297281116E+00   0.168681623022311E+00   0.133541E-01   0.000000E+00   0.818271E+02  -0.275839E-18
   LPB:    2  -0.381783815306334E+00   0.690721283177141E-01   0.125912E-01   0.110702E+00   0.297235E+03  -0.911228E-15
   LPB:    3  -0.381677947739022E+00   0.200962415489029E-01   0.171702E-01   0.152081E+00   0.152958E+03  -0.999532E-15
   LPB:    4  -0.381620143837152E+00   0.273447448325345E-01   0.352790E-01   0.265738E+00   0.211207E+03  -0.963374E-15
  Finished solving LPB equations
  A_corr:   -0.295930518375858     
 End minimization
 Ecorr=   2925.89547844036     
 A_corr= -0.295930518375858     
 Ecorr_band=  -2926.19140895873     
 End Solvation calculations
RMM:  30    -0.243919713068E+03   -0.45911E-03   -0.46775E-04  4768   0.277E-02    0.171E-01
 Begin Solvation calculations
  rms_SCF =   0.198291785829842      tol =   1.982917858298421E-002
 Begin minimization
 Creating dielectric and ionic cavities
  area:      163.296254272528     
  volume:    772.016917337248     
  Acav:     8.573053349307715E-002
  Solving linear dielectric/ionic screening model
        iter                  A_solv                     rms
   LPB:       -0.389138181624822E+00   0.707274496652066E+00
   LPB:    0  -0.389085588659741E+00   0.689075916589305E+00  -0.171754E-02   0.000000E+00   0.356567E+02  -0.612420E-01
   LPB:    1  -0.385769812667678E+00   0.141814938314970E+00   0.132969E-01   0.000000E+00   0.780398E+02   0.121971E-17
   LPB:    2  -0.385437631300290E+00   0.570105903009181E-01   0.123490E-01   0.107872E+00   0.281003E+03  -0.349232E-15
   LPB:    3  -0.385342770879550E+00   0.226534044874810E-01   0.214118E-01   0.164699E+00   0.123534E+03  -0.403759E-15
   LPB:    4  -0.385260907275444E+00   0.297394909826949E-01   0.387140E-01   0.477299E+00   0.143849E+03  -0.377943E-15
   LPB:    5  -0.385184276638968E+00   0.418968959179546E-01   0.359106E-01   0.100915E+01   0.102982E+03  -0.362499E-15
   LPB:    6  -0.385115260945894E+00   0.263760114180211E-01   0.302720E-01   0.106838E+01   0.844319E+02  -0.716603E-15
   LPB:    7  -0.385060142557404E+00   0.107137816505902E-01   0.321697E-01   0.751526E+00   0.216068E+03  -0.102789E-14
  Finished solving LPB equations
  A_corr:   -0.299329609064326     
 End minimization
 Ecorr=   2924.43834242156     
 A_corr= -0.299329609064326     
 Ecorr_band=  -2924.73767203063     
 End Solvation calculations
RMM:  31    -0.243920507708E+03   -0.79464E-03   -0.38786E-04  4710   0.268E-02    0.313E-01
 Begin Solvation calculations
  rms_SCF =   0.198291785829842      tol =   1.982917858298421E-002
 Begin minimization
 Creating dielectric and ionic cavities
  area:      163.345105392687     
  volume:    772.116497034585     
  Acav:     8.575618033116084E-002
  Solving linear dielectric/ionic screening model
        iter                  A_solv                     rms
   LPB:       -0.389568888337431E+00   0.578027235811464E+00
   LPB:    0  -0.389524966527404E+00   0.559698811434533E+00  -0.156969E-02   0.000000E+00   0.356521E+02  -0.559626E-01
   LPB:    1  -0.387686503118479E+00   0.112017559231039E+00   0.125625E-01   0.000000E+00   0.731116E+02   0.538480E-18
   LPB:    2  -0.387472298902712E+00   0.334717132531089E-01   0.123546E-01   0.118474E+00   0.292904E+03  -0.686434E-15
   LPB:    3  -0.387433527977017E+00   0.104307255681521E-01   0.180714E-01   0.123741E+00   0.208720E+03  -0.758265E-15
   LPB:    4  -0.387422691607924E+00   0.109967617666049E-01   0.247415E-01   0.204147E+00   0.291945E+03  -0.755352E-15
  Finished solving LPB equations
  A_corr:   -0.301666511276763     
 End minimization
 Ecorr=   2923.92393233143     
 A_corr= -0.301666511276763     
 Ecorr_band=  -2924.22559884270     
 End Solvation calculations
RMM:  32    -0.243920086556E+03    0.42115E-03   -0.18602E-04  4581   0.162E-02    0.160E-01
 Begin Solvation calculations
  rms_SCF =   0.198291785829842      tol =   1.982917858298421E-002
 Begin minimization
 Creating dielectric and ionic cavities
  area:      163.389904942209     
  volume:    772.227751577741     
  Acav:     8.577970009465992E-002
  Solving linear dielectric/ionic screening model
        iter                  A_solv                     rms
   LPB:       -0.391767996088038E+00   0.585677907718769E+00
   LPB:    0  -0.391711928441963E+00   0.566654126256559E+00  -0.177362E-02   0.000000E+00   0.356469E+02  -0.632240E-01
   LPB:    1  -0.389950554921253E+00   0.109731242465005E+00   0.122748E-01   0.000000E+00   0.718934E+02  -0.171816E-17
   LPB:    2  -0.389750041722279E+00   0.330190295412186E-01   0.122092E-01   0.114450E+00   0.272306E+03  -0.800166E-15
   LPB:    3  -0.389712039262490E+00   0.987582953973933E-02   0.196366E-01   0.117839E+00   0.159249E+03  -0.888642E-15
   LPB:    4  -0.389694249311296E+00   0.115164359120433E-01   0.316231E-01   0.290688E+00   0.197522E+03  -0.804859E-15
  Finished solving LPB equations
  A_corr:   -0.303914549216636     
 End minimization
 Ecorr=   2923.50175091611     
 A_corr= -0.303914549216636     
 Ecorr_band=  -2923.80566546533     
 End Solvation calculations
RMM:  33    -0.243920463669E+03   -0.37711E-03   -0.17678E-04  4479   0.133E-02    0.220E-01
 Begin Solvation calculations
  rms_SCF =   0.198291785829842      tol =   1.982917858298421E-002
 Begin minimization
 Creating dielectric and ionic cavities
  area:      163.403339353664     
  volume:    772.249507966107     
  Acav:     8.578675316067354E-002
  Solving linear dielectric/ionic screening model
        iter                  A_solv                     rms
   LPB:       -0.390580685466957E+00   0.185605712396589E+00
   LPB:    0  -0.390576936902706E+00   0.181915434133383E+00  -0.458609E-03   0.000000E+00   0.356458E+02  -0.163475E-01
   LPB:    1  -0.390411381354554E+00   0.356238010959092E-01   0.119822E-01   0.000000E+00   0.692451E+02   0.487542E-18
   LPB:    2  -0.390389105719046E+00   0.109811765098406E-01   0.129211E-01   0.124774E+00   0.243130E+03  -0.194912E-16
   LPB:    3  -0.390378013134606E+00   0.735933953004876E-02   0.366813E-01   0.175411E+00   0.979848E+02  -0.434168E-16
   LPB:    4  -0.390359916049318E+00   0.863416914576012E-02   0.509624E-01   0.117428E+01   0.829604E+02  -0.532265E-17
  Finished solving LPB equations
  A_corr:   -0.304573162888644     
 End minimization
 Ecorr=   2923.16403854399     
 A_corr= -0.304573162888644     
 Ecorr_band=  -2923.46861170687     
 End Solvation calculations
RMM:  34    -0.243921580011E+03   -0.11163E-02   -0.10897E-04  4484   0.100E-02    0.415E-01
 Begin Solvation calculations
  rms_SCF =   0.198291785829842      tol =   1.982917858298421E-002
 Begin minimization
 Creating dielectric and ionic cavities
  area:      163.388200262750     
  volume:    772.275759892482     
  Acav:     8.577880513794389E-002
  Solving linear dielectric/ionic screening model
        iter                  A_solv                     rms
   LPB:       -0.389907526127689E+00   0.163018160266393E+00
   LPB:    0  -0.389907447959524E+00   0.163402232689039E+00  -0.662267E-04   0.000000E+00   0.356446E+02  -0.236062E-02
   LPB:    1  -0.389776144749540E+00   0.337756612946659E-01   0.116627E-01   0.000000E+00   0.718035E+02  -0.789981E-19
   LPB:    2  -0.389746618514604E+00   0.848467754879114E-02   0.155967E-01   0.168152E+00   0.244928E+03  -0.673698E-16
   LPB:    3  -0.389738509433038E+00   0.650622762507091E-02   0.234556E-01   0.182620E+00   0.440748E+03  -0.901999E-16
   LPB:    4  -0.389733706412435E+00   0.834100110718010E-02   0.312857E-01   0.444062E+00   0.562661E+03  -0.110319E-15
  Finished solving LPB equations
  A_corr:   -0.303954901274491     
 End minimization
 Ecorr=   2923.43995662343     
 A_corr= -0.303954901274491     
 Ecorr_band=  -2923.74391152470     
 End Solvation calculations
RMM:  35    -0.243923981645E+03   -0.24016E-02   -0.99018E-05  4531   0.111E-02    0.648E-01
 Begin Solvation calculations
  rms_SCF =   0.198291785829842      tol =   1.982917858298421E-002
 Begin minimization
 Creating dielectric and ionic cavities
  area:      163.364521500879     
  volume:    772.271855843978     
  Acav:     8.576637378796131E-002
  Solving linear dielectric/ionic screening model
        iter                  A_solv                     rms
   LPB:       -0.389092857800384E+00   0.323925247046198E+00
   LPB:    0  -0.389090597011797E+00   0.321771285924118E+00   0.356161E-03   0.000000E+00   0.356448E+02   0.126953E-01
   LPB:    1  -0.388618967316451E+00   0.585705274044142E-01   0.114548E-01   0.000000E+00   0.691023E+02   0.140739E-18
   LPB:    2  -0.388551123506004E+00   0.114662739185076E-01   0.129364E-01   0.127374E+00   0.266272E+03   0.156791E-15
   LPB:    3  -0.388540569644459E+00   0.417531146088868E-02   0.213960E-01   0.940551E-01   0.283182E+03   0.181460E-15
   LPB:    4  -0.388535688772649E+00   0.565331844872368E-02   0.314470E-01   0.314659E+00   0.530215E+03   0.151436E-15
  Finished solving LPB equations
  A_corr:   -0.302769314984688     
 End minimization
 Ecorr=   2923.68118116336     
 A_corr= -0.302769314984688     
 Ecorr_band=  -2923.98395047834     
 End Solvation calculations
RMM:  36    -0.243922124312E+03    0.18573E-02   -0.88398E-05  4258   0.950E-03    0.473E-01
 Begin Solvation calculations
  rms_SCF =   0.198291785829842      tol =   1.982917858298421E-002
 Begin minimization
 Creating dielectric and ionic cavities
  area:      163.361410223653     
  volume:    772.269101888738     
  Acav:     8.576474036741771E-002
  Solving linear dielectric/ionic screening model
        iter                  A_solv                     rms
   LPB:       -0.388465331750527E+00   0.192755332816901E+00
   LPB:    0  -0.388465233482898E+00   0.192700861170491E+00  -0.742543E-04   0.000000E+00   0.356449E+02  -0.264679E-02
   LPB:    1  -0.388334305536772E+00   0.250774604376801E-01   0.997950E-02   0.000000E+00   0.708026E+02   0.208940E-18
   LPB:    2  -0.388315950034031E+00   0.437094159257696E-02   0.146574E-01   0.954519E-01   0.204432E+03   0.172449E-17
   LPB:    3  -0.388311934937323E+00   0.374739256818188E-02   0.309193E-01   0.103695E+00   0.237656E+03   0.619282E-18
   LPB:    4  -0.388308749578194E+00   0.340350816126890E-02   0.404173E-01   0.606910E+00   0.309989E+03   0.826840E-17
  Finished solving LPB equations
  A_corr:   -0.302544009210776     
 End minimization
 Ecorr=   2923.68080842445     
 A_corr= -0.302544009210776     
 Ecorr_band=  -2923.98335243366     
 End Solvation calculations
RMM:  37    -0.243922314365E+03   -0.19005E-03   -0.21550E-05  3486   0.598E-03    0.497E-01
 Begin Solvation calculations
  rms_SCF =   0.198291785829842      tol =   1.982917858298421E-002
 Begin minimization
 Creating dielectric and ionic cavities
  area:      163.359990192473     
  volume:    772.244666204670     
  Acav:     8.576399485104813E-002
  Solving linear dielectric/ionic screening model
        iter                  A_solv                     rms
   LPB:       -0.388882251300913E+00   0.474241869772945E+00
   LPB:    0  -0.388882161854008E+00   0.474261001848510E+00  -0.708422E-04   0.000000E+00   0.356461E+02  -0.252524E-02
   LPB:    1  -0.388107301472313E+00   0.594176903506260E-01   0.983407E-02   0.000000E+00   0.712421E+02  -0.168987E-18
   LPB:    2  -0.388005901675656E+00   0.102912535303264E-01   0.145045E-01   0.887245E-01   0.197173E+03  -0.106049E-16
   LPB:    3  -0.387993343101301E+00   0.444865921023594E-02   0.231819E-01   0.774920E-01   0.256175E+03  -0.249038E-17
   LPB:    4  -0.387988470114929E+00   0.221941743800984E-02   0.321540E-01   0.279749E+00   0.317446E+03   0.135630E-16
  Finished solving LPB equations
  A_corr:   -0.302224475263881     
 End minimization
 Ecorr=   2923.77256144836     
 A_corr= -0.302224475263881     
 Ecorr_band=  -2924.07478592362     
 End Solvation calculations
RMM:  38    -0.243926190247E+03   -0.38759E-02   -0.13273E-04  4555   0.118E-02    0.821E-01
 Begin Solvation calculations
  rms_SCF =   0.198291785829842      tol =   1.982917858298421E-002
 Begin minimization
 Creating dielectric and ionic cavities
  area:      163.383162152014     
  volume:    772.298756593025     
  Acav:     8.577616012980722E-002
  Solving linear dielectric/ionic screening model
        iter                  A_solv                     rms
   LPB:       -0.390698163440721E+00   0.550997528170412E+00
   LPB:    0  -0.390686312940203E+00   0.546190234805677E+00  -0.815442E-03   0.000000E+00   0.356435E+02  -0.290652E-01
   LPB:    1  -0.389469835989859E+00   0.872027925536867E-01   0.108788E-01   0.000000E+00   0.685877E+02   0.143044E-17
   LPB:    2  -0.389302646724214E+00   0.183400939692896E-01   0.132520E-01   0.112825E+00   0.235870E+03   0.262829E-15
   LPB:    3  -0.389280632713452E+00   0.469257143915016E-02   0.194199E-01   0.898515E-01   0.248378E+03   0.276411E-15
   LPB:    4  -0.389275413973410E+00   0.383813935458734E-02   0.249143E-01   0.184784E+00   0.444449E+03   0.337170E-15
  Finished solving LPB equations
  A_corr:   -0.303499253843603     
 End minimization
 Ecorr=   2923.45338708454     
 A_corr= -0.303499253843603     
 Ecorr_band=  -2923.75688633839     
 End Solvation calculations
RMM:  39    -0.243922990900E+03    0.31993E-02   -0.88474E-05  4482   0.109E-02    0.555E-01
 Begin Solvation calculations
  rms_SCF =   0.198291785829842      tol =   1.982917858298421E-002
 Begin minimization
 Creating dielectric and ionic cavities
  area:      163.404578197804     
  volume:    772.363569974425     
  Acav:     8.578740355384708E-002
  Solving linear dielectric/ionic screening model
        iter                  A_solv                     rms
   LPB:       -0.391846987398371E+00   0.516775389361569E+00
   LPB:    0  -0.391828031514040E+00   0.509241820650536E+00  -0.103137E-02   0.000000E+00   0.356405E+02  -0.367586E-01
   LPB:    1  -0.390753387428688E+00   0.821809018197290E-01   0.109490E-01   0.000000E+00   0.686144E+02   0.254610E-17
   LPB:    2  -0.390614686776087E+00   0.188328950377463E-01   0.129373E-01   0.109231E+00   0.232316E+03  -0.554465E-15
   LPB:    3  -0.390594094821353E+00   0.531360708980622E-02   0.208536E-01   0.921043E-01   0.186873E+03  -0.573700E-15
   LPB:    4  -0.390586348691112E+00   0.438472097564691E-02   0.297461E-01   0.263718E+00   0.252071E+03  -0.579361E-15
  Finished solving LPB equations
  A_corr:   -0.304798945137265     
 End minimization
 Ecorr=   2923.06013092093     
 A_corr= -0.304798945137265     
 Ecorr_band=  -2923.36492986606     
 End Solvation calculations
RMM:  40    -0.243922848602E+03    0.14230E-03   -0.51202E-05  3828   0.826E-03    0.532E-01
 Begin Solvation calculations
  rms_SCF =   0.198291785829842      tol =   1.982917858298421E-002
 Begin minimization
 Creating dielectric and ionic cavities
  area:      163.412874623197     
  volume:    772.430504271475     
  Acav:     8.579175917717832E-002
  Solving linear dielectric/ionic screening model
        iter                  A_solv                     rms
   LPB:       -0.392301865603767E+00   0.471085407241701E+00
   LPB:    0  -0.392283455574116E+00   0.464159108458224E+00  -0.101646E-02   0.000000E+00   0.356374E+02  -0.362239E-01
   LPB:    1  -0.391455026425955E+00   0.649687617777808E-01   0.102780E-01   0.000000E+00   0.722352E+02  -0.366130E-17
   LPB:    2  -0.391363539922731E+00   0.155128990196943E-01   0.129845E-01   0.874153E-01   0.214184E+03  -0.703002E-16
   LPB:    3  -0.391350931850444E+00   0.422665443561911E-02   0.216654E-01   0.825940E-01   0.143128E+03  -0.137332E-16
   LPB:    4  -0.391344489132825E+00   0.281082751946595E-02   0.359189E-01   0.308222E+00   0.179428E+03  -0.681947E-16
  Finished solving LPB equations
  A_corr:   -0.305552729955646     
 End minimization
 Ecorr=   2922.67416638016     
 A_corr= -0.305552729955646     
 Ecorr_band=  -2922.97971911012     
 End Solvation calculations
RMM:  41    -0.243922205413E+03    0.64319E-03   -0.38063E-05  3785   0.725E-03    0.438E-01
 Begin Solvation calculations
  rms_SCF =   0.198291785829842      tol =   1.982917858298421E-002
 Begin minimization
 Creating dielectric and ionic cavities
  area:      163.415969659347     
  volume:    772.457647940983     
  Acav:     8.579338407115734E-002
  Solving linear dielectric/ionic screening model
        iter                  A_solv                     rms
   LPB:       -0.391905503676815E+00   0.230670241050726E+00
   LPB:    0  -0.391900951171145E+00   0.227003123945097E+00  -0.505470E-03   0.000000E+00   0.356361E+02  -0.180130E-01
   LPB:    1  -0.391708146697903E+00   0.304283623116051E-01   0.100800E-01   0.000000E+00   0.729624E+02   0.145708E-17
   LPB:    2  -0.391687458581535E+00   0.747574965967649E-02   0.131538E-01   0.822270E-01   0.206235E+03  -0.115924E-15
   LPB:    3  -0.391683718743978E+00   0.285019190941151E-02   0.266363E-01   0.892709E-01   0.114479E+03  -0.104770E-15
   LPB:    4  -0.391679691575260E+00   0.220340700044676E-02   0.488753E-01   0.586854E+00   0.921585E+02  -0.950589E-16
  Finished solving LPB equations
  A_corr:   -0.305886307504102     
 End minimization
 Ecorr=   2922.36904497578     
 A_corr= -0.305886307504102     
 Ecorr_band=  -2922.67493128328     
 End Solvation calculations
RMM:  42    -0.243921873577E+03    0.33184E-03   -0.16837E-05  3369   0.567E-03    0.384E-01
 Begin Solvation calculations
  rms_SCF =   0.198291785829842      tol =   1.982917858298421E-002
 Begin minimization
 Creating dielectric and ionic cavities
  area:      163.436739187623     
  volume:    772.536387449380     
  Acav:     8.580428807350202E-002
  Solving linear dielectric/ionic screening model
        iter                  A_solv                     rms
   LPB:       -0.396435698523402E+00   0.844611043680847E+00
   LPB:    0  -0.396364375916736E+00   0.828499407010142E+00  -0.200081E-02   0.000000E+00   0.356324E+02  -0.712937E-01
   LPB:    1  -0.393771820545143E+00   0.114683602563134E+00   0.102324E-01   0.000000E+00   0.713991E+02   0.215912E-17
   LPB:    2  -0.393476832402495E+00   0.249486094009746E-01   0.131453E-01   0.885688E-01   0.210916E+03   0.364571E-15
   LPB:    3  -0.393443160531953E+00   0.639286000646467E-02   0.196633E-01   0.763092E-01   0.185536E+03   0.285244E-15
   LPB:    4  -0.393432380747188E+00   0.410677025649203E-02   0.301777E-01   0.208600E+00   0.210088E+03   0.295902E-15
  Finished solving LPB equations
  A_corr:   -0.307628092673686     
 End minimization
 Ecorr=   2921.78173041081     
 A_corr= -0.307628092673686     
 Ecorr_band=  -2922.08935850349     
 End Solvation calculations
RMM:  43    -0.243920924359E+03    0.94922E-03   -0.36425E-04  4676   0.188E-02    0.143E-01
 Begin Solvation calculations
  rms_SCF =   0.198291785829842      tol =   1.982917858298421E-002
 Begin minimization
 Creating dielectric and ionic cavities
  area:      163.445184743674     
  volume:    772.549573919634     
  Acav:     8.580872199042883E-002
  Solving linear dielectric/ionic screening model
        iter                  A_solv                     rms
   LPB:       -0.393759217735177E+00   0.579591430541507E-01
   LPB:    0  -0.393754386533361E+00   0.376231210322022E-01  -0.520743E-03   0.000000E+00   0.356318E+02  -0.185550E-01
   LPB:    1  -0.393735367003889E+00   0.564094041932009E-02   0.135655E-01   0.000000E+00   0.103303E+03  -0.520025E-18
   LPB:    2  -0.393732475598897E+00   0.979062772576228E-02   0.266117E-01   0.774946E-01   0.229329E+03   0.472252E-16
   LPB:    3  -0.393728960141000E+00   0.985014036816073E-02   0.313750E-01   0.103124E+01   0.641314E+02   0.489183E-16
   LPB:    4  -0.393725231698840E+00   0.688866672620889E-02   0.277219E-01   0.120035E+01   0.104158E+03   0.798583E-16
  Finished solving LPB equations
  A_corr:   -0.307916509708411     
 End minimization
 Ecorr=   2921.27397182463     
 A_corr= -0.307916509708411     
 Ecorr_band=  -2921.58188833434     
 End Solvation calculations
RMM:  44    -0.243920810457E+03    0.11390E-03   -0.25008E-05  3538   0.883E-03    0.608E-02
 Begin Solvation calculations
  rms_SCF =   9.112777157879424E-002 tol =   9.112777157879424E-003
 Begin minimization
 Creating dielectric and ionic cavities
  area:      163.444932626221     
  volume:    772.537029370086     
  Acav:     8.580858962876578E-002
  Solving linear dielectric/ionic screening model
        iter                  A_solv                     rms
   LPB:       -0.393671138679607E+00   0.176907786103786E+00
   LPB:    0  -0.393671137153092E+00   0.176907964309492E+00  -0.925642E-05   0.000000E+00   0.356324E+02  -0.329828E-03
   LPB:    1  -0.393558356073859E+00   0.230875438302227E-01   0.100834E-01   0.000000E+00   0.708861E+02   0.842161E-20
   LPB:    2  -0.393543508591826E+00   0.468402132084165E-02   0.141290E-01   0.939530E-01   0.222185E+03  -0.442754E-17
   LPB:    3  -0.393541018087871E+00   0.212943629570320E-02   0.247411E-01   0.957914E-01   0.223941E+03  -0.474106E-17
   LPB:    4  -0.393539712202189E+00   0.139777750427238E-02   0.346772E-01   0.374105E+00   0.867275E+03  -0.328341E-16
  Finished solving LPB equations
  A_corr:   -0.307731122573423     
 End minimization
 Ecorr=   2921.32894502220     
 A_corr= -0.307731122573423     
 Ecorr_band=  -2921.63667614477     
 End Solvation calculations
RMM:  45    -0.243920797784E+03    0.12673E-04   -0.12755E-05  3066   0.481E-03    0.310E-02
 Begin Solvation calculations
  rms_SCF =   4.491708316896838E-002 tol =   4.491708316896838E-003
 Begin minimization
 Creating dielectric and ionic cavities
  area:      163.445927946733     
  volume:    772.527885973811     
  Acav:     8.580911217203466E-002
  Solving linear dielectric/ionic screening model
        iter                  A_solv                     rms
   LPB:       -0.393627329764530E+00   0.505928183434802E-01
   LPB:    0  -0.393625699236380E+00   0.427931690181181E-01  -0.302520E-03   0.000000E+00   0.356328E+02  -0.107796E-01
   LPB:    1  -0.393614377749965E+00   0.809349444705217E-02   0.118943E-01   0.000000E+00   0.765709E+02   0.275345E-18
   LPB:    2  -0.393613183568919E+00   0.279056643044407E-02   0.125495E-01   0.999717E-01   0.307530E+03  -0.106705E-15
   LPB:    3  -0.393612631931430E+00   0.349589005957848E-02   0.318475E-01   0.182027E+00   0.170361E+03  -0.116385E-15
   LPB:    4  -0.393612055530418E+00   0.300845441904574E-02   0.383595E-01   0.867508E+00   0.834927E+02  -0.120095E-15
  Finished solving LPB equations
  A_corr:   -0.307802943358383     
 End minimization
 Ecorr=   2921.15348160580     
 A_corr= -0.307802943358383     
 Ecorr_band=  -2921.46128454916     
 End Solvation calculations
RMM:  46    -0.243920839498E+03   -0.41714E-04   -0.46661E-06  2393   0.289E-03    0.471E-02
 Begin Solvation calculations
  rms_SCF =   4.491708316896838E-002 tol =   4.491708316896838E-003
 Begin minimization
 Creating dielectric and ionic cavities
  area:      163.449681418566     
  volume:    772.524909864724     
  Acav:     8.581108274474714E-002
  Solving linear dielectric/ionic screening model
        iter                  A_solv                     rms
   LPB:       -0.393892783958386E+00   0.590900087825504E-01
   LPB:    0  -0.393889218112449E+00   0.448627709473840E-01  -0.447374E-03   0.000000E+00   0.356329E+02  -0.159412E-01
   LPB:    1  -0.393877051949604E+00   0.857245373266466E-02   0.110364E-01   0.000000E+00   0.809291E+02  -0.532881E-18
   LPB:    2  -0.393876049122533E+00   0.282317821834079E-02   0.121506E-01   0.748694E-01   0.156541E+03  -0.102431E-15
   LPB:    3  -0.393875779106245E+00   0.130686432492149E-02   0.234055E-01   0.139780E+00   0.109516E+03  -0.122808E-15
   LPB:    4  -0.393875465269796E+00   0.216652621410150E-02   0.535928E-01   0.507604E+00   0.542946E+02  -0.127974E-15
  Finished solving LPB equations
  A_corr:   -0.308064382525049     
 End minimization
 Ecorr=   2920.96144030804     
 A_corr= -0.308064382525049     
 Ecorr_band=  -2921.26950469056     
 End Solvation calculations
RMM:  47    -0.243920870510E+03   -0.31012E-04   -0.30809E-06  2435   0.212E-03    0.452E-02
 Begin Solvation calculations
  rms_SCF =   4.491708316896838E-002 tol =   4.491708316896838E-003
 Begin minimization
 Creating dielectric and ionic cavities
  area:      163.464341147526     
  volume:    772.538034565061     
  Acav:     8.581877910245118E-002
  Solving linear dielectric/ionic screening model
        iter                  A_solv                     rms
   LPB:       -0.395349925656165E+00   0.324143648019467E+00
   LPB:    0  -0.395326844914910E+00   0.307915092344910E+00  -0.113820E-02   0.000000E+00   0.356323E+02  -0.405566E-01
   LPB:    1  -0.394957811908664E+00   0.444111886391836E-01   0.102632E-01   0.000000E+00   0.712638E+02   0.665076E-18
   LPB:    2  -0.394915799180635E+00   0.989667874125791E-02   0.132101E-01   0.884489E-01   0.189000E+03  -0.708814E-15
   LPB:    3  -0.394910857260396E+00   0.350862950973222E-02   0.188631E-01   0.823773E-01   0.202286E+03  -0.806066E-15
   LPB:    4  -0.394909385168153E+00   0.276708126632111E-02   0.282046E-01   0.199220E+00   0.133930E+03  -0.829726E-15
  Finished solving LPB equations
  A_corr:   -0.309090606065702     
 End minimization
 Ecorr=   2920.51861579003     
 A_corr= -0.309090606065702     
 Ecorr_band=  -2920.82770639609     
 End Solvation calculations
RMM:  48    -0.243920933912E+03   -0.63402E-04   -0.23917E-05  3190   0.469E-03    0.695E-02
 Begin Solvation calculations
  rms_SCF =   4.491708316896838E-002 tol =   4.491708316896838E-003
 Begin minimization
 Creating dielectric and ionic cavities
  area:      163.468418898529     
  volume:    772.536500201866     
  Acav:     8.582091992172759E-002
  Solving linear dielectric/ionic screening model
        iter                  A_solv                     rms
   LPB:       -0.395144222057911E+00   0.525470847314571E-01
   LPB:    0  -0.395142345110175E+00   0.436964947873915E-01  -0.324578E-03   0.000000E+00   0.356324E+02  -0.115655E-01
   LPB:    1  -0.395133001861743E+00   0.786001016983966E-02   0.105037E-01   0.000000E+00   0.759565E+02  -0.495503E-18
   LPB:    2  -0.395132010325665E+00   0.258964844958788E-02   0.135108E-01   0.825033E-01   0.126770E+03  -0.128858E-15
   LPB:    3  -0.395131417362160E+00   0.230854411201272E-02   0.385921E-01   0.209364E+00   0.717293E+02  -0.118188E-15
   LPB:    4  -0.395130721423818E+00   0.256770258570656E-02   0.396480E-01   0.114241E+01   0.469729E+02  -0.111940E-15
  Finished solving LPB equations
  A_corr:   -0.309309801502090     
 End minimization
 Ecorr=   2920.21260100168     
 A_corr= -0.309309801502090     
 Ecorr_band=  -2920.52191080319     
 End Solvation calculations
RMM:  49    -0.243920937093E+03   -0.31808E-05   -0.38762E-06  2219   0.275E-03
 Begin Solvation calculations
  rms_SCF =   4.491708316896838E-002 tol =   4.491708316896838E-003
 Begin minimization
 Creating dielectric and ionic cavities
  area:      163.468085666784     
  volume:    772.523931438601     
  Acav:     8.582074497506167E-002
  Solving linear dielectric/ionic screening model
        iter                  A_solv                     rms
   LPB:       -0.395117824962191E+00   0.901777545588168E-01
   LPB:    0  -0.395117215271916E+00   0.884928185645786E-01  -0.184988E-03   0.000000E+00   0.356330E+02  -0.659167E-02
   LPB:    1  -0.395081659423439E+00   0.150943782560451E-01   0.113690E-01   0.000000E+00   0.690320E+02  -0.463931E-18
   LPB:    2  -0.395077048148070E+00   0.406219143911788E-02   0.128026E-01   0.115169E+00   0.285993E+03   0.541322E-16
   LPB:    3  -0.395076164160610E+00   0.202091638837755E-02   0.218560E-01   0.112293E+00   0.172218E+03   0.621080E-16
   LPB:    4  -0.395075835356219E+00   0.120359923543569E-02   0.294104E-01   0.276415E+00   0.225146E+03   0.556698E-16
  Finished solving LPB equations
  A_corr:   -0.309255090381157     
 End minimization
 Ecorr=   2920.14036648224     
 A_corr= -0.309255090381157     
 Ecorr_band=  -2920.44962157263     
 End Solvation calculations
   1 F= -.24392094E+03 E0= -.24391319E+03  d E =-.243921E+03
quench:  g(F)=  0.000E+00 g(S)=  0.000E+00 dE (1.order)= 0.000E+00
 bond charge predicted
       N       E                     dE             d eps       ncg     rms          rms(c)
 Begin Solvation calculations
  rms_SCF =   4.491708316896838E-002 tol =   4.491708316896838E-003
 Begin minimization
 Creating dielectric and ionic cavities
  area:      163.552667040748     
  volume:    772.572565808179     
  Acav:     8.586515019639290E-002
  Solving linear dielectric/ionic screening model
        iter                  A_solv                     rms
   LPB:       -0.403612923202712E+00   0.840846749427687E-02
   LPB:    0  -0.403612923045904E+00   0.842053814421443E-02   0.296679E-05   0.000000E+00   0.356307E+02   0.105709E-03
   LPB:    1  -0.396002185765592E+00   0.275902182580326E-02   0.155579E-01   0.000000E+00   0.872656E+06  -0.422162E-20
   LPB:    2  -0.395255349565337E+00   0.196452858165331E-02   0.273377E-01   0.558455E-01   0.246619E+06   0.566025E-17
   LPB:    3  -0.395011821071056E+00   0.237374896689832E-02   0.329382E-01   0.270637E+00   0.851250E+05   0.238143E-17
   LPB:    4  -0.394908490015641E+00   0.571226232165919E-02   0.350716E-01   0.398497E+00   0.353586E+05   0.640934E-17
   LPB:    5  -0.394859171248475E+00   0.131340369649791E-01   0.359231E-01   0.465975E+00   0.233588E+04   0.989603E-17
   LPB:    6  -0.394835915559352E+00   0.253895268019215E-01   0.304114E-01   0.556999E+00   0.392199E+03   0.162026E-17
   LPB:    7  -0.394823488716672E+00   0.157142676866698E-01   0.201117E-01   0.808017E+00   0.186729E+03   0.274078E-16
   LPB:    8  -0.394812968814757E+00   0.113375906706729E-01   0.289673E-01   0.587748E+00   0.525166E+03   0.410883E-16
   LPB:    9  -0.394807005089837E+00   0.116194031623871E-01   0.259344E-01   0.633195E+00   0.243607E+03   0.427030E-16
   LPB:   10  -0.394802707292941E+00   0.499691179184433E-02   0.255166E-01   0.732457E+00   0.239474E+03   0.496002E-16
   LPB:   11  -0.394799205427073E+00   0.202134048205040E-02   0.371380E-01   0.559832E+00   0.145709E+04   0.117251E-15
  Finished solving LPB equations
  A_corr:   -0.308934055230680     
 End minimization
 Ecorr=   2919.99378892676     
 A_corr= -0.308934055230680     
 Ecorr_band=  -2920.30272298199     
 End Solvation calculations
DAV:   1    -0.243925616479E+03   -0.46826E-02   -0.71092E-01  5526   0.138E+00    0.314E-01
 Begin Solvation calculations
  rms_SCF =   4.491708316896838E-002 tol =   4.491708316896838E-003
 Begin minimization
 Creating dielectric and ionic cavities
  area:      163.486430126143     
  volume:    772.333055973930     
  Acav:     8.583037581622525E-002
  Solving linear dielectric/ionic screening model
        iter                  A_solv                     rms
   LPB:       -0.402873464028240E+00   0.904000928784197E+00
   LPB:    0  -0.402454110602139E+00   0.819401911167049E+00  -0.485092E-02   0.000000E+00   0.356419E+02  -0.172896E+00
   LPB:    1  -0.399348221275036E+00   0.123778636626343E+00   0.101045E-01   0.000000E+00   0.877748E+02   0.516469E-17
   LPB:    2  -0.398977086668154E+00   0.219909589101532E-01   0.138143E-01   0.874040E-01   0.329347E+03   0.573464E-15
   LPB:    3  -0.398901589149235E+00   0.223043212092465E-01   0.251127E-01   0.111902E+00   0.669413E+03   0.618923E-15
   LPB:    4  -0.398878635904711E+00   0.173721055654486E-01   0.222731E-01   0.342787E+00   0.155533E+03   0.611220E-15
   LPB:    5  -0.398866177242043E+00   0.831502807528894E-02   0.245166E-01   0.493116E+00   0.353503E+03   0.612069E-15
   LPB:    6  -0.398859291516941E+00   0.391582853751673E-02   0.309619E-01   0.437633E+00   0.301663E+03   0.495938E-15
  Finished solving LPB equations
  A_corr:   -0.313028915700716     
 End minimization
 Ecorr=   2919.74318599855     
 A_corr= -0.313028915700716     
 Ecorr_band=  -2920.05621491425     
 End Solvation calculations
RMM:   2    -0.243934153283E+03   -0.85368E-02   -0.43837E-02  5442   0.295E-01    0.928E-01
 Begin Solvation calculations
  rms_SCF =   4.491708316896838E-002 tol =   4.491708316896838E-003
 Begin minimization
 Creating dielectric and ionic cavities
  area:      163.467656517509     
  volume:    772.340925657557     
  Acav:     8.582051967169213E-002
  Solving linear dielectric/ionic screening model
        iter                  A_solv                     rms
   LPB:       -0.400651932317898E+00   0.664803162859340E+00
   LPB:    0  -0.400650775894957E+00   0.664409352757666E+00  -0.254739E-03   0.000000E+00   0.356416E+02  -0.907929E-02
   LPB:    1  -0.399268820021640E+00   0.654215622150589E-01   0.887805E-02   0.000000E+00   0.793960E+02  -0.109886E-18
   LPB:    2  -0.399146166647290E+00   0.104881435903442E-01   0.163576E-01   0.481708E-01   0.140399E+03  -0.544519E-16
   LPB:    3  -0.399131690471220E+00   0.530503558914677E-02   0.233534E-01   0.826690E-01   0.255935E+03  -0.311235E-16
   LPB:    4  -0.399126784826153E+00   0.391667928155841E-02   0.287484E-01   0.275283E+00   0.365408E+03  -0.374036E-16
  Finished solving LPB equations
  A_corr:   -0.313306265154461     
 End minimization
 Ecorr=   2919.57246745447     
 A_corr= -0.313306265154461     
 Ecorr_band=  -2919.88577371963     
 End Solvation calculations
RMM:   3    -0.243929036483E+03    0.51168E-02   -0.24558E-03  5481   0.747E-02    0.470E-01
 Begin Solvation calculations
  rms_SCF =   4.491708316896838E-002 tol =   4.491708316896838E-003
 Begin minimization
 Creating dielectric and ionic cavities
  area:      163.486228085970     
  volume:    772.386201103709     
  Acav:     8.583026974513445E-002
  Solving linear dielectric/ionic screening model
        iter                  A_solv                     rms
   LPB:       -0.399643384498131E+00   0.439268748795769E+00
   LPB:    0  -0.399640903325857E+00   0.438496742524963E+00   0.373145E-03   0.000000E+00   0.356394E+02   0.132987E-01
   LPB:    1  -0.399020655760427E+00   0.402204351112208E-01   0.895195E-02   0.000000E+00   0.804575E+02   0.778067E-18
   LPB:    2  -0.398968901505267E+00   0.628520675827234E-02   0.154597E-01   0.483166E-01   0.180170E+03   0.227038E-16
   LPB:    3  -0.398962080051295E+00   0.244198548027155E-02   0.225683E-01   0.902890E-01   0.404775E+03   0.211131E-16
   LPB:    4  -0.398960043303868E+00   0.245397299539832E-02   0.299134E-01   0.225264E+00   0.919874E+03   0.196968E-16
  Finished solving LPB equations
  A_corr:   -0.313129773558734     
 End minimization
 Ecorr=   2919.38508709971     
 A_corr= -0.313129773558734     
 Ecorr_band=  -2919.69821687327     
 End Solvation calculations
RMM:   4    -0.243929118346E+03   -0.81863E-04   -0.21296E-03  5405   0.707E-02    0.484E-01
 Begin Solvation calculations
  rms_SCF =   4.491708316896838E-002 tol =   4.491708316896838E-003
 Begin minimization
 Creating dielectric and ionic cavities
  area:      163.483761562578     
  volume:    772.381969835929     
  Acav:     8.582897482035348E-002
  Solving linear dielectric/ionic screening model
        iter                  A_solv                     rms
   LPB:       -0.401261396819157E+00   0.181030745158465E+00
   LPB:    0  -0.401210879931614E+00   0.113984722977143E+00  -0.168371E-02   0.000000E+00   0.356396E+02  -0.600067E-01
   LPB:    1  -0.401037625336487E+00   0.390124153199889E-01   0.144867E-01   0.000000E+00   0.957038E+02   0.132993E-17
   LPB:    2  -0.401013717254740E+00   0.168510940875367E-01   0.132097E-01   0.151334E+00   0.256398E+03  -0.271487E-15
   LPB:    3  -0.401006500454627E+00   0.111259037150727E-01   0.213392E-01   0.186858E+00   0.154320E+03  -0.263582E-15
   LPB:    4  -0.401003709569934E+00   0.628134955683382E-02   0.226379E-01   0.364536E+00   0.109572E+03  -0.262394E-15
   LPB:    5  -0.401001776461945E+00   0.318699994957172E-02   0.266969E-01   0.587339E+00   0.429134E+03  -0.244120E-15
  Finished solving LPB equations
  A_corr:   -0.315172801641591     
 End minimization
 Ecorr=   2918.98392862455     
 A_corr= -0.315172801641591     
 Ecorr_band=  -2919.29910142619     
 End Solvation calculations
RMM:   5    -0.243927898765E+03    0.12196E-02   -0.17615E-03  5440   0.616E-02    0.318E-01
 Begin Solvation calculations
  rms_SCF =   4.491708316896838E-002 tol =   4.491708316896838E-003
 Begin minimization
 Creating dielectric and ionic cavities
  area:      163.475775749700     
  volume:    772.360054338083     
  Acav:     8.582478226859264E-002
  Solving linear dielectric/ionic screening model
        iter                  A_solv                     rms
   LPB:       -0.403455073627787E+00   0.212682879146292E+00
   LPB:    0  -0.403383802549384E+00   0.135345609896708E+00  -0.199986E-02   0.000000E+00   0.356407E+02  -0.712762E-01
   LPB:    1  -0.403121723840245E+00   0.551577743925149E-01   0.137946E-01   0.000000E+00   0.117110E+03   0.118949E-17
   LPB:    2  -0.403093338477982E+00   0.143776361762084E-01   0.132186E-01   0.113028E+00   0.143629E+03   0.314433E-15
   LPB:    3  -0.403083237322620E+00   0.884131503916943E-02   0.217057E-01   0.216716E+00   0.365216E+03   0.333547E-15
   LPB:    4  -0.403078856818381E+00   0.889945337076749E-02   0.248111E-01   0.379384E+00   0.119678E+03   0.343811E-15
   LPB:    5  -0.403075946631919E+00   0.550326104398977E-02   0.252986E-01   0.651548E+00   0.302122E+03   0.392519E-15
   LPB:    6  -0.403073866199944E+00   0.221951569238001E-02   0.340415E-01   0.531277E+00   0.134738E+03   0.466072E-15
  Finished solving LPB equations
  A_corr:   -0.317249083931351     
 End minimization
 Ecorr=   2918.43090383528     
 A_corr= -0.317249083931351     
 Ecorr_band=  -2918.74815291921     
 End Solvation calculations
RMM:   6    -0.243928165007E+03   -0.26624E-03   -0.11672E-03  5395   0.546E-02    0.380E-01
 Begin Solvation calculations
  rms_SCF =   4.491708316896838E-002 tol =   4.491708316896838E-003
 Begin minimization
 Creating dielectric and ionic cavities
  area:      163.467442665598     
  volume:    772.387171162151     
  Acav:     8.582040739943918E-002
  Solving linear dielectric/ionic screening model
        iter                  A_solv                     rms
   LPB:       -0.406478521125960E+00   0.237820061591088E+00
   LPB:    0  -0.406402344431428E+00   0.157479136718740E+00  -0.206757E-02   0.000000E+00   0.356394E+02  -0.736871E-01
   LPB:    1  -0.405907197066490E+00   0.697836221046570E-01   0.147098E-01   0.000000E+00   0.141769E+03  -0.983960E-18
   LPB:    2  -0.405863271611378E+00   0.226602511755933E-01   0.136264E-01   0.957650E-01   0.115909E+03   0.745474E-15
   LPB:    3  -0.405847824788390E+00   0.831030956784590E-02   0.189353E-01   0.253065E+00   0.334655E+03   0.802211E-15
   LPB:    4  -0.405841858807487E+00   0.857744496858901E-02   0.261216E-01   0.279972E+00   0.157837E+03   0.759793E-15
   LPB:    5  -0.405838547835364E+00   0.749779558859528E-02   0.245003E-01   0.591700E+00   0.313172E+03   0.813290E-15
   LPB:    6  -0.405836022119144E+00   0.319072060379473E-02   0.310833E-01   0.601276E+00   0.976360E+02   0.830011E-15
  Finished solving LPB equations
  A_corr:   -0.320015614719704     
 End minimization
 Ecorr=   2917.45821585420     
 A_corr= -0.320015614719704     
 Ecorr_band=  -2917.77823146892     
 End Solvation calculations
RMM:   7    -0.243927171283E+03    0.99372E-03   -0.80928E-04  5380   0.460E-02    0.162E-01
 Begin Solvation calculations
  rms_SCF =   4.491708316896838E-002 tol =   4.491708316896838E-003
 Begin minimization
 Creating dielectric and ionic cavities
  area:      163.478334306840     
  volume:    772.403147570273     
  Acav:     8.582612551109083E-002
  Solving linear dielectric/ionic screening model
        iter                  A_solv                     rms
   LPB:       -0.407084073490671E+00   0.108132960357840E+00
   LPB:    0  -0.407065685916819E+00   0.649275192174496E-01  -0.101582E-02   0.000000E+00   0.356386E+02  -0.362024E-01
   LPB:    1  -0.406984846427819E+00   0.264712238879033E-01   0.149097E-01   0.000000E+00   0.121784E+03   0.339956E-17
   LPB:    2  -0.406977518241104E+00   0.962049163987484E-02   0.145212E-01   0.930765E-01   0.112743E+03   0.303338E-15
   LPB:    3  -0.406975050144483E+00   0.443470752899633E-02   0.189507E-01   0.258073E+00   0.253127E+03   0.331941E-15
   LPB:    4  -0.406973513797734E+00   0.548480883958961E-02   0.300601E-01   0.392430E+00   0.103091E+03   0.330749E-15
   LPB:    5  -0.406972117579130E+00   0.507057995757698E-02   0.290214E-01   0.941316E+00   0.230172E+03   0.330150E-15
   LPB:    6  -0.406970860983780E+00   0.227871634059748E-02   0.324069E-01   0.805977E+00   0.735084E+02   0.360995E-15
  Finished solving LPB equations
  A_corr:   -0.321144735472689     
 End minimization
 Ecorr=   2916.91451384606     
 A_corr= -0.321144735472689     
 Ecorr_band=  -2917.23565858153     
 End Solvation calculations
RMM:   8    -0.243927104552E+03    0.66731E-04   -0.34359E-04  4847   0.292E-02    0.140E-01
 Begin Solvation calculations
  rms_SCF =   4.491708316896838E-002 tol =   4.491708316896838E-003
 Begin minimization
 Creating dielectric and ionic cavities
  area:      163.496296373272     
  volume:    772.431042944107     
  Acav:     8.583555559596755E-002
  Solving linear dielectric/ionic screening model
        iter                  A_solv                     rms
   LPB:       -0.408313492560852E+00   0.109788495741190E+00
   LPB:    0  -0.408295855109945E+00   0.667929833484066E-01  -0.994902E-03   0.000000E+00   0.356373E+02  -0.354557E-01
   LPB:    1  -0.408216150780713E+00   0.257654946186075E-01   0.148074E-01   0.000000E+00   0.111719E+03  -0.176675E-17
   LPB:    2  -0.408209414946316E+00   0.864096361539378E-02   0.142214E-01   0.879922E-01   0.110241E+03   0.356664E-16
   LPB:    3  -0.408207529398513E+00   0.397629662424538E-02   0.177303E-01   0.224529E+00   0.253571E+03   0.550743E-16
   LPB:    4  -0.408206667515103E+00   0.380987081377558E-02   0.253087E-01   0.320226E+00   0.102091E+03   0.495741E-16
  Finished solving LPB equations
  A_corr:   -0.322371111919136     
 End minimization
 Ecorr=   2916.50879411171     
 A_corr= -0.322371111919136     
 Ecorr_band=  -2916.83116522362     
 End Solvation calculations
RMM:   9    -0.243927008159E+03    0.96393E-04   -0.14982E-04  4776   0.192E-02    0.767E-02
 Begin Solvation calculations
  rms_SCF =   4.491708316896838E-002 tol =   4.491708316896838E-003
 Begin minimization
 Creating dielectric and ionic cavities
  area:      163.511063064613     
  volume:    772.451127357463     
  Acav:     8.584330810892191E-002
  Solving linear dielectric/ionic screening model
        iter                  A_solv                     rms
   LPB:       -0.408902937509586E+00   0.531285024261771E-01
   LPB:    0  -0.408899655206154E+00   0.363486184216774E-01  -0.429198E-03   0.000000E+00   0.356364E+02  -0.152951E-01
   LPB:    1  -0.408879976365745E+00   0.179352169846019E-01   0.136274E-01   0.000000E+00   0.118700E+03   0.451873E-18
   LPB:    2  -0.408877791256641E+00   0.398735544087295E-02   0.128182E-01   0.118048E+00   0.878632E+02  -0.188967E-15
   LPB:    3  -0.408876746120783E+00   0.273753827646382E-02   0.270744E-01   0.226448E+00   0.178036E+03  -0.208577E-15
   LPB:    4  -0.408875880486000E+00   0.322688505243273E-02   0.363764E-01   0.616453E+00   0.631215E+02  -0.220011E-15
  Finished solving LPB equations
  A_corr:   -0.323032572377078     
 End minimization
 Ecorr=   2916.14992208103     
 A_corr= -0.323032572377078     
 Ecorr_band=  -2916.47295465341     
 End Solvation calculations
[...]
 Begin Solvation calculations
  rms_SCF =   2.678577197670911E-003 tol =   2.678577197670911E-004
 Begin minimization
 Creating dielectric and ionic cavities
  area:      164.237062442018     
  volume:    772.904307535575     
  Acav:     8.622445778205955E-002
  Solving linear dielectric/ionic screening model
        iter                  A_solv                     rms
   LPB:       -0.468296090202204E+00   0.100404374930147E-01
   LPB:    0  -0.468295967929972E+00   0.803686549552500E-02  -0.828632E-04   0.000000E+00   0.356151E+02  -0.295118E-02
   LPB:    1  -0.468295574147692E+00   0.198247451037212E-02   0.111457E-01   0.000000E+00   0.918231E+02   0.176757E-19
   LPB:    2  -0.468295450412386E+00   0.701631125237717E-03   0.193568E-01   0.180930E+00   0.445920E+03   0.409896E-17
   LPB:    3  -0.468295411991223E+00   0.741574569452469E-03   0.239207E-01   0.251268E+00   0.288880E+03   0.307967E-17
   LPB:    4  -0.468295390444059E+00   0.571692888524019E-03   0.251295E-01   0.533838E+00   0.196879E+03   0.194808E-17
   LPB:    5  -0.468295373794546E+00   0.320475413417225E-03   0.318053E-01   0.610512E+00   0.294630E+03  -0.193936E-18
   LPB:    6  -0.468295360137313E+00   0.154391713631046E-03   0.366384E-01   0.712074E+00   0.670170E+03   0.755603E-17
  Finished solving LPB equations
  A_corr:   -0.382070902355253     
 End minimization
 Ecorr=   2893.10330461213     
 A_corr= -0.382070902355253     
 Ecorr_band=  -2893.48537551449     
 End Solvation calculations
RMM:   2    -0.243903391505E+03   -0.43945E-04   -0.30936E-04  4724   0.305E-02    0.468E-02
 Begin Solvation calculations
  rms_SCF =   2.678577197670911E-003 tol =   2.678577197670911E-004
 Begin minimization
 Creating dielectric and ionic cavities
  area:      164.236596000235     
  volume:    772.910207964099     
  Acav:     8.622421290012312E-002
  Solving linear dielectric/ionic screening model
        iter                  A_solv                     rms
   LPB:       -0.468299477909899E+00   0.251117022083651E-01
   LPB:    0  -0.468299296984070E+00   0.239909940479404E-01   0.100797E-03   0.000000E+00   0.356149E+02   0.358989E-02
   LPB:    1  -0.468297423536053E+00   0.238747041971645E-02   0.901019E-02   0.000000E+00   0.791466E+02   0.134919E-18
   LPB:    2  -0.468297228678341E+00   0.485937072489403E-03   0.168875E-01   0.554939E-01   0.155301E+03   0.125868E-17
   LPB:    3  -0.468297196567826E+00   0.439119303976715E-03   0.242015E-01   0.114988E+00   0.345257E+03   0.141250E-17
   LPB:    4  -0.468297183806475E+00   0.437628563860175E-03   0.243974E-01   0.394228E+00   0.234919E+03   0.217240E-17
   LPB:    5  -0.468297176715605E+00   0.264494223020974E-03   0.259601E-01   0.522204E+00   0.158519E+03   0.586344E-17
  Finished solving LPB equations
  A_corr:   -0.382072963815481     
 End minimization
 Ecorr=   2893.07613648519     
 A_corr= -0.382072963815481     
 Ecorr_band=  -2893.45820944900     
 End Solvation calculations
RMM:   3    -0.243903378819E+03    0.12686E-04   -0.25208E-05  3411   0.950E-03    0.418E-02
 Begin Solvation calculations
  rms_SCF =   2.678577197670911E-003 tol =   2.678577197670911E-004
 Begin minimization
 Creating dielectric and ionic cavities
  area:      164.234666362892     
  volume:    772.910472607068     
  Acav:     8.622319984051850E-002
  Solving linear dielectric/ionic screening model
        iter                  A_solv                     rms
   LPB:       -0.468357287975889E+00   0.477937112880013E-01
   LPB:    0  -0.468357280347669E+00   0.477592894433616E-01  -0.206972E-04   0.000000E+00   0.356149E+02  -0.737127E-03
   LPB:    1  -0.468350139878991E+00   0.468405997942078E-02   0.888765E-02   0.000000E+00   0.792165E+02   0.376335E-19
   LPB:    2  -0.468349517770636E+00   0.767580230339490E-03   0.162352E-01   0.476945E-01   0.141458E+03   0.160293E-17
   LPB:    3  -0.468349444169930E+00   0.340025337960916E-03   0.222901E-01   0.861711E-01   0.270722E+03   0.453861E-17
   LPB:    4  -0.468349423691579E+00   0.187243467205670E-03   0.268575E-01   0.230919E+00   0.426290E+03   0.418184E-17
  Finished solving LPB equations
  A_corr:   -0.382126223851061     
 End minimization
 Ecorr=   2893.06720982060     
 A_corr= -0.382126223851061     
 Ecorr_band=  -2893.44933604445     
 End Solvation calculations
RMM:   4    -0.243903394057E+03   -0.15238E-04   -0.86230E-06  2910   0.526E-03    0.589E-02
 Begin Solvation calculations
  rms_SCF =   2.678577197670911E-003 tol =   2.678577197670911E-004
 Begin minimization
 Creating dielectric and ionic cavities
  area:      164.236341530497     
  volume:    772.909192608824     
  Acav:     8.622407930351081E-002
  Solving linear dielectric/ionic screening model
        iter                  A_solv                     rms
   LPB:       -0.468323899042702E+00   0.373445937124402E-01
   LPB:    0  -0.468323896869860E+00   0.373456045463607E-01  -0.110462E-04   0.000000E+00   0.356149E+02  -0.393410E-03
   LPB:    1  -0.468319494182577E+00   0.364675481866386E-02   0.892062E-02   0.000000E+00   0.793259E+02   0.630257E-20
   LPB:    2  -0.468319091133439E+00   0.640748840579799E-03   0.163596E-01   0.499185E-01   0.148519E+03  -0.299611E-17
   LPB:    3  -0.468319046357808E+00   0.312923230889618E-03   0.212250E-01   0.856266E-01   0.287481E+03  -0.402544E-17
   LPB:    4  -0.468319035135506E+00   0.224373053770389E-03   0.254345E-01   0.209153E+00   0.395330E+03  -0.354007E-17
  Finished solving LPB equations
  A_corr:   -0.382094955831995     
 End minimization
 Ecorr=   2893.08435914727     
 A_corr= -0.382094955831995     
 Ecorr_band=  -2893.46645410311     
 End Solvation calculations
RMM:   5    -0.243903369839E+03    0.24218E-04   -0.63107E-06  2878   0.473E-03    0.192E-02
 Begin Solvation calculations
  rms_SCF =   2.678577197670911E-003 tol =   2.678577197670911E-004
 Begin minimization
 Creating dielectric and ionic cavities
  area:      164.236473503166     
  volume:    772.907372515778     
  Acav:     8.622414858916207E-002
  Solving linear dielectric/ionic screening model
        iter                  A_solv                     rms
   LPB:       -0.468332593244614E+00   0.464001554778001E-02
   LPB:    0  -0.468332567915117E+00   0.387529170248253E-02  -0.377148E-04   0.000000E+00   0.356150E+02  -0.134321E-02
   LPB:    1  -0.468332499180367E+00   0.608577060467721E-03   0.100656E-01   0.000000E+00   0.871206E+02   0.280038E-19
   LPB:    2  -0.468332482498077E+00   0.237779417387733E-03   0.197249E-01   0.123852E+00   0.342212E+03  -0.305818E-17
   LPB:    3  -0.468332477546046E+00   0.226161550617738E-03   0.242037E-01   0.241913E+00   0.355657E+03  -0.363559E-17
   LPB:    4  -0.468332474103373E+00   0.255354273168244E-03   0.316490E-01   0.531661E+00   0.192501E+03  -0.429176E-17
  Finished solving LPB equations
  A_corr:   -0.382108325514211     
 End minimization
 Ecorr=   2893.09495892462     
 A_corr= -0.382108325514211     
 Ecorr_band=  -2893.47706725014     
 End Solvation calculations
RMM:   6    -0.243903368735E+03    0.11048E-05   -0.36959E-06  2832   0.360E-03
 Begin Solvation calculations
  rms_SCF =   2.678577197670911E-003 tol =   2.678577197670911E-004
 Begin minimization
 Creating dielectric and ionic cavities
  area:      164.236483276925     
  volume:    772.911109452178     
  Acav:     8.622415372038567E-002
  Solving linear dielectric/ionic screening model
        iter                  A_solv                     rms
   LPB:       -0.468339462286057E+00   0.460742160918729E-02
   LPB:    0  -0.468339426839069E+00   0.311435150852010E-02   0.446159E-04   0.000000E+00   0.356148E+02   0.158899E-02
   LPB:    1  -0.468339313202643E+00   0.126926502181939E-02   0.130139E-01   0.000000E+00   0.118415E+03  -0.692170E-20
   LPB:    2  -0.468339287496704E+00   0.428507275302838E-03   0.161497E-01   0.182289E+00   0.267533E+03   0.641565E-17
   LPB:    3  -0.468339279050838E+00   0.369716877715308E-03   0.216700E-01   0.244859E+00   0.238703E+03   0.731771E-17
   LPB:    4  -0.468339274558641E+00   0.256096776675433E-03   0.238527E-01   0.483210E+00   0.200905E+03   0.756362E-17
  Finished solving LPB equations
  A_corr:   -0.382115120838255     
 End minimization
 Ecorr=   2893.08595775550     
 A_corr= -0.382115120838255     
 Ecorr_band=  -2893.46807287633     
 End Solvation calculations
  33 F= -.24390337E+03 E0= -.24389500E+03  d E =0.568276E-03
quench:  g(F)=  0.000E+00 g(S)=  0.000E+00 dE (1.order)= 0.000E+00
 bond charge predicted
       N       E                     dE             d eps       ncg     rms          rms(c)
 Begin Solvation calculations
  rms_SCF =   2.678577197670911E-003 tol =   2.678577197670911E-004
 Begin minimization
 Creating dielectric and ionic cavities
  area:      164.242583144427     
  volume:    772.915341906230     
  Acav:     8.622735615082416E-002
  Solving linear dielectric/ionic screening model
        iter                  A_solv                     rms
   LPB:       -0.468481006350641E+00   0.127827136138341E-02
   LPB:    0  -0.468481006349593E+00   0.128050201235706E-02   0.242544E-06   0.000000E+00   0.356146E+02   0.863810E-05
   LPB:    1  -0.468336044644322E+00   0.511033062157321E-03   0.154049E-01   0.000000E+00   0.717711E+06  -0.621399E-21
   LPB:    2  -0.468322377853976E+00   0.515845509412049E-03   0.268962E-01   0.539984E-01   0.128752E+06  -0.149819E-17
   LPB:    3  -0.468317822370545E+00   0.100621785002259E-02   0.328277E-01   0.273097E+00   0.293067E+05   0.420404E-18
   LPB:    4  -0.468315826899590E+00   0.255472908435451E-02   0.357884E-01   0.401799E+00   0.344689E+04   0.881442E-17
   LPB:    5  -0.468314923100415E+00   0.506705067477706E-02   0.305133E-01   0.531227E+00   0.368296E+03   0.124041E-16
   LPB:    6  -0.468314444501704E+00   0.313399162282861E-02   0.197653E-01   0.817496E+00   0.198789E+03   0.645870E-17
   LPB:    7  -0.468314042652163E+00   0.200904879058272E-02   0.286212E-01   0.579839E+00   0.540053E+03   0.368328E-16
   LPB:    8  -0.468313814750118E+00   0.232616328642218E-02   0.276736E-01   0.586553E+00   0.229524E+03   0.657819E-16
   LPB:    9  -0.468313652812090E+00   0.100328162573265E-02   0.248468E-01   0.791401E+00   0.246061E+03   0.774350E-16
   LPB:   10  -0.468313528443819E+00   0.298308482686268E-03   0.355866E-01   0.536222E+00   0.109083E+04   0.899960E-16
   LPB:   11  -0.468313445341306E+00   0.168322082425749E-03   0.400524E-01   0.593693E+00   0.591963E+04   0.889313E-16
  Finished solving LPB equations
  A_corr:   -0.382086089190482     
 End minimization
 Ecorr=   2893.08300185461     
 A_corr= -0.382086089190482     
 Ecorr_band=  -2893.46508794380     
 End Solvation calculations
DAV:   1    -0.243902508297E+03    0.86154E-03   -0.14046E-02  5502   0.269E-01    0.361E-02
 Begin Solvation calculations
  rms_SCF =   2.678577197670911E-003 tol =   2.678577197670911E-004
 Begin minimization
 Creating dielectric and ionic cavities
  area:      164.237950236802     
  volume:    772.906179704707     
  Acav:     8.622492387432085E-002
  Solving linear dielectric/ionic screening model
        iter                  A_solv                     rms
   LPB:       -0.468287893379087E+00   0.299512273995149E-01
   LPB:    0  -0.468287538906016E+00   0.281325289583792E-01  -0.141088E-03   0.000000E+00   0.356151E+02  -0.502485E-02
   LPB:    1  -0.468284336162202E+00   0.390388886348514E-02   0.977497E-02   0.000000E+00   0.833935E+02   0.372851E-18
   LPB:    2  -0.468283654412704E+00   0.102639490594991E-02   0.188474E-01   0.110399E+00   0.249006E+03  -0.238276E-17
   LPB:    3  -0.468283496482532E+00   0.894042886558151E-03   0.274723E-01   0.158927E+00   0.532406E+03  -0.377754E-17
   LPB:    4  -0.468283431000716E+00   0.882791319314759E-03   0.250522E-01   0.454678E+00   0.302806E+03   0.104637E-18
   LPB:    5  -0.468283390141048E+00   0.731578737750491E-03   0.279497E-01   0.559298E+00   0.226197E+03  -0.555487E-17
   LPB:    6  -0.468283361244667E+00   0.392838349491634E-03   0.303464E-01   0.651356E+00   0.212440E+03  -0.492525E-17
   LPB:    7  -0.468283338737683E+00   0.184759875228351E-03   0.362276E-01   0.652440E+00   0.803471E+03  -0.240560E-17
  Finished solving LPB equations
  A_corr:   -0.382058414863362     
 End minimization
 Ecorr=   2893.10525934231     
 A_corr= -0.382058414863362     
 Ecorr_band=  -2893.48731775718     
 End Solvation calculations
RMM:   2    -0.243902678571E+03   -0.17027E-03   -0.86959E-04  5084   0.522E-02    0.117E-01
 Begin Solvation calculations
  rms_SCF =   2.678577197670911E-003 tol =   2.678577197670911E-004
 Begin minimization
 Creating dielectric and ionic cavities
  area:      164.239905806003     
  volume:    772.911299586320     
  Acav:     8.622595054815174E-002
  Solving linear dielectric/ionic screening model
        iter                  A_solv                     rms
   LPB:       -0.468358711539600E+00   0.688708141748425E-01
   LPB:    0  -0.468358595549657E+00   0.686202585753202E-01   0.807067E-04   0.000000E+00   0.356148E+02   0.287436E-02
   LPB:    1  -0.468343588277749E+00   0.664941104507227E-02   0.894902E-02   0.000000E+00   0.794984E+02   0.161537E-18
   LPB:    2  -0.468342165715796E+00   0.106661793821968E-02   0.164493E-01   0.515699E-01   0.156135E+03   0.870826E-17
   LPB:    3  -0.468341957128117E+00   0.495880399374538E-03   0.242561E-01   0.994363E-01   0.385155E+03   0.104499E-16
   LPB:    4  -0.468341878640908E+00   0.294450429754628E-03   0.298380E-01   0.305887E+00   0.532097E+03   0.843772E-17
   LPB:    5  -0.468341845584059E+00   0.320639357845766E-03   0.302780E-01   0.415055E+00   0.505056E+03   0.101097E-16
   LPB:    6  -0.468341828206789E+00   0.365116997649949E-03   0.319968E-01   0.497440E+00   0.361434E+03   0.103469E-16
   LPB:    7  -0.468341817872117E+00   0.400070199375304E-03   0.311595E-01   0.610703E+00   0.211207E+03   0.996955E-17
   LPB:    8  -0.468341810356177E+00   0.253983397226334E-03   0.278031E-01   0.815050E+00   0.269692E+03   0.116754E-16
  Finished solving LPB equations
  A_corr:   -0.382115859808025     
 End minimization
 Ecorr=   2893.08568668302     
 A_corr= -0.382115859808025     
 Ecorr_band=  -2893.46780254283     
 End Solvation calculations
RMM:   3    -0.243902589095E+03    0.89476E-04   -0.73443E-05  4532   0.149E-02    0.674E-02
 Begin Solvation calculations
  rms_SCF =   2.678577197670911E-003 tol =   2.678577197670911E-004
 Begin minimization
 Creating dielectric and ionic cavities
  area:      164.237469896510     
  volume:    772.910630105130     
  Acav:     8.622467169566791E-002
  Solving linear dielectric/ionic screening model
        iter                  A_solv                     rms
   LPB:       -0.468450209965572E+00   0.612841284310104E-01
   LPB:    0  -0.468450163862404E+00   0.611160459382946E-01  -0.508821E-04   0.000000E+00   0.356148E+02  -0.181216E-02
   LPB:    1  -0.468438469730143E+00   0.609612765190633E-02   0.889203E-02   0.000000E+00   0.790405E+02   0.900902E-20
   LPB:    2  -0.468437420449918E+00   0.920489779549730E-03   0.163896E-01   0.486806E-01   0.137228E+03  -0.201328E-17
   LPB:    3  -0.468437302440752E+00   0.376493747625007E-03   0.222934E-01   0.826832E-01   0.303110E+03  -0.364062E-17
   LPB:    4  -0.468437266372430E+00   0.183755175309224E-03   0.283668E-01   0.240202E+00   0.409637E+03  -0.972269E-18
  Finished solving LPB equations
  A_corr:   -0.382212594676762     
 End minimization
 Ecorr=   2893.06823803201     
 A_corr= -0.382212594676762     
 Ecorr_band=  -2893.45045062668     
 End Solvation calculations
RMM:   4    -0.243902572480E+03    0.16615E-04   -0.15978E-05  3123   0.719E-03    0.496E-02
 Begin Solvation calculations
  rms_SCF =   2.678577197670911E-003 tol =   2.678577197670911E-004
 Begin minimization
 Creating dielectric and ionic cavities
  area:      164.239024408463     
  volume:    772.908543260463     
  Acav:     8.622548781444281E-002
  Solving linear dielectric/ionic screening model
        iter                  A_solv                     rms
   LPB:       -0.468440874359673E+00   0.291540010102957E-01
   LPB:    0  -0.468440831432587E+00   0.289709654696219E-01  -0.490981E-04   0.000000E+00   0.356149E+02  -0.174863E-02
   LPB:    1  -0.468438098435262E+00   0.267421635537478E-02   0.900034E-02   0.000000E+00   0.803491E+02  -0.898047E-19
   LPB:    2  -0.468437845666135E+00   0.574092276340171E-03   0.159995E-01   0.520280E-01   0.185421E+03   0.652813E-18
   LPB:    3  -0.468437809773312E+00   0.339394464143926E-03   0.219884E-01   0.103323E+00   0.320477E+03   0.268260E-18
   LPB:    4  -0.468437800505657E+00   0.261519020710259E-03   0.255498E-01   0.222212E+00   0.300572E+03  -0.337603E-17
  Finished solving LPB equations
  A_corr:   -0.382212312691214     
 End minimization
 Ecorr=   2893.08396168941     
 A_corr= -0.382212312691214     
 Ecorr_band=  -2893.46617400210     
 End Solvation calculations
RMM:   5    -0.243902561400E+03    0.11080E-04   -0.13574E-05  2946   0.666E-03    0.316E-02
 Begin Solvation calculations
  rms_SCF =   2.678577197670911E-003 tol =   2.678577197670911E-004
 Begin minimization
 Creating dielectric and ionic cavities
  area:      164.238274208540     
  volume:    772.910476865646     
  Acav:     8.622509395948358E-002
  Solving linear dielectric/ionic screening model
        iter                  A_solv                     rms
   LPB:       -0.468451116238144E+00   0.355192385178552E-02
   LPB:    0  -0.468451116109080E+00   0.355446105908870E-02   0.269216E-05   0.000000E+00   0.356149E+02   0.958808E-04
   LPB:    1  -0.468450990451525E+00   0.154918615487833E-02   0.133579E-01   0.000000E+00   0.111386E+03   0.560660E-20
   LPB:    2  -0.468450954648720E+00   0.305708532994134E-03   0.153172E-01   0.248479E+00   0.237884E+03   0.830205E-18
   LPB:    3  -0.468450942950700E+00   0.313626494903949E-03   0.281490E-01   0.177792E+00   0.338734E+03  -0.803020E-18
   LPB:    4  -0.468450937289954E+00   0.350639886479266E-03   0.267521E-01   0.509174E+00   0.219250E+03  -0.117901E-17
   LPB:    5  -0.468450933047434E+00   0.186933258814924E-03   0.284644E-01   0.704379E+00   0.143437E+03  -0.134178E-17
  Finished solving LPB equations
  A_corr:   -0.382225839087950     
 End minimization
 Ecorr=   2893.06880760238     
 A_corr= -0.382225839087950     
 Ecorr_band=  -2893.45103344147     
 End Solvation calculations
RMM:   6    -0.243902554948E+03    0.64517E-05   -0.73858E-06  2846   0.534E-03
 Begin Solvation calculations
  rms_SCF =   2.678577197670911E-003 tol =   2.678577197670911E-004
 Begin minimization
 Creating dielectric and ionic cavities
  area:      164.237885097590     
  volume:    772.912688248153     
  Acav:     8.622488967623465E-002
  Solving linear dielectric/ionic screening model
        iter                  A_solv                     rms
   LPB:       -0.468497477601458E+00   0.189305520450959E-02
   LPB:    0  -0.468497476344803E+00   0.166755514716511E-02  -0.840056E-05   0.000000E+00   0.356148E+02  -0.299184E-03
   LPB:    1  -0.468497357611153E+00   0.120072674552099E-02   0.166130E-01   0.000000E+00   0.272558E+03  -0.126180E-19
   LPB:    2  -0.468497342032771E+00   0.572709059796488E-03   0.153861E-01   0.141667E+00   0.943733E+02  -0.252110E-17
   LPB:    3  -0.468497334799429E+00   0.143648410341279E-03   0.197763E-01   0.361243E+00   0.400999E+03  -0.137792E-17
   LPB:    4  -0.468497330611617E+00   0.156427974090996E-03   0.320353E-01   0.357409E+00   0.700676E+03  -0.135455E-17
  Finished solving LPB equations
  A_corr:   -0.382272440935382     
 End minimization
 Ecorr=   2893.05350981523     
 A_corr= -0.382272440935382     
 Ecorr_band=  -2893.43578225617     
 End Solvation calculations
  34 F= -.24390255E+03 E0= -.24389418E+03  d E =0.813786E-03
quench:  g(F)=  0.000E+00 g(S)=  0.000E+00 dE (1.order)= 0.000E+00
 reached required accuracy - stopping structural energy minimisation
