 vasp.5.4.4.18Apr17-6-g9f103f2a35 (build Feb 06 2024 13:54:16) complex          
  
 POSCAR found type information on POSCAR  Cu N  O 
 04/POSCAR found :  3 types and      40 ions
 scaLAPACK will be used

 ----------------------------------------------------------------------------- 
|                                                                             |
|  ADVICE TO THIS USER RUNNING 'VASP/VAMP'   (HEAR YOUR MASTER'S VOICE ...):  |
|                                                                             |
|      You enforced a specific xc-type in the INCAR file,                     |
|      a different type was found on the POTCAR file                          |
|          I HOPE YOU KNOW, WHAT YOU ARE  DOING                               |
|                                                                             |
 ----------------------------------------------------------------------------- 

 LDA part: xc-table for Pade appr. of Perdew
 POSCAR found type information on POSCAR  Cu N  O 
 00/POSCAR found :  3 types and      40 ions
 POSCAR found type information on POSCAR  Cu N  O 
 06/POSCAR found :  3 types and      40 ions
 Jacobian:    20.5888137679208     
 POSCAR, INCAR and KPOINTS ok, starting setup
 FFT: planning ...
 WAVECAR not read
 entering main loop
       N       E                     dE             d eps       ncg     rms          rms(c)
  Solvation turned off during non-self-consistent phase (first NELMDL steps)
DAV:   1     0.415391935422E+04    0.41539E+04   -0.17875E+05  4032   0.204E+03
DAV:   2     0.575106558229E+03   -0.35788E+04   -0.34573E+04  4032   0.459E+02
DAV:   3    -0.380673267079E+02   -0.61317E+03   -0.56845E+03  4770   0.229E+02
DAV:   4    -0.148114680162E+03   -0.11005E+03   -0.96077E+02  7002   0.908E+01
DAV:   5    -0.161077342972E+03   -0.12963E+02   -0.12527E+02  6246   0.326E+01    0.431E+01
 Begin Solvation calculations
  rms_SCF =    5.55686663469063      tol =   0.555686663469063     
 Begin minimization
 Creating dielectric and ionic cavities
  area:      165.571307888290     
  volume:    678.976936380915     
  Acav:     8.692493664135233E-002
  Solving linear dielectric/ionic screening model
        iter                  A_solv                     rms
   LPB:       -0.354833107315221E+03   0.230842144650346E+03
   LPB:    0  -0.952930038362617E+01   0.350140947597992E+02  -0.458419E+01   0.000000E+00   0.328629E+02  -0.150650E+03
   LPB:    1  -0.179213914967551E+01   0.834042336476264E+01   0.111725E-01   0.000000E+00   0.957936E+02   0.266712E-14
   LPB:    2  -0.735052875453164E+00   0.133988521421739E+01   0.131723E-01   0.115883E+00   0.317089E+03  -0.675042E-14
   LPB:    3  -0.451776969387879E+00   0.140446520860407E+01   0.269175E-01   0.131137E+00   0.585223E+03  -0.693405E-14
   LPB:    4  -0.361814894567942E+00   0.117132308572279E+01   0.243732E-01   0.350730E+00   0.854972E+02  -0.668110E-14
   LPB:    5  -0.316468880138473E+00   0.644921311156633E+00   0.226444E-01   0.542539E+00   0.461602E+03   0.650231E-15
   LPB:    6  -0.288834409481069E+00   0.215327156383010E+00   0.310091E-01   0.445024E+00   0.118067E+03   0.110047E-13
  Finished solving LPB equations
  A_corr:   -0.201909472839717     
 End minimization
 Ecorr=   1763.75892239135     
 A_corr= -0.201909472839717     
 Ecorr_band=  -1763.96083186419     
 End Solvation calculations
RMM:   6    -0.152558081825E+03    0.85193E+01   -0.35229E+02  4080   0.942E+01    0.303E+01
 Begin Solvation calculations
  rms_SCF =    5.55686663469063      tol =   0.555686663469063     
 Begin minimization
 Creating dielectric and ionic cavities
  area:      179.338894910656     
  volume:    700.482798028568     
  Acav:     9.415291982809432E-002
  Solving linear dielectric/ionic screening model
        iter                  A_solv                     rms
   LPB:       -0.939470809670689E+01   0.507396930108353E+02
   LPB:    0  -0.787120673835777E+01   0.464536724353133E+02   0.309279E+00   0.000000E+00   0.318546E+02   0.985196E+01
   LPB:    1  -0.916018187404854E+00   0.414688713725581E+01   0.924247E-02   0.000000E+00   0.744871E+02   0.121418E-15
   LPB:    2  -0.354094789738379E+00   0.129972965431683E+01   0.153215E-01   0.487365E-01   0.196546E+03  -0.268299E-13
   LPB:    3  -0.263710054029023E+00   0.954662482156488E+00   0.229076E-01   0.107582E+00   0.129424E+03  -0.289422E-13
   LPB:    4  -0.231822919671670E+00   0.614148924111891E+00   0.215335E-01   0.375307E+00   0.257141E+03  -0.353019E-13
   LPB:    5  -0.214043083771061E+00   0.214888501667776E+00   0.273461E-01   0.439067E+00   0.156572E+03  -0.373035E-13
  Finished solving LPB equations
  A_corr:   -0.119890163942967     
 End minimization
 Ecorr=   1667.47709185052     
 A_corr= -0.119890163942967     
 Ecorr_band=  -1667.59698201447     
 End Solvation calculations
RMM:   7    -0.136560282149E+03    0.15998E+02   -0.64024E+01  4105   0.442E+01    0.921E+00
 Begin Solvation calculations
  rms_SCF =    5.55686663469063      tol =   0.555686663469063     
 Begin minimization
 Creating dielectric and ionic cavities
  area:      162.354341913442     
  volume:    698.742392352091     
  Acav:     8.523602950455722E-002
  Solving linear dielectric/ionic screening model
        iter                  A_solv                     rms
   LPB:       -0.295658982153097E+01   0.285207008287924E+02
   LPB:    0  -0.295640102451103E+01   0.285266615319819E+02   0.343851E-02   0.000000E+00   0.319362E+02   0.109813E+00
   LPB:    1  -0.479937859162518E+00   0.270880210698233E+01   0.915587E-02   0.000000E+00   0.725268E+02   0.225527E-17
   LPB:    2  -0.268914773465160E+00   0.443069582664937E+00   0.157917E-01   0.494048E-01   0.152263E+03   0.210086E-14
   LPB:    3  -0.235967847377872E+00   0.258942919898045E+00   0.238446E-01   0.103401E+00   0.330184E+03   0.611544E-14
   LPB:    4  -0.227402139246703E+00   0.136398096434556E+00   0.275062E-01   0.225376E+00   0.190742E+03   0.704988E-14
  Finished solving LPB equations
  A_corr:   -0.142166109742146     
 End minimization
 Ecorr=   1646.05844996746     
 A_corr= -0.142166109742146     
 Ecorr_band=  -1646.20061607721     
 End Solvation calculations
RMM:   8    -0.133886821665E+03    0.26735E+01   -0.33798E+00  4104   0.796E+00    0.603E+00
 Begin Solvation calculations
  rms_SCF =    1.45225972238394      tol =   0.145225972238394     
 Begin minimization
 Creating dielectric and ionic cavities
  area:      171.161245277484     
  volume:    696.741569673793     
  Acav:     8.985965377067932E-002
  Solving linear dielectric/ionic screening model
        iter                  A_solv                     rms
   LPB:       -0.353222166274124E+00   0.281049238748945E+01
   LPB:    0  -0.353220419656168E+00   0.280242162965763E+01  -0.330244E-03   0.000000E+00   0.320300E+02  -0.105777E-01
   LPB:    1  -0.279648291118838E+00   0.115475385562867E+01   0.127754E-01   0.000000E+00   0.955347E+02  -0.192302E-18
   LPB:    2  -0.260431353445349E+00   0.346798466031270E+00   0.159406E-01   0.209334E+00   0.136979E+03   0.358074E-14
   LPB:    3  -0.252266701055491E+00   0.308248387005352E+00   0.304634E-01   0.222320E+00   0.188800E+03   0.390950E-14
   LPB:    4  -0.247787968258629E+00   0.258816214704176E+00   0.320400E-01   0.521560E+00   0.525520E+02   0.400101E-14
   LPB:    5  -0.244292030118057E+00   0.230611099203249E+00   0.284841E-01   0.878007E+00   0.200821E+03   0.194285E-14
   LPB:    6  -0.241237498219573E+00   0.921424754534544E-01   0.337418E-01   0.737592E+00   0.457014E+02  -0.431595E-15
  Finished solving LPB equations
  A_corr:   -0.151377844448894     
 End minimization
 Ecorr=   1605.05740319949     
 A_corr= -0.151377844448894     
 Ecorr_band=  -1605.20878104393     
 End Solvation calculations
RMM:   9    -0.133331575922E+03    0.55525E+00   -0.13663E+00  4138   0.507E+00    0.377E+00
 Begin Solvation calculations
  rms_SCF =    1.45225972238394      tol =   0.145225972238394     
 Begin minimization
 Creating dielectric and ionic cavities
  area:      153.914792844155     
  volume:    691.284404543389     
  Acav:     8.080526624318152E-002
  Solving linear dielectric/ionic screening model
        iter                  A_solv                     rms
   LPB:       -0.771290915465341E+00   0.845042363669378E+01
   LPB:    0  -0.770974415880088E+00   0.850540502265131E+01   0.442787E-02   0.000000E+00   0.322859E+02   0.142958E+00
   LPB:    1  -0.397935156151602E+00   0.185278789917088E+01   0.110683E-01   0.000000E+00   0.800177E+02  -0.189703E-17
   LPB:    2  -0.339802428380884E+00   0.344716266924029E+00   0.143106E-01   0.120528E+00   0.244131E+03  -0.710736E-14
   LPB:    3  -0.324961320813885E+00   0.277381428774169E+00   0.249983E-01   0.146148E+00   0.428053E+03  -0.830590E-14
   LPB:    4  -0.319917965523556E+00   0.267929581103869E+00   0.279259E-01   0.304197E+00   0.947590E+02  -0.861795E-14
   LPB:    5  -0.316174628826820E+00   0.254595578411371E+00   0.285227E-01   0.726702E+00   0.308613E+03  -0.838811E-14
   LPB:    6  -0.312955192636105E+00   0.108452202222559E+00   0.334291E-01   0.733815E+00   0.586396E+02  -0.895394E-14
  Finished solving LPB equations
  A_corr:   -0.232149926392924     
 End minimization
 Ecorr=   1561.94324032128     
 A_corr= -0.232149926392924     
 Ecorr_band=  -1562.17539024767     
 End Solvation calculations
RMM:  10    -0.133070891447E+03    0.26068E+00   -0.54602E-01  4320   0.205E+00    0.222E+00
 Begin Solvation calculations
  rms_SCF =   0.503775174470197      tol =   5.037751744701970E-002
 Begin minimization
 Creating dielectric and ionic cavities
  area:      146.856592428309     
  volume:    685.717365335845     
  Acav:     7.709971102486209E-002
  Solving linear dielectric/ionic screening model
        iter                  A_solv                     rms
   LPB:       -0.556441966269382E+00   0.416132394243155E+01
   LPB:    0  -0.555553237319495E+00   0.398260923973049E+01  -0.739001E-02   0.000000E+00   0.325469E+02  -0.240522E+00
   LPB:    1  -0.400244537799151E+00   0.148970611655137E+01   0.128816E-01   0.000000E+00   0.102969E+03   0.486215E-17
   LPB:    2  -0.379905738550652E+00   0.304146646790733E+00   0.131303E-01   0.128477E+00   0.164813E+03   0.357161E-14
   LPB:    3  -0.373553289407680E+00   0.230652747293024E+00   0.229638E-01   0.178586E+00   0.304017E+03   0.423737E-14
   LPB:    4  -0.370463823015337E+00   0.251191248355097E+00   0.295278E-01   0.378230E+00   0.723372E+02   0.433090E-14
   LPB:    5  -0.367367859795121E+00   0.221767649545271E+00   0.315152E-01   0.938909E+00   0.212094E+03   0.770167E-14
   LPB:    6  -0.364599755007089E+00   0.994446147166154E-01   0.348236E-01   0.809159E+00   0.491098E+02   0.128816E-13
   LPB:    7  -0.362823941477020E+00   0.469430191405769E-01   0.328644E-01   0.679770E+00   0.149100E+03   0.168396E-13
  Finished solving LPB equations
  A_corr:   -0.285724230452158     
 End minimization
 Ecorr=   1527.12991104197     
 A_corr= -0.285724230452158     
 Ecorr_band=  -1527.41563527242     
 End Solvation calculations
RMM:  11    -0.133054812444E+03    0.16079E-01   -0.38114E-01  4093   0.243E+00    0.179E+00
 Begin Solvation calculations
  rms_SCF =   0.481599820856954      tol =   4.815998208569542E-002
 Begin minimization
 Creating dielectric and ionic cavities
  area:      144.779710845666     
  volume:    681.520402643302     
  Acav:     7.600934819397488E-002
  Solving linear dielectric/ionic screening model
        iter                  A_solv                     rms
   LPB:       -0.514329732495893E+00   0.242258397077869E+01
   LPB:    0  -0.513933536663280E+00   0.226264274369606E+01  -0.491934E-02   0.000000E+00   0.327436E+02  -0.161077E+00
   LPB:    1  -0.427805101849199E+00   0.103314886240637E+01   0.144851E-01   0.000000E+00   0.126720E+03  -0.520858E-17
   LPB:    2  -0.417195737422411E+00   0.323411959949387E+00   0.143119E-01   0.124671E+00   0.134125E+03   0.217364E-14
   LPB:    3  -0.413548684605503E+00   0.175803074891704E+00   0.197768E-01   0.248768E+00   0.301111E+03   0.151205E-14
   LPB:    4  -0.412283847408097E+00   0.173445042506573E+00   0.231850E-01   0.295830E+00   0.103551E+03   0.199422E-14
   LPB:    5  -0.411134411540127E+00   0.140223878010952E+00   0.297203E-01   0.708929E+00   0.253288E+03   0.173307E-14
   LPB:    6  -0.409871732789591E+00   0.619961563048813E-01   0.422024E-01   0.773615E+00   0.560277E+02   0.132345E-14
   LPB:    7  -0.408832610191605E+00   0.384490840901795E-01   0.378955E-01   0.916479E+00   0.110029E+03   0.290366E-14
  Finished solving LPB equations
  A_corr:   -0.332823261997631     
 End minimization
 Ecorr=   1503.96731333742     
 A_corr= -0.332823261997631     
 Ecorr_band=  -1504.30013659942     
 End Solvation calculations
RMM:  12    -0.133001512235E+03    0.53300E-01   -0.15619E-01  4097   0.177E+00    0.698E-01
 Begin Solvation calculations
  rms_SCF =   0.322412620996968      tol =   3.224126209969676E-002
 Begin minimization
 Creating dielectric and ionic cavities
  area:      144.841721606397     
  volume:    680.090417132581     
  Acav:     7.604190384335860E-002
  Solving linear dielectric/ionic screening model
        iter                  A_solv                     rms
   LPB:       -0.439329223902996E+00   0.849754948026001E+00
   LPB:    0  -0.439197549182277E+00   0.747955803151764E+00  -0.283308E-02   0.000000E+00   0.328107E+02  -0.929552E-01
   LPB:    1  -0.426989872712302E+00   0.376595041996996E+00   0.149339E-01   0.000000E+00   0.150466E+03  -0.667232E-17
   LPB:    2  -0.425460871768663E+00   0.131534721415475E+00   0.149944E-01   0.124744E+00   0.115548E+03   0.665210E-17
   LPB:    3  -0.424965869892601E+00   0.676535660029116E-01   0.191887E-01   0.252978E+00   0.250841E+03  -0.242855E-16
   LPB:    4  -0.424756543306285E+00   0.806686678180243E-01   0.252830E-01   0.320949E+00   0.975246E+02   0.142647E-15
   LPB:    5  -0.424457149475139E+00   0.859560908622897E-01   0.373454E-01   0.968297E+00   0.184980E+03   0.106474E-15
   LPB:    6  -0.423994139419853E+00   0.427226014227801E-01   0.464257E-01   0.124402E+01   0.340044E+02   0.498578E-16
   LPB:    7  -0.423673708858341E+00   0.243193884986315E-01   0.328585E-01   0.977809E+00   0.939418E+02  -0.140753E-15
  Finished solving LPB equations
  A_corr:   -0.347631805014983     
 End minimization
 Ecorr=   1493.41022266522     
 A_corr= -0.347631805014983     
 Ecorr_band=  -1493.75785447023     
 End Solvation calculations
RMM:  13    -0.132994492717E+03    0.70195E-02   -0.24806E-02  4189   0.580E-01    0.414E-01
 Begin Solvation calculations
  rms_SCF =   0.322412620996968      tol =   3.224126209969676E-002
 Begin minimization
 Creating dielectric and ionic cavities
  area:      145.319923117095     
  volume:    677.150584818906     
  Acav:     7.629295963647469E-002
  Solving linear dielectric/ionic screening model
        iter                  A_solv                     rms
   LPB:       -0.539062476648498E+00   0.208793007650245E+01
   LPB:    0  -0.537476835951765E+00   0.171891754223164E+01  -0.981069E-02   0.000000E+00   0.329485E+02  -0.323248E+00
   LPB:    1  -0.471386343479101E+00   0.760739063247659E+00   0.151606E-01   0.000000E+00   0.148426E+03   0.201377E-16
   LPB:    2  -0.463842854307498E+00   0.268598004034249E+00   0.154022E-01   0.112349E+00   0.119026E+03  -0.636410E-14
   LPB:    3  -0.461804451273562E+00   0.126601267148453E+00   0.190692E-01   0.218257E+00   0.192963E+03  -0.728325E-14
   LPB:    4  -0.461116986655781E+00   0.136291003765317E+00   0.213257E-01   0.301570E+00   0.161273E+03  -0.897731E-14
   LPB:    5  -0.460715275168259E+00   0.954868212014133E-01   0.217596E-01   0.572687E+00   0.214472E+03  -0.953515E-14
   LPB:    6  -0.460403505719215E+00   0.317054145037028E-01   0.318015E-01   0.531034E+00   0.831993E+02  -0.956476E-14
  Finished solving LPB equations
  A_corr:   -0.384110546082740     
 End minimization
 Ecorr=   1482.00525432744     
 A_corr= -0.384110546082740     
 Ecorr_band=  -1482.38936487353     
 End Solvation calculations
RMM:  14    -0.132999617835E+03   -0.51251E-02   -0.21943E-02  4202   0.398E-01    0.335E-01
 Begin Solvation calculations
  rms_SCF =   0.204944921212821      tol =   2.049449212128208E-002
 Begin minimization
 Creating dielectric and ionic cavities
  area:      145.729567657594     
  volume:    675.802450994913     
  Acav:     7.650802302023661E-002
  Solving linear dielectric/ionic screening model
        iter                  A_solv                     rms
   LPB:       -0.515291784894180E+00   0.130963910663084E+01
   LPB:    0  -0.515054212843093E+00   0.119293941426629E+01  -0.379384E-02   0.000000E+00   0.330117E+02  -0.125241E+00
   LPB:    1  -0.490147209046768E+00   0.696472927260062E+00   0.136230E-01   0.000000E+00   0.156998E+03  -0.362721E-18
   LPB:    2  -0.486688769071582E+00   0.153440537042221E+00   0.134732E-01   0.140397E+00   0.945736E+02   0.801570E-15
   LPB:    3  -0.485701866154010E+00   0.891422506918831E-01   0.201114E-01   0.191171E+00   0.252160E+03   0.870024E-15
   LPB:    4  -0.485195321153947E+00   0.980539218756796E-01   0.283480E-01   0.364136E+00   0.936946E+02   0.110424E-14
   LPB:    5  -0.484760307147530E+00   0.896857959335403E-01   0.295110E-01   0.824945E+00   0.219098E+03   0.883163E-15
   LPB:    6  -0.484379045513995E+00   0.391179845208335E-01   0.334662E-01   0.772854E+00   0.610239E+02   0.555944E-15
   LPB:    7  -0.484116016277138E+00   0.247926130943629E-01   0.344104E-01   0.670961E+00   0.204700E+03   0.234621E-15
   LPB:    8  -0.483935591480336E+00   0.163959201923543E-01   0.364915E-01   0.646830E+00   0.180258E+03   0.205011E-15
  Finished solving LPB equations
  A_corr:   -0.407427568460100     
 End minimization
 Ecorr=   1470.79926223153     
 A_corr= -0.407427568460100     
 Ecorr_band=  -1471.20668979999     
 End Solvation calculations
RMM:  15    -0.133000874316E+03   -0.12565E-02   -0.79538E-03  4096   0.341E-01    0.231E-01
 Begin Solvation calculations
  rms_SCF =   0.204944921212821      tol =   2.049449212128208E-002
 Begin minimization
 Creating dielectric and ionic cavities
  area:      146.305714645495     
  volume:    674.557602413506     
  Acav:     7.681050018888473E-002
  Solving linear dielectric/ionic screening model
        iter                  A_solv                     rms
   LPB:       -0.556742829248011E+00   0.160648330013055E+01
   LPB:    0  -0.555897337074072E+00   0.134855496500293E+01  -0.715076E-02   0.000000E+00   0.330701E+02  -0.236476E+00
   LPB:    1  -0.518884355782471E+00   0.680857882826559E+00   0.149138E-01   0.000000E+00   0.143012E+03  -0.775571E-17
   LPB:    2  -0.514329526131650E+00   0.212521764018105E+00   0.144534E-01   0.126980E+00   0.964182E+02   0.335318E-14
   LPB:    3  -0.513146793167787E+00   0.114726967114734E+00   0.185582E-01   0.202231E+00   0.245654E+03   0.432395E-14
   LPB:    4  -0.512707254981361E+00   0.884145185612552E-01   0.206883E-01   0.333366E+00   0.131890E+03   0.383662E-14
   LPB:    5  -0.512447263096427E+00   0.721069963447570E-01   0.248798E-01   0.491858E+00   0.251921E+03   0.357552E-14
   LPB:    6  -0.512208198881620E+00   0.297583520173503E-01   0.353884E-01   0.646459E+00   0.749706E+02   0.302945E-14
   LPB:    7  -0.511990011511811E+00   0.224840694585127E-01   0.398646E-01   0.810193E+00   0.136935E+03   0.196916E-14
   LPB:    8  -0.511823337303267E+00   0.156960029491024E-01   0.374119E-01   0.813986E+00   0.117348E+03   0.122423E-14
  Finished solving LPB equations
  A_corr:   -0.435012837114382     
 End minimization
 Ecorr=   1460.13113167143     
 A_corr= -0.435012837114382     
 Ecorr_band=  -1460.56614450855     
 End Solvation calculations
RMM:  16    -0.133004999597E+03   -0.41253E-02   -0.50735E-03  4251   0.175E-01    0.193E-01
 Begin Solvation calculations
  rms_SCF =   0.204944921212821      tol =   2.049449212128208E-002
 Begin minimization
 Creating dielectric and ionic cavities
  area:      147.086764461752     
  volume:    673.606313328170     
  Acav:     7.722055134241965E-002
  Solving linear dielectric/ionic screening model
        iter                  A_solv                     rms
   LPB:       -0.625005281896153E+00   0.225512098057359E+01
   LPB:    0  -0.623116539104956E+00   0.189007189360074E+01  -0.106805E-01   0.000000E+00   0.331147E+02  -0.353681E+00
   LPB:    1  -0.558822746074222E+00   0.733703564892055E+00   0.154229E-01   0.000000E+00   0.121944E+03  -0.162461E-16
   LPB:    2  -0.551420321610324E+00   0.258302649630201E+00   0.150140E-01   0.118270E+00   0.111990E+03   0.759478E-14
   LPB:    3  -0.549626567478378E+00   0.140841758565786E+00   0.196553E-01   0.185099E+00   0.175687E+03   0.915981E-14
   LPB:    4  -0.548945298200315E+00   0.120998910205959E+00   0.212466E-01   0.351356E+00   0.154507E+03   0.104307E-13
   LPB:    5  -0.548546291360589E+00   0.104583865575215E+00   0.229688E-01   0.541767E+00   0.227449E+03   0.109315E-13
   LPB:    6  -0.548185466814849E+00   0.400944650255118E-01   0.309748E-01   0.670572E+00   0.789492E+02   0.110637E-13
   LPB:    7  -0.547886921874589E+00   0.241256840969322E-01   0.374729E-01   0.683918E+00   0.183771E+03   0.111255E-13
   LPB:    8  -0.547676743608666E+00   0.175720994387509E-01   0.367174E-01   0.718495E+00   0.152558E+03   0.114474E-13
  Finished solving LPB equations
  A_corr:   -0.470456192266247     
 End minimization
 Ecorr=   1447.64155136990     
 A_corr= -0.470456192266247     
 Ecorr_band=  -1448.11200756217     
 End Solvation calculations
RMM:  17    -0.133010902572E+03   -0.59030E-02   -0.64985E-03  4081   0.198E-01    0.225E-01
 Begin Solvation calculations
  rms_SCF =   0.204944921212821      tol =   2.049449212128208E-002
 Begin minimization
 Creating dielectric and ionic cavities
  area:      147.825734746616     
  volume:    673.082291290696     
  Acav:     7.760851074197336E-002
  Solving linear dielectric/ionic screening model
        iter                  A_solv                     rms
   LPB:       -0.647738669271502E+00   0.220210809292508E+01
   LPB:    0  -0.645912250669556E+00   0.186461220619681E+01  -0.104989E-01   0.000000E+00   0.331392E+02  -0.347926E+00
   LPB:    1  -0.591253807715847E+00   0.581704673342758E+00   0.156405E-01   0.000000E+00   0.106587E+03  -0.222411E-16
   LPB:    2  -0.585126186703323E+00   0.216852038223882E+00   0.152668E-01   0.114851E+00   0.135866E+03  -0.205642E-14
   LPB:    3  -0.583641783061352E+00   0.992652661613539E-01   0.211576E-01   0.174801E+00   0.137587E+03  -0.252041E-14
   LPB:    4  -0.583049488005508E+00   0.870335557454703E-01   0.249757E-01   0.338014E+00   0.225252E+03  -0.462842E-14
   LPB:    5  -0.582700881905857E+00   0.130502352169427E+00   0.264055E-01   0.556698E+00   0.200794E+03  -0.560987E-14
   LPB:    6  -0.582389624795847E+00   0.644056928866865E-01   0.245973E-01   0.958496E+00   0.690865E+02  -0.622438E-14
   LPB:    7  -0.582083589277705E+00   0.266060803072828E-01   0.349769E-01   0.691448E+00   0.186186E+03  -0.617306E-14
   LPB:    8  -0.581870019524852E+00   0.172133796194056E-01   0.358368E-01   0.681114E+00   0.154155E+03  -0.600534E-14
  Finished solving LPB equations
  A_corr:   -0.504261508782878     
 End minimization
 Ecorr=   1436.24399935871     
 A_corr= -0.504261508782878     
 Ecorr_band=  -1436.74826086749     
 End Solvation calculations
RMM:  18    -0.133014589606E+03   -0.36870E-02   -0.46372E-03  4048   0.147E-01    0.180E-01
 Begin Solvation calculations
  rms_SCF =   0.204944921212821      tol =   2.049449212128208E-002
 Begin minimization
 Creating dielectric and ionic cavities
  area:      148.160996416782     
  volume:    673.176979957325     
  Acav:     7.778452311881065E-002
  Solving linear dielectric/ionic screening model
        iter                  A_solv                     rms
   LPB:       -0.623858747775336E+00   0.175291154015899E+01
   LPB:    0  -0.622689924151282E+00   0.155337239876991E+01  -0.839938E-02   0.000000E+00   0.331348E+02  -0.278312E+00
   LPB:    1  -0.600766625541389E+00   0.326297048267819E+00   0.150030E-01   0.000000E+00   0.735589E+02  -0.175048E-16
   LPB:    2  -0.598453202505291E+00   0.162394689425565E+00   0.139164E-01   0.113763E+00   0.257935E+03   0.942033E-15
   LPB:    3  -0.597928319690604E+00   0.809942112793730E-01   0.176137E-01   0.179259E+00   0.124569E+03   0.596101E-15
   LPB:    4  -0.597722381655738E+00   0.656728165130746E-01   0.212321E-01   0.325486E+00   0.180724E+03   0.120724E-14
   LPB:    5  -0.597597484137053E+00   0.517586727359750E-01   0.267806E-01   0.480830E+00   0.123616E+03   0.153756E-14
   LPB:    6  -0.597455962741784E+00   0.258300207643108E-01   0.371161E-01   0.817571E+00   0.876830E+02   0.177565E-14
   LPB:    7  -0.597306969143153E+00   0.152026356471246E-01   0.408169E-01   0.957344E+00   0.121094E+03   0.234055E-14
  Finished solving LPB equations
  A_corr:   -0.519522446024342     
 End minimization
 Ecorr=   1431.22675783301     
 A_corr= -0.519522446024342     
 Ecorr_band=  -1431.74628027904     
 End Solvation calculations
RMM:  19    -0.133016323770E+03   -0.17342E-02   -0.27205E-03  4120   0.116E-01    0.120E-01
 Begin Solvation calculations
  rms_SCF =   0.204944921212821      tol =   2.049449212128208E-002
 Begin minimization
 Creating dielectric and ionic cavities
  area:      148.483572742000     
  volume:    673.496471571083     
  Acav:     7.795387568954996E-002
  Solving linear dielectric/ionic screening model
        iter                  A_solv                     rms
   LPB:       -0.649433550451339E+00   0.221999333210988E+01
   LPB:    0  -0.647790879761680E+00   0.201369063488809E+01  -0.995970E-02   0.000000E+00   0.331198E+02  -0.329863E+00
   LPB:    1  -0.617241121917872E+00   0.419311930780840E+00   0.143958E-01   0.000000E+00   0.678169E+02   0.137122E-16
   LPB:    2  -0.614070999691355E+00   0.188462522906111E+00   0.130934E-01   0.114092E+00   0.268973E+03   0.283909E-15
   LPB:    3  -0.613383411765750E+00   0.761866491854089E-01   0.169616E-01   0.167431E+00   0.139084E+03   0.435429E-15
   LPB:    4  -0.613141037210337E+00   0.688653721657963E-01   0.226871E-01   0.263540E+00   0.156513E+03   0.184111E-15
   LPB:    5  -0.612993418588726E+00   0.523170726080517E-01   0.270438E-01   0.510935E+00   0.122708E+03   0.199844E-15
   LPB:    6  -0.612851551661712E+00   0.241717749467557E-01   0.344009E-01   0.755506E+00   0.939698E+02  -0.110373E-15
   LPB:    7  -0.612729469214828E+00   0.134407692201460E-01   0.371819E-01   0.796180E+00   0.159389E+03  -0.143911E-14
  Finished solving LPB equations
  A_corr:   -0.534775593525278     
 End minimization
 Ecorr=   1426.39566956256     
 A_corr= -0.534775593525278     
 Ecorr_band=  -1426.93044515608     
 End Solvation calculations
RMM:  20    -0.133018240844E+03   -0.19171E-02   -0.23998E-03  4089   0.109E-01    0.930E-02
 Begin Solvation calculations
  rms_SCF =   0.156482217146395      tol =   1.564822171463954E-002
 Begin minimization
 Creating dielectric and ionic cavities
  area:      148.740946295690     
  volume:    673.802034232711     
  Acav:     7.808899680523708E-002
  Solving linear dielectric/ionic screening model
        iter                  A_solv                     rms
   LPB:       -0.654670765577517E+00   0.205652395320630E+01
   LPB:    0  -0.653463348683162E+00   0.189237201884853E+01  -0.854070E-02   0.000000E+00   0.331055E+02  -0.282744E+00
   LPB:    1  -0.629537282719111E+00   0.391316300047196E+00   0.138962E-01   0.000000E+00   0.650413E+02   0.102139E-16
   LPB:    2  -0.626998326402024E+00   0.159851899717347E+00   0.127302E-01   0.115836E+00   0.268179E+03   0.258009E-14
   LPB:    3  -0.626461967152964E+00   0.610443615399915E-01   0.171602E-01   0.156716E+00   0.146997E+03   0.297422E-14
   LPB:    4  -0.626276532697873E+00   0.586666420407361E-01   0.239110E-01   0.248118E+00   0.144276E+03   0.312982E-14
   LPB:    5  -0.626156073803188E+00   0.486726356406046E-01   0.283820E-01   0.547273E+00   0.121809E+03   0.295625E-14
   LPB:    6  -0.626031473165662E+00   0.235849073668186E-01   0.353544E-01   0.830388E+00   0.869443E+02   0.205651E-14
   LPB:    7  -0.625921493320236E+00   0.124359604544757E-01   0.369642E-01   0.844219E+00   0.150561E+03   0.628270E-15
  Finished solving LPB equations
  A_corr:   -0.547832496514999     
 End minimization
 Ecorr=   1421.94609092607     
 A_corr= -0.547832496514999     
 Ecorr_band=  -1422.49392342259     
 End Solvation calculations
RMM:  21    -0.133019017793E+03   -0.77695E-03   -0.13701E-03  4084   0.683E-02    0.460E-02
 Begin Solvation calculations
  rms_SCF =   9.483766608707597E-002 tol =   9.483766608707598E-003
 Begin minimization
 Creating dielectric and ionic cavities
  area:      148.740106434277     
  volume:    673.879874951721     
  Acav:     7.808855587799568E-002
  Solving linear dielectric/ionic screening model
        iter                  A_solv                     rms
   LPB:       -0.631813040416393E+00   0.942469518361428E+00
   LPB:    0  -0.631677236165931E+00   0.908058353012856E+00  -0.286448E-02   0.000000E+00   0.331018E+02  -0.948195E-01
   LPB:    1  -0.627677571017156E+00   0.157150931154415E+00   0.117688E-01   0.000000E+00   0.682466E+02  -0.583155E-18
   LPB:    2  -0.627295137053506E+00   0.475289086357362E-01   0.118430E-01   0.950172E-01   0.273624E+03  -0.828963E-15
   LPB:    3  -0.627226734788788E+00   0.147449254838950E-01   0.190512E-01   0.111186E+00   0.157179E+03  -0.904966E-15
   LPB:    4  -0.627203108843596E+00   0.192636960016556E-01   0.308387E-01   0.213376E+00   0.141404E+03  -0.920696E-15
   LPB:    5  -0.627170605572749E+00   0.324688515647206E-01   0.470835E-01   0.901085E+00   0.133575E+03  -0.693020E-15
   LPB:    6  -0.627117831295613E+00   0.210309956726166E-01   0.394941E-01   0.193567E+01   0.571176E+02  -0.394998E-15
   LPB:    7  -0.627078647874342E+00   0.644564479565056E-02   0.285036E-01   0.102875E+01   0.125199E+03  -0.705472E-16
  Finished solving LPB equations
  A_corr:   -0.548990091996346     
 End minimization
 Ecorr=   1420.35312008689     
 A_corr= -0.548990091996346     
 Ecorr_band=  -1420.90211017888     
 End Solvation calculations
RMM:  22    -0.133019581269E+03   -0.56348E-03   -0.30178E-04  4086   0.514E-02    0.688E-02
 Begin Solvation calculations
  rms_SCF =   9.483766608707597E-002 tol =   9.483766608707598E-003
 Begin minimization
 Creating dielectric and ionic cavities
  area:      148.767706469534     
  volume:    673.926541990504     
  Acav:     7.810304589650538E-002
  Solving linear dielectric/ionic screening model
        iter                  A_solv                     rms
   LPB:       -0.639734717968280E+00   0.142227915479706E+01
   LPB:    0  -0.639440347445975E+00   0.137324634724117E+01  -0.421746E-02   0.000000E+00   0.330996E+02  -0.139596E+00
   LPB:    1  -0.631536144934880E+00   0.230872603493876E+00   0.113069E-01   0.000000E+00   0.641040E+02  -0.344875E-17
   LPB:    2  -0.630611795720965E+00   0.608626710646623E-01   0.124368E-01   0.106319E+00   0.239980E+03   0.689436E-15
   LPB:    3  -0.630476217186290E+00   0.190672029753490E-01   0.184915E-01   0.986492E-01   0.179780E+03   0.788037E-15
   LPB:    4  -0.630444787914208E+00   0.194009904869262E-01   0.244183E-01   0.175549E+00   0.170231E+03   0.756130E-15
   LPB:    5  -0.630431329864013E+00   0.150186431129581E-01   0.246710E-01   0.423815E+00   0.141801E+03   0.756330E-15
   LPB:    6  -0.630423282133665E+00   0.651179605892573E-02   0.261962E-01   0.563170E+00   0.129721E+03   0.934536E-15
  Finished solving LPB equations
  A_corr:   -0.552320236237159     
 End minimization
 Ecorr=   1419.23366755115     
 A_corr= -0.552320236237159     
 Ecorr_band=  -1419.78598778738     
 End Solvation calculations
RMM:  23    -0.133019489971E+03    0.91298E-04   -0.34748E-04  4043   0.358E-02    0.349E-02
 Begin Solvation calculations
  rms_SCF =   2.877260541689195E-002 tol =   2.877260541689195E-003
 Begin minimization
 Creating dielectric and ionic cavities
  area:      148.692583975199     
  volume:    673.905629277319     
  Acav:     7.806360658697954E-002
  Solving linear dielectric/ionic screening model
        iter                  A_solv                     rms
   LPB:       -0.628803917976872E+00   0.463512004700126E+00
   LPB:    0  -0.628801211667603E+00   0.463748509702465E+00  -0.404376E-03   0.000000E+00   0.331006E+02  -0.133851E-01
   LPB:    1  -0.627687878588700E+00   0.748436242006782E-01   0.101953E-01   0.000000E+00   0.996046E+02   0.625751E-18
   LPB:    2  -0.627611639945045E+00   0.102536960941378E-01   0.113424E-01   0.615526E-01   0.341870E+03   0.113108E-16
   LPB:    3  -0.627600940834692E+00   0.434529348919361E-02   0.227861E-01   0.698566E-01   0.509911E+03   0.558451E-16
   LPB:    4  -0.627597363676468E+00   0.432924478469853E-02   0.288502E-01   0.264065E+00   0.598295E+03   0.649806E-16
   LPB:    5  -0.627594869073238E+00   0.684122061297726E-02   0.368219E-01   0.546394E+00   0.269978E+03   0.734418E-16
   LPB:    6  -0.627592493212474E+00   0.782621579455835E-02   0.334851E-01   0.104731E+01   0.138327E+03   0.497485E-16
   LPB:    7  -0.627589485707072E+00   0.401151850029407E-02   0.370367E-01   0.114447E+01   0.107115E+03   0.107642E-15
   LPB:    8  -0.627586820530900E+00   0.203383356574771E-02   0.377903E-01   0.868503E+00   0.155319E+03   0.136117E-15
  Finished solving LPB equations
  A_corr:   -0.549523213943920     
 End minimization
 Ecorr=   1419.39707513305     
 A_corr= -0.549523213943920     
 Ecorr_band=  -1419.94659834699     
 End Solvation calculations
RMM:  24    -0.133019795677E+03   -0.30571E-03   -0.14562E-04  3995   0.336E-02    0.192E-02
 Begin Solvation calculations
  rms_SCF =   7.215544187323932E-003 tol =   7.215544187323933E-004
 Begin minimization
 Creating dielectric and ionic cavities
  area:      148.677579066813     
  volume:    673.864776392410     
  Acav:     7.805572901007685E-002
  Solving linear dielectric/ionic screening model
        iter                  A_solv                     rms
   LPB:       -0.626735975583734E+00   0.937497346154393E-01
   LPB:    0  -0.626735867600421E+00   0.934510391337719E-01  -0.807723E-04   0.000000E+00   0.331025E+02  -0.267377E-02
   LPB:    1  -0.626616689169899E+00   0.393449099299401E-01   0.112608E-01   0.000000E+00   0.212593E+03  -0.135612E-18
   LPB:    2  -0.626606654512072E+00   0.805342617780597E-02   0.126832E-01   0.747554E-01   0.105936E+03  -0.544348E-16
   LPB:    3  -0.626603449974699E+00   0.197515913217845E-02   0.204766E-01   0.197804E+00   0.198102E+03  -0.609986E-16
   LPB:    4  -0.626602529409158E+00   0.107192742198563E-02   0.308324E-01   0.190783E+00   0.559882E+03  -0.581150E-16
   LPB:    5  -0.626602013120763E+00   0.140722874947545E-02   0.371006E-01   0.466084E+00   0.782507E+03  -0.581830E-16
   LPB:    6  -0.626601542948626E+00   0.122938746797065E-02   0.400895E-01   0.842782E+00   0.366851E+03  -0.596838E-16
   LPB:    7  -0.626601196303441E+00   0.152089237902254E-02   0.366788E-01   0.805830E+00   0.377277E+03  -0.594380E-16
   LPB:    8  -0.626600943657296E+00   0.182231496828487E-02   0.346697E-01   0.771069E+00   0.432750E+03  -0.691037E-16
   LPB:    9  -0.626600731636061E+00   0.193467425535109E-02   0.328379E-01   0.886014E+00   0.142861E+03  -0.663632E-16
   LPB:   10  -0.626600530518828E+00   0.136228390853616E-02   0.321532E-01   0.968772E+00   0.275297E+03  -0.723107E-16
   LPB:   11  -0.626600345944804E+00   0.726284396632748E-03   0.357074E-01   0.826395E+00   0.173140E+03  -0.732891E-16
   LPB:   12  -0.626600209520060E+00   0.475856982330612E-03   0.359795E-01   0.733543E+00   0.298296E+03  -0.744791E-16
  Finished solving LPB equations
  A_corr:   -0.548544480509983     
 End minimization
 Ecorr=   1419.32057741834     
 A_corr= -0.548544480509983     
 Ecorr_band=  -1419.86912189885     
 End Solvation calculations
RMM:  25    -0.133019940273E+03   -0.14460E-03   -0.56802E-05  2876   0.178E-02    0.104E-02
 Begin Solvation calculations
  rms_SCF =   7.215544187323932E-003 tol =   7.215544187323933E-004
 Begin minimization
 Creating dielectric and ionic cavities
  area:      148.701981792109     
  volume:    673.829871183538     
  Acav:     7.806854044085698E-002
  Solving linear dielectric/ionic screening model
        iter                  A_solv                     rms
   LPB:       -0.627916468650947E+00   0.263472832905834E+00
   LPB:    0  -0.627902526561783E+00   0.247693026762423E+00  -0.917778E-03   0.000000E+00   0.331042E+02  -0.303823E-01
   LPB:    1  -0.627656782801243E+00   0.363398117304837E-01   0.104815E-01   0.000000E+00   0.688295E+02  -0.469751E-18
   LPB:    2  -0.627632420885122E+00   0.111425541102581E-01   0.127219E-01   0.816768E-01   0.205810E+03   0.609356E-15
   LPB:    3  -0.627628897049280E+00   0.426519534214906E-02   0.177558E-01   0.103638E+00   0.148195E+03   0.663941E-15
   LPB:    4  -0.627628051129773E+00   0.361259607495064E-02   0.242768E-01   0.175575E+00   0.984064E+02   0.670213E-15
   LPB:    5  -0.627627664219702E+00   0.222118678866929E-02   0.229973E-01   0.482832E+00   0.198931E+03   0.645825E-15
   LPB:    6  -0.627627382566951E+00   0.753225455869004E-03   0.316123E-01   0.529572E+00   0.107066E+03   0.618223E-15
   LPB:    7  -0.627627173680848E+00   0.488022863326197E-03   0.378166E-01   0.619967E+00   0.199697E+03   0.597081E-15
  Finished solving LPB equations
  A_corr:   -0.549558633239991     
 End minimization
 Ecorr=   1418.87847429691     
 A_corr= -0.549558633239991     
 Ecorr_band=  -1419.42803293015     
 End Solvation calculations
RMM:  26    -0.133019999686E+03   -0.59413E-04   -0.18160E-05  2429   0.170E-02    0.823E-03
 Begin Solvation calculations
  rms_SCF =   7.215544187323932E-003 tol =   7.215544187323933E-004
 Begin minimization
 Creating dielectric and ionic cavities
  area:      148.715591701900     
  volume:    673.788329121489     
  Acav:     7.807568564349739E-002
  Solving linear dielectric/ionic screening model
        iter                  A_solv                     rms
   LPB:       -0.628091295767307E+00   0.106558287068346E+00
   LPB:    0  -0.628088532206956E+00   0.971012265800066E-01  -0.408597E-03   0.000000E+00   0.331061E+02  -0.135271E-01
   LPB:    1  -0.628041171860957E+00   0.142877057191028E-01   0.977322E-02   0.000000E+00   0.932450E+02  -0.492135E-18
   LPB:    2  -0.628038518410249E+00   0.299476960043381E-02   0.116824E-01   0.468708E-01   0.199506E+03   0.389698E-15
   LPB:    3  -0.628037997297729E+00   0.213909027230195E-02   0.228721E-01   0.100310E+00   0.210484E+03   0.452010E-15
   LPB:    4  -0.628037815163636E+00   0.197197557657385E-02   0.255387E-01   0.313017E+00   0.776644E+02   0.466602E-15
   LPB:    5  -0.628037668801018E+00   0.131501224917395E-02   0.281725E-01   0.728471E+00   0.359553E+03   0.461743E-15
   LPB:    6  -0.628037521303847E+00   0.563192500627773E-03   0.420502E-01   0.675168E+00   0.748867E+02   0.477794E-15
  Finished solving LPB equations
  A_corr:   -0.549961835660349     
 End minimization
 Ecorr=   1418.58791384811     
 A_corr= -0.549961835660349     
 Ecorr_band=  -1419.13787568377     
 End Solvation calculations
RMM:  27    -0.133020053555E+03   -0.53869E-04   -0.12670E-05  2408   0.122E-02    0.580E-03
 Begin Solvation calculations
  rms_SCF =   6.087432125461246E-003 tol =   6.087432125461246E-004
 Begin minimization
 Creating dielectric and ionic cavities
  area:      148.721902139893     
  volume:    673.744410736127     
  Acav:     7.807899862344363E-002
  Solving linear dielectric/ionic screening model
        iter                  A_solv                     rms
   LPB:       -0.627960846877429E+00   0.470928900879158E-01
   LPB:    0  -0.627960608164435E+00   0.439049756244233E-01  -0.120084E-03   0.000000E+00   0.331082E+02  -0.397576E-02
   LPB:    1  -0.627909912234137E+00   0.300203730530664E-01   0.134217E-01   0.000000E+00   0.239094E+03  -0.164818E-18
   LPB:    2  -0.627904609898940E+00   0.818076159602493E-02   0.136003E-01   0.103218E+00   0.589238E+02   0.252818E-15
   LPB:    3  -0.627903156341268E+00   0.299923121947332E-02   0.175046E-01   0.212991E+00   0.297832E+03   0.276791E-15
   LPB:    4  -0.627902598758829E+00   0.192722305791753E-02   0.251874E-01   0.266591E+00   0.214655E+03   0.278013E-15
   LPB:    5  -0.627902326783959E+00   0.211424598635272E-02   0.263419E-01   0.466398E+00   0.335760E+03   0.290508E-15
   LPB:    6  -0.627902144758248E+00   0.135512762499080E-02   0.274869E-01   0.641393E+00   0.100830E+03   0.296080E-15
   LPB:    7  -0.627902001245849E+00   0.822047415614463E-03   0.331518E-01   0.653696E+00   0.469069E+03   0.287481E-15
   LPB:    8  -0.627901888787032E+00   0.433863453748425E-03   0.393588E-01   0.660039E+00   0.146094E+03   0.285592E-15
  Finished solving LPB equations
  A_corr:   -0.549822890163589     
 End minimization
 Ecorr=   1418.39545014716     
 A_corr= -0.549822890163589     
 Ecorr_band=  -1418.94527303733     
 End Solvation calculations
RMM:  28    -0.133020105977E+03   -0.52422E-04   -0.18847E-05  2475   0.107E-02    0.358E-03
 Begin Solvation calculations
  rms_SCF =   3.862120307995300E-003 tol =   3.862120307995300E-004
 Begin minimization
 Creating dielectric and ionic cavities
  area:      148.733232720488     
  volume:    673.731932911201     
  Acav:     7.808494717825638E-002
  Solving linear dielectric/ionic screening model
        iter                  A_solv                     rms
   LPB:       -0.628390297721630E+00   0.114959388818302E+00
   LPB:    0  -0.628385411763404E+00   0.101561588491210E+00  -0.543273E-03   0.000000E+00   0.331088E+02  -0.179871E-01
   LPB:    1  -0.628345171750890E+00   0.127996384502677E-01   0.962723E-02   0.000000E+00   0.744522E+02  -0.168150E-17
   LPB:    2  -0.628342321417891E+00   0.389303704099872E-02   0.128369E-01   0.531224E-01   0.160063E+03  -0.169813E-15
   LPB:    3  -0.628341927546233E+00   0.198009701859559E-02   0.173747E-01   0.102094E+00   0.152036E+03  -0.203383E-15
   LPB:    4  -0.628341819011506E+00   0.127363240341035E-02   0.236593E-01   0.202363E+00   0.665834E+02  -0.208864E-15
   LPB:    5  -0.628341735351389E+00   0.732273389956596E-03   0.288745E-01   0.631593E+00   0.248058E+03  -0.208607E-15
   LPB:    6  -0.628341654066115E+00   0.339304232736879E-03   0.428792E-01   0.654275E+00   0.721766E+02  -0.211549E-15
  Finished solving LPB equations
  A_corr:   -0.550256706887859     
 End minimization
 Ecorr=   1418.15250037097     
 A_corr= -0.550256706887859     
 Ecorr_band=  -1418.70275707786     
 End Solvation calculations
RMM:  29    -0.133020116112E+03   -0.10135E-04   -0.67611E-06  2356   0.971E-03    0.351E-03
 Begin Solvation calculations
  rms_SCF =   3.862120307995300E-003 tol =   3.862120307995300E-004
 Begin minimization
 Creating dielectric and ionic cavities
  area:      148.736166813570     
  volume:    673.726526355521     
  Acav:     7.808648757712404E-002
  Solving linear dielectric/ionic screening model
        iter                  A_solv                     rms
   LPB:       -0.628357254202632E+00   0.509438600380602E-01
   LPB:    0  -0.628356637554518E+00   0.460396695849243E-01  -0.193001E-03   0.000000E+00   0.331090E+02  -0.639009E-02
   LPB:    1  -0.628334790428000E+00   0.114944086988543E-01   0.139505E-01   0.000000E+00   0.920035E+02  -0.141589E-18
   LPB:    2  -0.628333108885952E+00   0.342559999099168E-02   0.153214E-01   0.700816E-01   0.840351E+02   0.336812E-15
   LPB:    3  -0.628332641749510E+00   0.911202914191305E-03   0.211009E-01   0.201714E+00   0.233793E+03   0.337705E-15
   LPB:    4  -0.628332456499458E+00   0.597986993004962E-03   0.298613E-01   0.280225E+00   0.363833E+03   0.315132E-15
   LPB:    5  -0.628332361836806E+00   0.781027593175716E-03   0.323509E-01   0.471674E+00   0.321471E+03   0.307581E-15
   LPB:    6  -0.628332296706925E+00   0.132530430518597E-02   0.327578E-01   0.679475E+00   0.142495E+03   0.303519E-15
   LPB:    7  -0.628332250059424E+00   0.134122527392122E-02   0.247574E-01   0.947671E+00   0.161547E+03   0.300276E-15
   LPB:    8  -0.628332196807628E+00   0.645801367429078E-03   0.292556E-01   0.966058E+00   0.118036E+03   0.297054E-15
   LPB:    9  -0.628332142306692E+00   0.331257627185978E-03   0.396024E-01   0.756060E+00   0.146619E+03   0.293027E-15
  Finished solving LPB equations
  A_corr:   -0.550245654729568     
 End minimization
 Ecorr=   1418.02104347687     
 A_corr= -0.550245654729568     
 Ecorr_band=  -1418.57128913160     
 End Solvation calculations
RMM:  30    -0.133020152617E+03   -0.36505E-04   -0.66785E-06  2377   0.752E-03    0.749E-03
 Begin Solvation calculations
  rms_SCF =   3.862120307995300E-003 tol =   3.862120307995300E-004
 Begin minimization
 Creating dielectric and ionic cavities
  area:      148.739284735334     
  volume:    673.726259877629     
  Acav:     7.808812448605044E-002
  Solving linear dielectric/ionic screening model
        iter                  A_solv                     rms
   LPB:       -0.628536676937230E+00   0.573221975729748E-01
   LPB:    0  -0.628535169457757E+00   0.486498172199772E-01  -0.301764E-03   0.000000E+00   0.331090E+02  -0.999111E-02
   LPB:    1  -0.628526475315951E+00   0.567982619290642E-02   0.901677E-02   0.000000E+00   0.762888E+02   0.509949E-18
   LPB:    2  -0.628526013755822E+00   0.182452559503797E-02   0.137030E-01   0.349331E-01   0.946101E+02   0.804422E-16
   LPB:    3  -0.628525947715797E+00   0.822436718033014E-03   0.164260E-01   0.119361E+00   0.160507E+03   0.716885E-16
   LPB:    4  -0.628525922385431E+00   0.413237566383213E-03   0.257445E-01   0.244726E+00   0.927742E+02   0.693442E-16
   LPB:    5  -0.628525898555607E+00   0.262753353935719E-03   0.366233E-01   0.661313E+00   0.220516E+03   0.689187E-16
  Finished solving LPB equations
  A_corr:   -0.550437774069556     
 End minimization
 Ecorr=   1417.90943453142     
 A_corr= -0.550437774069556     
 Ecorr_band=  -1418.45987230549     
 End Solvation calculations
RMM:  31    -0.133020162463E+03   -0.98458E-05   -0.25690E-06  2330   0.597E-03
 Begin Solvation calculations
  rms_SCF =   3.862120307995300E-003 tol =   3.862120307995300E-004
 Begin minimization
 Creating dielectric and ionic cavities
  area:      148.742201606457     
  volume:    673.728258851091     
  Acav:     7.808965584339000E-002
  Solving linear dielectric/ionic screening model
        iter                  A_solv                     rms
   LPB:       -0.628856973967676E+00   0.939130480106011E-01
   LPB:    0  -0.628854871640778E+00   0.873452102760398E-01  -0.356363E-03   0.000000E+00   0.331089E+02  -0.117988E-01
   LPB:    1  -0.628829592149015E+00   0.113715788788595E-01   0.979356E-02   0.000000E+00   0.648059E+02  -0.171670E-18
   LPB:    2  -0.628826641978956E+00   0.305864420196903E-02   0.143790E-01   0.794862E-01   0.149319E+03  -0.137474E-15
   LPB:    3  -0.628826296170491E+00   0.184023633866038E-02   0.176000E-01   0.957643E-01   0.187141E+03  -0.177497E-15
   LPB:    4  -0.628826190469478E+00   0.120609495281274E-02   0.224983E-01   0.239114E+00   0.974755E+02  -0.176058E-15
   LPB:    5  -0.628826134532652E+00   0.619141041295512E-03   0.255973E-01   0.465131E+00   0.207642E+03  -0.179231E-15
   LPB:    6  -0.628826094977311E+00   0.238774621318852E-03   0.341554E-01   0.529957E+00   0.149905E+03  -0.191707E-15
  Finished solving LPB equations
  A_corr:   -0.550736439133921     
 End minimization
 Ecorr=   1417.77647010333     
 A_corr= -0.550736439133921     
 Ecorr_band=  -1418.32720654247     
 End Solvation calculations
   1 F= -.13302016E+03 E0= -.13301410E+03  d E =-.133020E+03
quench:  g(F)=  0.000E+00 g(S)=  0.000E+00 dE (1.order)= 0.000E+00
 bond charge predicted
       N       E                     dE             d eps       ncg     rms          rms(c)
 Begin Solvation calculations
  rms_SCF =   3.862120307995300E-003 tol =   3.862120307995300E-004
 Begin minimization
 Creating dielectric and ionic cavities
  area:      148.965700520414     
  volume:    673.709988152601     
  Acav:     7.820699277321741E-002
  Solving linear dielectric/ionic screening model
        iter                  A_solv                     rms
   LPB:       -0.641987424767318E+00   0.111476893711167E-01
   LPB:    0  -0.641987424730936E+00   0.111528715181408E-01  -0.148244E-05   0.000000E+00   0.331098E+02  -0.490833E-04
   LPB:    1  -0.631511088438183E+00   0.427639406735364E-02   0.153866E-01   0.000000E+00   0.709853E+06   0.439162E-21
   LPB:    2  -0.630626818184243E+00   0.437730456368588E-02   0.261584E-01   0.496487E-01   0.130905E+06   0.140003E-19
   LPB:    3  -0.630363537044209E+00   0.757051316456923E-02   0.318486E-01   0.244543E+00   0.268120E+05  -0.178627E-16
   LPB:    4  -0.630252497607270E+00   0.215694154782031E-01   0.350451E-01   0.383283E+00   0.421201E+04  -0.244565E-16
   LPB:    5  -0.630204202513569E+00   0.427016027220806E-01   0.295246E-01   0.516261E+00   0.299160E+03  -0.657322E-16
   LPB:    6  -0.630178373672941E+00   0.221647313722257E-01   0.186340E-01   0.847384E+00   0.195057E+03  -0.730087E-16
   LPB:    7  -0.630155637091061E+00   0.107810089379868E-01   0.308759E-01   0.531259E+00   0.712853E+03  -0.126783E-15
   LPB:    8  -0.630143056501901E+00   0.156253404483585E-01   0.314785E-01   0.542727E+00   0.266189E+03  -0.197807E-15
   LPB:    9  -0.630135434563110E+00   0.108805172003546E-01   0.246471E-01   0.773771E+00   0.205833E+03  -0.235352E-15
   LPB:   10  -0.630129099361103E+00   0.327226742824701E-02   0.312617E-01   0.655312E+00   0.356933E+03  -0.260913E-15
   LPB:   11  -0.630124953683209E+00   0.160772159762695E-02   0.384491E-01   0.532062E+00   0.338902E+04  -0.266234E-15
   LPB:   12  -0.630122288032109E+00   0.177320824735349E-02   0.394701E-01   0.626362E+00   0.166588E+04  -0.272305E-15
   LPB:   13  -0.630120574871860E+00   0.190907979554465E-02   0.363888E-01   0.697099E+00   0.137246E+04  -0.281619E-15
   LPB:   14  -0.630119384850256E+00   0.144165915590928E-02   0.349206E-01   0.723841E+00   0.111710E+04  -0.287615E-15
   LPB:   15  -0.630118530144974E+00   0.851086964910930E-03   0.360947E-01   0.694864E+00   0.177261E+04  -0.291252E-15
   LPB:   16  -0.630117935568185E+00   0.702373862567657E-03   0.391987E-01   0.640564E+00   0.177405E+04  -0.296202E-15
   LPB:   17  -0.630117525921369E+00   0.804750137375959E-03   0.385531E-01   0.700509E+00   0.225286E+04  -0.298423E-15
   LPB:   18  -0.630117242225731E+00   0.791991508577770E-03   0.365507E-01   0.730478E+00   0.110822E+04  -0.300039E-15
   LPB:   19  -0.630117027144086E+00   0.547388855017958E-03   0.362039E-01   0.765405E+00   0.164540E+04  -0.302144E-15
   LPB:   20  -0.630116855618697E+00   0.319815744783928E-03   0.398003E-01   0.725427E+00   0.211555E+04  -0.302967E-15
  Finished solving LPB equations
  A_corr:   -0.551909862845479     
 End minimization
 Ecorr=   1417.48655026752     
 A_corr= -0.551909862845479     
 Ecorr_band=  -1418.03846013036     
 End Solvation calculations
DAV:   1    -0.133024595552E+03   -0.44429E-02   -0.76185E-01  4239   0.149E+00    0.273E-01
 Begin Solvation calculations
  rms_SCF =   3.862120307995300E-003 tol =   3.862120307995300E-004
 Begin minimization
 Creating dielectric and ionic cavities
  area:      148.827274651246     
  volume:    673.600248870434     
  Acav:     7.813431919190406E-002
  Solving linear dielectric/ionic screening model
        iter                  A_solv                     rms
   LPB:       -0.634057958401254E+00   0.269990640910988E+00
   LPB:    0  -0.633962110557090E+00   0.192680660760556E+00  -0.240599E-02   0.000000E+00   0.331149E+02  -0.796743E-01
   LPB:    1  -0.633307247845238E+00   0.946554673881268E-01   0.149561E-01   0.000000E+00   0.136929E+03  -0.126047E-17
   LPB:    2  -0.633221943947671E+00   0.305448331785029E-01   0.139220E-01   0.139937E+00   0.150241E+03   0.464637E-15
   LPB:    3  -0.633185883120751E+00   0.133515312479591E-01   0.214300E-01   0.274630E+00   0.501192E+03   0.570575E-15
   LPB:    4  -0.633172901419968E+00   0.152568936923316E-01   0.243132E-01   0.317305E+00   0.240448E+03   0.609772E-15
   LPB:    5  -0.633166390014696E+00   0.910747027056592E-02   0.221350E-01   0.550940E+00   0.195266E+03   0.582451E-15
   LPB:    6  -0.633162268764517E+00   0.385785372595221E-02   0.304324E-01   0.460361E+00   0.228230E+03   0.605471E-15
   LPB:    7  -0.633159994539088E+00   0.204126854753199E-02   0.335404E-01   0.500694E+00   0.725285E+03   0.610909E-15
   LPB:    8  -0.633158663064112E+00   0.125342982581568E-02   0.337610E-01   0.581637E+00   0.728574E+03   0.631150E-15
   LPB:    9  -0.633157825763904E+00   0.860672837540451E-03   0.356931E-01   0.594812E+00   0.113980E+04   0.649648E-15
   LPB:   10  -0.633157300140631E+00   0.689183113092956E-03   0.365760E-01   0.612606E+00   0.123617E+04   0.661094E-15
   LPB:   11  -0.633156966604934E+00   0.589462496604124E-03   0.370127E-01   0.627065E+00   0.116097E+04   0.667305E-15
   LPB:   12  -0.633156750838423E+00   0.545674713669068E-03   0.363977E-01   0.657838E+00   0.127514E+04   0.670980E-15
   LPB:   13  -0.633156606124740E+00   0.487160081689248E-03   0.360095E-01   0.677926E+00   0.117880E+04   0.672054E-15
   LPB:   14  -0.633156504706129E+00   0.392098898322516E-03   0.360029E-01   0.700951E+00   0.121092E+04   0.672724E-15
   LPB:   15  -0.633156431641376E+00   0.303554309057192E-03   0.371213E-01   0.698723E+00   0.138666E+04   0.673002E-15
  Finished solving LPB equations
  A_corr:   -0.555022112449472     
 End minimization
 Ecorr=   1417.23053499091     
 A_corr= -0.555022112449472     
 Ecorr_band=  -1417.78555710336     
 End Solvation calculations
RMM:   2    -0.133029488434E+03   -0.48929E-02   -0.59141E-02  5855   0.452E-01    0.231E-01
 Begin Solvation calculations
  rms_SCF =   3.862120307995300E-003 tol =   3.862120307995300E-004
 Begin minimization
 Creating dielectric and ionic cavities
  area:      148.821580694793     
  volume:    673.615925895485     
  Acav:     7.813132986476630E-002
  Solving linear dielectric/ionic screening model
        iter                  A_solv                     rms
   LPB:       -0.634241483954140E+00   0.137979941672939E+00
   LPB:    0  -0.634235366113773E+00   0.129231970448186E+00  -0.607865E-03   0.000000E+00   0.331142E+02  -0.201290E-01
   LPB:    1  -0.634153514993245E+00   0.254042477881976E-01   0.105444E-01   0.000000E+00   0.861270E+02  -0.400075E-18
   LPB:    2  -0.634142616485354E+00   0.377183464473281E-02   0.134912E-01   0.104067E+00   0.288319E+03  -0.183850E-15
   LPB:    3  -0.634140171709068E+00   0.276621003462864E-02   0.259348E-01   0.116692E+00   0.695035E+03  -0.232024E-15
   LPB:    4  -0.634139303892851E+00   0.319177926735646E-02   0.280586E-01   0.328099E+00   0.224681E+03  -0.247284E-15
   LPB:    5  -0.634138791948018E+00   0.288914609643274E-02   0.262927E-01   0.629544E+00   0.315829E+03  -0.254554E-15
   LPB:    6  -0.634138412900070E+00   0.162364869731540E-02   0.297180E-01   0.655069E+00   0.151441E+03  -0.258452E-15
   LPB:    7  -0.634138143275789E+00   0.781230374688973E-03   0.329520E-01   0.641508E+00   0.962620E+03  -0.239523E-15
   LPB:    8  -0.634137966464463E+00   0.408056518767853E-03   0.346901E-01   0.622913E+00   0.729329E+03  -0.242783E-15
   LPB:    9  -0.634137850100883E+00   0.313336948937585E-03   0.377782E-01   0.604325E+00   0.170616E+04  -0.251011E-15
  Finished solving LPB equations
  A_corr:   -0.556006520236116     
 End minimization
 Ecorr=   1417.10220527089     
 A_corr= -0.556006520236116     
 Ecorr_band=  -1417.65821179113     
 End Solvation calculations
RMM:   3    -0.133028003150E+03    0.14853E-02   -0.28808E-03  6560   0.100E-01    0.117E-01
 Begin Solvation calculations
  rms_SCF =   3.862120307995300E-003 tol =   3.862120307995300E-004
 Begin minimization
 Creating dielectric and ionic cavities
  area:      148.782787399956     
  volume:    673.595006326998     
  Acav:     7.811096338497689E-002
  Solving linear dielectric/ionic screening model
        iter                  A_solv                     rms
   LPB:       -0.637813496391896E+00   0.224731234505474E+00
   LPB:    0  -0.637726752449717E+00   0.128615209277572E+00  -0.228887E-02   0.000000E+00   0.331152E+02  -0.757963E-01
   LPB:    1  -0.637269344729067E+00   0.373625508880905E-01   0.162606E-01   0.000000E+00   0.150753E+03  -0.569527E-18
   LPB:    2  -0.637225720497111E+00   0.258379401231030E-01   0.170888E-01   0.907504E-01   0.250773E+03   0.129400E-15
   LPB:    3  -0.637211324168963E+00   0.149782737967747E-01   0.193927E-01   0.290802E+00   0.117911E+03   0.258821E-15
   LPB:    4  -0.637205829739765E+00   0.117098649799180E-01   0.237005E-01   0.312286E+00   0.183327E+03   0.422061E-15
   LPB:    5  -0.637203651410620E+00   0.612959430533637E-02   0.186142E-01   0.504793E+00   0.218569E+03   0.482729E-15
   LPB:    6  -0.637202143765949E+00   0.199260867513974E-02   0.256527E-01   0.502213E+00   0.220423E+03   0.495613E-15
   LPB:    7  -0.637201313842154E+00   0.123716688587058E-02   0.325608E-01   0.433687E+00   0.746219E+03   0.464601E-15
   LPB:    8  -0.637200849113186E+00   0.735206736638312E-03   0.332625E-01   0.548153E+00   0.390906E+03   0.445397E-15
   LPB:    9  -0.637200567591040E+00   0.549448293417743E-03   0.350273E-01   0.575255E+00   0.618279E+03   0.444707E-15
   LPB:   10  -0.637200392538317E+00   0.444746999561809E-03   0.361492E-01   0.602511E+00   0.478710E+03   0.442674E-15
   LPB:   11  -0.637200280313354E+00   0.389941823179776E-03   0.362324E-01   0.639620E+00   0.502971E+03   0.441909E-15
   LPB:   12  -0.637200205368049E+00   0.328624671098210E-03   0.359250E-01   0.673528E+00   0.498445E+03   0.441730E-15
  Finished solving LPB equations
  A_corr:   -0.559089241983072     
 End minimization
 Ecorr=   1416.64033606069     
 A_corr= -0.559089241983072     
 Ecorr_band=  -1417.19942530267     
 End Solvation calculations
RMM:   4    -0.133027890549E+03    0.11260E-03   -0.95723E-04  4289   0.969E-02    0.913E-02
 Begin Solvation calculations
  rms_SCF =   3.862120307995300E-003 tol =   3.862120307995300E-004
 Begin minimization
 Creating dielectric and ionic cavities
  area:      148.784219970783     
  volume:    673.605773951145     
  Acav:     7.811171548466081E-002
  Solving linear dielectric/ionic screening model
        iter                  A_solv                     rms
   LPB:       -0.639735428280231E+00   0.304898097830739E+00
   LPB:    0  -0.639706797329649E+00   0.284518329022543E+00  -0.131499E-02   0.000000E+00   0.331147E+02  -0.435455E-01
   LPB:    1  -0.639333186468632E+00   0.525628679645485E-01   0.102430E-01   0.000000E+00   0.852530E+02  -0.943900E-19
   LPB:    2  -0.639284582661310E+00   0.775340274298944E-02   0.137456E-01   0.969423E-01   0.253675E+03  -0.181078E-17
   LPB:    3  -0.639275519139862E+00   0.629935537641049E-02   0.244672E-01   0.104762E+00   0.605206E+03   0.116232E-15
   LPB:    4  -0.639273055607608E+00   0.539507397064507E-02   0.236462E-01   0.281244E+00   0.161075E+03   0.120629E-15
   LPB:    5  -0.639271971548709E+00   0.365011206275661E-02   0.225275E-01   0.461895E+00   0.306509E+03   0.395825E-16
   LPB:    6  -0.639271394573103E+00   0.140119896206368E-02   0.271283E-01   0.441973E+00   0.140126E+03  -0.139411E-16
   LPB:    7  -0.639271079041896E+00   0.809954967387524E-03   0.308766E-01   0.480482E+00   0.606758E+03  -0.386167E-17
   LPB:    8  -0.639270877411924E+00   0.424709412820537E-03   0.356216E-01   0.553897E+00   0.260530E+03   0.429258E-17
   LPB:    9  -0.639270741226031E+00   0.369919275788511E-03   0.382068E-01   0.629724E+00   0.294756E+03   0.827335E-17
  Finished solving LPB equations
  A_corr:   -0.561159025741370     
 End minimization
 Ecorr=   1416.27087845583     
 A_corr= -0.561159025741370     
 Ecorr_band=  -1416.83203748157     
 End Solvation calculations
RMM:   5    -0.133027749170E+03    0.14138E-03   -0.54948E-04  4086   0.105E-01    0.500E-02
 Begin Solvation calculations
  rms_SCF =   3.862120307995300E-003 tol =   3.862120307995300E-004
 Begin minimization
 Creating dielectric and ionic cavities
  area:      148.794933156862     
  volume:    673.636042122975     
  Acav:     7.811733990735276E-002
  Solving linear dielectric/ionic screening model
        iter                  A_solv                     rms
   LPB:       -0.641679418413292E+00   0.151475615121464E+00
   LPB:    0  -0.641646262416732E+00   0.927812906438924E-01  -0.141513E-02   0.000000E+00   0.331133E+02  -0.468594E-01
   LPB:    1  -0.641460714002425E+00   0.234091903266518E-01   0.161767E-01   0.000000E+00   0.116944E+03  -0.164648E-17
   LPB:    2  -0.641444715098679E+00   0.171327427882093E-01   0.159380E-01   0.875165E-01   0.265780E+03   0.169228E-14
   LPB:    3  -0.641439849993691E+00   0.970067110720544E-02   0.183068E-01   0.264742E+00   0.971538E+02   0.191302E-14
   LPB:    4  -0.641438023561007E+00   0.621587127606742E-02   0.217521E-01   0.315953E+00   0.146324E+03   0.196429E-14
   LPB:    5  -0.641437217966481E+00   0.326852499792054E-02   0.199839E-01   0.480102E+00   0.263446E+03   0.198508E-14
   LPB:    6  -0.641436673816456E+00   0.117876612109439E-02   0.280800E-01   0.480713E+00   0.138727E+03   0.198775E-14
   LPB:    7  -0.641436332501875E+00   0.843101543517979E-03   0.340973E-01   0.516552E+00   0.290466E+03   0.196415E-14
   LPB:    8  -0.641436108473896E+00   0.542560612151297E-03   0.354469E-01   0.631377E+00   0.182256E+03   0.195505E-14
   LPB:    9  -0.641435956664708E+00   0.431976518841115E-03   0.371080E-01   0.647302E+00   0.219827E+03   0.195230E-14
   LPB:   10  -0.641435855206871E+00   0.378175024189012E-03   0.370230E-01   0.669859E+00   0.206744E+03   0.195070E-14
  Finished solving LPB equations
  A_corr:   -0.563318515299519     
 End minimization
 Ecorr=   1415.75014025172     
 A_corr= -0.563318515299519     
 Ecorr_band=  -1416.31345876702     
 End Solvation calculations
RMM:   6    -0.133027695055E+03    0.54116E-04   -0.18060E-04  4118   0.469E-02    0.327E-02
 Begin Solvation calculations
  rms_SCF =   3.862120307995300E-003 tol =   3.862120307995300E-004
 Begin minimization
 Creating dielectric and ionic cavities
  area:      148.807759227079     
  volume:    673.647341507842     
  Acav:     7.812407359421644E-002
  Solving linear dielectric/ionic screening model
        iter                  A_solv                     rms
   LPB:       -0.642165077535119E+00   0.624856397737764E-01
   LPB:    0  -0.642161498607712E+00   0.481051883460167E-01  -0.464937E-03   0.000000E+00   0.331127E+02  -0.153953E-01
   LPB:    1  -0.642143478977892E+00   0.172265429919282E-01   0.117084E-01   0.000000E+00   0.961187E+02   0.485610E-18
   LPB:    2  -0.642141057567475E+00   0.253745680368852E-02   0.128423E-01   0.122511E+00   0.124698E+03   0.493202E-16
   LPB:    3  -0.642140555119414E+00   0.198541470279848E-02   0.215271E-01   0.123788E+00   0.319580E+03   0.308676E-16
   LPB:    4  -0.642140397475596E+00   0.145443026413773E-02   0.230780E-01   0.292666E+00   0.932053E+02   0.250277E-16
   LPB:    5  -0.642140314571128E+00   0.101520822209515E-02   0.242988E-01   0.499477E+00   0.328193E+03   0.301849E-16
   LPB:    6  -0.642140252903980E+00   0.438885621299206E-03   0.345120E-01   0.523709E+00   0.847629E+02   0.287795E-16
   LPB:    7  -0.642140187845365E+00   0.382559118427235E-03   0.435255E-01   0.836521E+00   0.106746E+03   0.330805E-16
  Finished solving LPB equations
  A_corr:   -0.564016114251149     
 End minimization
 Ecorr=   1415.57840590092     
 A_corr= -0.564016114251149     
 Ecorr_band=  -1416.14242201517     
 End Solvation calculations
RMM:   7    -0.133027690079E+03    0.49755E-05   -0.57571E-05  3125   0.313E-02
 Begin Solvation calculations
  rms_SCF =   3.862120307995300E-003 tol =   3.862120307995300E-004
 Begin minimization
 Creating dielectric and ionic cavities
  area:      148.859014137258     
  volume:    673.711449236164     
  Acav:     7.815098242206069E-002
  Solving linear dielectric/ionic screening model
        iter                  A_solv                     rms
   LPB:       -0.645349144266132E+00   0.204537823713892E+00
   LPB:    0  -0.645297071901841E+00   0.131678185653891E+00  -0.177354E-02   0.000000E+00   0.331097E+02  -0.587214E-01
   LPB:    1  -0.645043013856941E+00   0.603316244647181E-01   0.143152E-01   0.000000E+00   0.100234E+03   0.228468E-17
   LPB:    2  -0.645017309289194E+00   0.142787726972954E-01   0.129840E-01   0.111549E+00   0.948677E+02   0.320352E-15
   LPB:    3  -0.645010422768565E+00   0.775329228839175E-02   0.184759E-01   0.188275E+00   0.303324E+03   0.313112E-15
   LPB:    4  -0.645008056352002E+00   0.577353982753135E-02   0.226060E-01   0.280849E+00   0.934802E+02   0.327549E-15
   LPB:    5  -0.645006878830441E+00   0.416926238424634E-02   0.233616E-01   0.481503E+00   0.307391E+03   0.307373E-15
   LPB:    6  -0.645006068271551E+00   0.138643705022763E-02   0.306955E-01   0.523895E+00   0.887379E+02   0.304962E-15
   LPB:    7  -0.645005526065116E+00   0.100955170287233E-02   0.348928E-01   0.588463E+00   0.169055E+03   0.288144E-15
   LPB:    8  -0.645005153676545E+00   0.692189218670704E-03   0.368125E-01   0.650986E+00   0.132230E+03   0.276376E-15
   LPB:    9  -0.645004901848476E+00   0.613752805513068E-03   0.374057E-01   0.665527E+00   0.175652E+03   0.276997E-15
   LPB:   10  -0.645004735268590E+00   0.532393736053805E-03   0.358548E-01   0.690094E+00   0.156411E+03   0.277331E-15
   LPB:   11  -0.645004622475617E+00   0.437772935742518E-03   0.353076E-01   0.687603E+00   0.259001E+03   0.276165E-15
   LPB:   12  -0.645004546192112E+00   0.288862294362943E-03   0.356326E-01   0.670147E+00   0.212738E+03   0.274162E-15
  Finished solving LPB equations
  A_corr:   -0.566853563770051     
 End minimization
 Ecorr=   1414.70858798120     
 A_corr= -0.566853563770051     
 Ecorr_band=  -1415.27544154497     
 End Solvation calculations
   2 F= -.13302769E+03 E0= -.13302165E+03  d E =-.752762E-02
quench:  g(F)=  0.000E+00 g(S)=  0.000E+00 dE (1.order)= 0.000E+00
 bond charge predicted
       N       E                     dE             d eps       ncg     rms          rms(c)
 Begin Solvation calculations
  rms_SCF =   3.862120307995300E-003 tol =   3.862120307995300E-004
 Begin minimization
 Creating dielectric and ionic cavities
  area:      149.064374874364     
  volume:    673.595598611605     
  Acav:     7.825879680904130E-002
  Solving linear dielectric/ionic screening model
        iter                  A_solv                     rms
   LPB:       -0.653356749139876E+00   0.959031446396600E-02
   LPB:    0  -0.653356747073507E+00   0.986009298679034E-02  -0.111713E-04   0.000000E+00   0.331152E+02  -0.369941E-03
   LPB:    1  -0.647988006423604E+00   0.392898725772647E-02   0.154159E-01   0.000000E+00   0.369619E+06  -0.247984E-19
   LPB:    2  -0.647557552172878E+00   0.530546735350783E-02   0.262931E-01   0.470090E-01   0.763015E+05   0.236643E-16
   LPB:    3  -0.647425822085912E+00   0.118886181580330E-01   0.323460E-01   0.248760E+00   0.116670E+05   0.375415E-16
   LPB:    4  -0.647369882087981E+00   0.301796090021769E-01   0.335948E-01   0.408870E+00   0.858620E+03   0.426221E-16
   LPB:    5  -0.647346786517653E+00   0.321091833822633E-01   0.213403E-01   0.649948E+00   0.177587E+03   0.373804E-16
   LPB:    6  -0.647327098887504E+00   0.963162657431650E-02   0.234230E-01   0.776644E+00   0.365455E+03   0.322185E-16
   LPB:    7  -0.647313338813050E+00   0.842498875452181E-02   0.359433E-01   0.455461E+00   0.525603E+03   0.636413E-16
   LPB:    8  -0.647305921687753E+00   0.131539576579861E-01   0.308394E-01   0.628242E+00   0.349582E+03   0.728789E-16
   LPB:    9  -0.647301256648530E+00   0.685713457879974E-02   0.242613E-01   0.799489E+00   0.130966E+03   0.163452E-15
   LPB:   10  -0.647297544529801E+00   0.215807732544022E-02   0.330349E-01   0.584395E+00   0.115155E+04   0.273712E-15
   LPB:   11  -0.647295096663739E+00   0.931279862653009E-03   0.392044E-01   0.555654E+00   0.885914E+03   0.333436E-15
   LPB:   12  -0.647293499001889E+00   0.124627316027419E-02   0.405191E-01   0.631498E+00   0.835212E+03   0.374568E-15
   LPB:   13  -0.647292467481426E+00   0.146428116349648E-02   0.369973E-01   0.707103E+00   0.992808E+03   0.402748E-15
   LPB:   14  -0.647291827730435E+00   0.114753527689975E-02   0.338784E-01   0.677299E+00   0.534418E+03   0.424758E-15
   LPB:   15  -0.647291350294136E+00   0.699745485541391E-03   0.368213E-01   0.686639E+00   0.101822E+04   0.441531E-15
   LPB:   16  -0.647291047563446E+00   0.470603936339365E-03   0.357930E-01   0.652292E+00   0.984262E+03   0.452210E-15
   LPB:   17  -0.647290843971466E+00   0.558925040496395E-03   0.399950E-01   0.601862E+00   0.857069E+03   0.454296E-15
   LPB:   18  -0.647290701875272E+00   0.576251827565984E-03   0.363284E-01   0.768388E+00   0.102942E+04   0.455791E-15
   LPB:   19  -0.647290602603258E+00   0.397715620783794E-03   0.347558E-01   0.730236E+00   0.681047E+03   0.456811E-15
   LPB:   20  -0.647290533583667E+00   0.226052789202834E-03   0.366255E-01   0.659765E+00   0.127002E+04   0.456658E-15
  Finished solving LPB equations
  A_corr:   -0.569031736774626     
 End minimization
 Ecorr=   1414.30845193245     
 A_corr= -0.569031736774626     
 Ecorr_band=  -1414.87748366923     
 End Solvation calculations
DAV:   1    -0.133030152492E+03   -0.24574E-02   -0.39393E-01  4050   0.131E+00    0.128E-01
 Begin Solvation calculations
  rms_SCF =   3.862120307995300E-003 tol =   3.862120307995300E-004
 Begin minimization
 Creating dielectric and ionic cavities
  area:      148.914247195652     
  volume:    673.596379506896     
  Acav:     7.817997977771730E-002
  Solving linear dielectric/ionic screening model
        iter                  A_solv                     rms
   LPB:       -0.648898910558065E+00   0.121079267381714E+00
   LPB:    0  -0.648881644744436E+00   0.834209613847381E-01  -0.102116E-02   0.000000E+00   0.331151E+02  -0.338160E-01
   LPB:    1  -0.648826601436827E+00   0.310601477776131E-01   0.120884E-01   0.000000E+00   0.836461E+02   0.173433E-17
   LPB:    2  -0.648818196525531E+00   0.582784498858062E-02   0.136618E-01   0.135111E+00   0.114599E+03   0.137378E-15
   LPB:    3  -0.648816161527290E+00   0.486143031195020E-02   0.210482E-01   0.157154E+00   0.345428E+03   0.170051E-15
   LPB:    4  -0.648815410280422E+00   0.346184857131367E-02   0.216501E-01   0.358899E+00   0.106323E+03   0.161514E-15
   LPB:    5  -0.648814978809344E+00   0.164645458988548E-02   0.256159E-01   0.485422E+00   0.326063E+03   0.164207E-15
   LPB:    6  -0.648814717364147E+00   0.618494597058684E-03   0.327591E-01   0.473813E+00   0.282651E+03   0.156298E-15
   LPB:    7  -0.648814556596814E+00   0.477024492145047E-03   0.344915E-01   0.584033E+00   0.544755E+03   0.144715E-15
   LPB:    8  -0.648814448663309E+00   0.332146866014078E-03   0.366223E-01   0.632302E+00   0.620346E+03   0.136047E-15
  Finished solving LPB equations
  A_corr:   -0.570634468885592     
 End minimization
 Ecorr=   1414.02965035254     
 A_corr= -0.570634468885592     
 Ecorr_band=  -1414.60028482142     
 End Solvation calculations
RMM:   2    -0.133031414288E+03   -0.12618E-02   -0.14319E-02  4802   0.348E-01    0.639E-02
 Begin Solvation calculations
  rms_SCF =   3.862120307995300E-003 tol =   3.862120307995300E-004
 Begin minimization
 Creating dielectric and ionic cavities
  area:      148.907155382078     
  volume:    673.616871842902     
  Acav:     7.817625657559107E-002
  Solving linear dielectric/ionic screening model
        iter                  A_solv                     rms
   LPB:       -0.649432482326094E+00   0.532140921919389E-01
   LPB:    0  -0.649428728946456E+00   0.335277052421529E-01  -0.476123E-03   0.000000E+00   0.331142E+02  -0.157664E-01
   LPB:    1  -0.649416374870832E+00   0.154482459792337E-01   0.129654E-01   0.000000E+00   0.904356E+02  -0.454502E-18
   LPB:    2  -0.649414588168065E+00   0.364597235347904E-02   0.138399E-01   0.135487E+00   0.842250E+02  -0.732723E-17
   LPB:    3  -0.649414104973944E+00   0.217838082522116E-02   0.195536E-01   0.191415E+00   0.359731E+03  -0.811807E-17
   LPB:    4  -0.649413914274974E+00   0.152678519815149E-02   0.229889E-01   0.335686E+00   0.116695E+03  -0.558942E-17
   LPB:    5  -0.649413813244518E+00   0.112305651966565E-02   0.249961E-01   0.487248E+00   0.358126E+03  -0.214261E-16
   LPB:    6  -0.649413728315819E+00   0.417786141058097E-03   0.340565E-01   0.616985E+00   0.125212E+03  -0.283423E-16
   LPB:    7  -0.649413665191759E+00   0.353461283386064E-03   0.379573E-01   0.666875E+00   0.231534E+03  -0.409047E-16
  Finished solving LPB equations
  A_corr:   -0.571237408616168     
 End minimization
 Ecorr=   1413.86776556014     
 A_corr= -0.571237408616168     
 Ecorr_band=  -1414.43900296876     
 End Solvation calculations
RMM:   3    -0.133031311367E+03    0.10292E-03   -0.11471E-03  5011   0.103E-01    0.610E-02
 Begin Solvation calculations
  rms_SCF =   3.862120307995300E-003 tol =   3.862120307995300E-004
 Begin minimization
 Creating dielectric and ionic cavities
  area:      148.910024512682     
  volume:    673.627940351000     
  Acav:     7.817776286915783E-002
  Solving linear dielectric/ionic screening model
        iter                  A_solv                     rms
   LPB:       -0.649823088898008E+00   0.361605673272792E-01
   LPB:    0  -0.649821504259273E+00   0.236838363415119E-01  -0.309369E-03   0.000000E+00   0.331136E+02  -0.102443E-01
   LPB:    1  -0.649815869443740E+00   0.548235629236098E-02   0.150684E-01   0.000000E+00   0.625132E+02  -0.621074E-18
   LPB:    2  -0.649815234251598E+00   0.248636018477085E-02   0.148042E-01   0.114738E+00   0.232223E+03  -0.125317E-16
   LPB:    3  -0.649815081010913E+00   0.162131164129252E-02   0.194458E-01   0.183666E+00   0.116799E+03  -0.346870E-16
   LPB:    4  -0.649815019250888E+00   0.130376772219518E-02   0.219913E-01   0.356376E+00   0.125767E+03  -0.207943E-16
   LPB:    5  -0.649814975345512E+00   0.767967463349790E-03   0.250656E-01   0.623709E+00   0.157010E+03  -0.110866E-16
   LPB:    6  -0.649814928219768E+00   0.342775007183088E-03   0.347805E-01   0.773540E+00   0.981346E+02  -0.461907E-17
  Finished solving LPB equations
  A_corr:   -0.571637165350610     
 End minimization
 Ecorr=   1413.74907426408     
 A_corr= -0.571637165350610     
 Ecorr_band=  -1414.32071142943     
 End Solvation calculations
RMM:   4    -0.133031282700E+03    0.28667E-04   -0.16974E-04  3853   0.517E-02    0.362E-02
 Begin Solvation calculations
  rms_SCF =   3.862120307995300E-003 tol =   3.862120307995300E-004
 Begin minimization
 Creating dielectric and ionic cavities
  area:      148.919322222886     
  volume:    673.651632470942     
  Acav:     7.818264416701540E-002
  Solving linear dielectric/ionic screening model
        iter                  A_solv                     rms
   LPB:       -0.650848309263984E+00   0.816239075250474E-01
   LPB:    0  -0.650839598155548E+00   0.511387450198035E-01  -0.725363E-03   0.000000E+00   0.331125E+02  -0.240186E-01
   LPB:    1  -0.650809148146038E+00   0.234450092941863E-01   0.136020E-01   0.000000E+00   0.857915E+02   0.139861E-17
   LPB:    2  -0.650805075247132E+00   0.539052342969195E-02   0.134752E-01   0.135016E+00   0.877590E+02  -0.348946E-15
   LPB:    3  -0.650804080377928E+00   0.341690824594566E-02   0.187992E-01   0.175088E+00   0.353662E+03  -0.388159E-15
   LPB:    4  -0.650803672228075E+00   0.235260875199000E-02   0.232655E-01   0.331498E+00   0.930134E+02  -0.397323E-15
   LPB:    5  -0.650803436944887E+00   0.163649161363966E-02   0.252338E-01   0.531497E+00   0.315047E+03  -0.398806E-15
   LPB:    6  -0.650803258861285E+00   0.586717241324271E-03   0.323421E-01   0.590537E+00   0.107586E+03  -0.397564E-15
   LPB:    7  -0.650803134186365E+00   0.475533948048024E-03   0.368777E-01   0.613986E+00   0.191922E+03  -0.396550E-15
   LPB:    8  -0.650803048925703E+00   0.373493198397266E-03   0.373047E-01   0.676037E+00   0.156953E+03  -0.390917E-15
  Finished solving LPB equations
  A_corr:   -0.572620404758687     
 End minimization
 Ecorr=   1413.45385863558     
 A_corr= -0.572620404758687     
 Ecorr_band=  -1414.02647904034     
 End Solvation calculations
RMM:   5    -0.133031304153E+03   -0.21453E-04   -0.48782E-05  2846   0.248E-02    0.205E-02
 Begin Solvation calculations
  rms_SCF =   3.862120307995300E-003 tol =   3.862120307995300E-004
 Begin minimization
 Creating dielectric and ionic cavities
  area:      148.929392789556     
  volume:    673.671487238390     
  Acav:     7.818793121451670E-002
  Solving linear dielectric/ionic screening model
        iter                  A_solv                     rms
   LPB:       -0.651576384072684E+00   0.635573579640258E-01
   LPB:    0  -0.651571690318433E+00   0.419900213658058E-01  -0.532458E-03   0.000000E+00   0.331116E+02  -0.176305E-01
   LPB:    1  -0.651551679281279E+00   0.104958687969716E-01   0.152701E-01   0.000000E+00   0.681853E+02   0.836073E-18
   LPB:    2  -0.651549621315599E+00   0.384741550859994E-02   0.155282E-01   0.101133E+00   0.152065E+03  -0.861302E-16
   LPB:    3  -0.651549120559867E+00   0.129962998968307E-02   0.211293E-01   0.178823E+00   0.131315E+03  -0.692757E-16
   LPB:    4  -0.651548909410017E+00   0.893928030851739E-03   0.262218E-01   0.339772E+00   0.260180E+03  -0.657699E-16
   LPB:    5  -0.651548779049350E+00   0.191408904693412E-02   0.345876E-01   0.468055E+00   0.156091E+03  -0.637298E-16
   LPB:    6  -0.651548692585185E+00   0.191866713891222E-02   0.242163E-01   0.947332E+00   0.683968E+02  -0.654940E-16
   LPB:    7  -0.651548600844973E+00   0.693336573564917E-03   0.272850E-01   0.941690E+00   0.139655E+03  -0.668381E-16
   LPB:    8  -0.651548526942470E+00   0.364853435837334E-03   0.355564E-01   0.618167E+00   0.103833E+03  -0.691911E-16
  Finished solving LPB equations
  A_corr:   -0.573360595727953     
 End minimization
 Ecorr=   1413.18922449817     
 A_corr= -0.573360595727953     
 Ecorr_band=  -1413.76258509390     
 End Solvation calculations
RMM:   6    -0.133031324544E+03   -0.20390E-04   -0.46766E-05  3125   0.308E-02    0.175E-02
 Begin Solvation calculations
  rms_SCF =   3.862120307995300E-003 tol =   3.862120307995300E-004
 Begin minimization
 Creating dielectric and ionic cavities
  area:      148.935697424691     
  volume:    673.677302695966     
  Acav:     7.819124114796260E-002
  Solving linear dielectric/ionic screening model
        iter                  A_solv                     rms
   LPB:       -0.651930862845207E+00   0.323439987843691E-01
   LPB:    0  -0.651929725120864E+00   0.220742483421335E-01  -0.262147E-03   0.000000E+00   0.331113E+02  -0.868004E-02
   LPB:    1  -0.651925702057844E+00   0.930445681829443E-02   0.115693E-01   0.000000E+00   0.891163E+02   0.546028E-18
   LPB:    2  -0.651925087265142E+00   0.170615523975786E-02   0.139810E-01   0.126455E+00   0.732962E+02  -0.368184E-16
   LPB:    3  -0.651924966828634E+00   0.121631659097084E-02   0.189850E-01   0.144264E+00   0.327048E+03  -0.494517E-16
   LPB:    4  -0.651924920309004E+00   0.685247738246825E-03   0.229002E-01   0.320220E+00   0.897596E+02  -0.506823E-16
   LPB:    5  -0.651924889488616E+00   0.580054635690694E-03   0.296763E-01   0.511248E+00   0.261836E+03  -0.433886E-16
   LPB:    6  -0.651924847203461E+00   0.302737702269793E-03   0.463752E-01   0.877958E+00   0.670418E+02  -0.334694E-16
  Finished solving LPB equations
  A_corr:   -0.573733606055498     
 End minimization
 Ecorr=   1413.07819718873     
 A_corr= -0.573733606055498     
[...]
 Begin minimization
 Creating dielectric and ionic cavities
  area:      149.763468353055     
  volume:    673.104360072552     
  Acav:     7.862582088535373E-002
  Solving linear dielectric/ionic screening model
        iter                  A_solv                     rms
   LPB:       -0.720511027520745E+00   0.261778736737907E-01
   LPB:    0  -0.720511027359179E+00   0.261748920584351E-01   0.312266E-05   0.000000E+00   0.331382E+02   0.103479E-03
   LPB:    1  -0.720509051231569E+00   0.262902694431212E-02   0.889620E-02   0.000000E+00   0.728656E+02  -0.674096E-21
   LPB:    2  -0.720508863101918E+00   0.450815910310504E-03   0.164182E-01   0.515846E-01   0.133365E+03  -0.287801E-17
   LPB:    3  -0.720508839999243E+00   0.208915881719746E-03   0.225152E-01   0.895478E-01   0.248459E+03  -0.319963E-17
   LPB:    4  -0.720508833035787E+00   0.126443796574648E-03   0.283342E-01   0.239512E+00   0.338953E+03  -0.551360E-17
   LPB:    5  -0.720508830114742E+00   0.143691877865745E-03   0.285041E-01   0.416982E+00   0.386031E+03  -0.664753E-17
   LPB:    6  -0.720508828651286E+00   0.146678959524590E-03   0.270044E-01   0.528828E+00   0.191516E+03  -0.710384E-17
   LPB:    7  -0.720508827823971E+00   0.974033176937557E-04   0.252777E-01   0.603933E+00   0.205015E+03  -0.628582E-17
   LPB:    8  -0.720508827220635E+00   0.372004661981200E-04   0.315957E-01   0.583441E+00   0.267837E+03  -0.529907E-17
  Finished solving LPB equations
  A_corr:   -0.641883006335282     
 End minimization
 Ecorr=   1402.16182382373     
 A_corr= -0.641883006335282     
 Ecorr_band=  -1402.80370683007     
 End Solvation calculations
RMM:   3    -0.133026390019E+03    0.30770E-05   -0.14257E-05  2313   0.170E-02
 Begin Solvation calculations
  rms_SCF =   5.902799261094605E-004 tol =   5.902799261094605E-005
 Begin minimization
 Creating dielectric and ionic cavities
  area:      149.762897203597     
  volume:    673.104253337109     
  Acav:     7.862552103188825E-002
  Solving linear dielectric/ionic screening model
        iter                  A_solv                     rms
   LPB:       -0.720517891278106E+00   0.806353493653068E-02
   LPB:    0  -0.720517890610839E+00   0.805763943445848E-02  -0.634601E-05   0.000000E+00   0.331382E+02  -0.210295E-03
   LPB:    1  -0.720517679517559E+00   0.811153846217726E-03   0.903635E-02   0.000000E+00   0.796347E+02  -0.327957E-20
   LPB:    2  -0.720517652656288E+00   0.179691152099811E-03   0.177959E-01   0.646137E-01   0.199376E+03  -0.475612E-18
   LPB:    3  -0.720517648813403E+00   0.131465540291878E-03   0.240779E-01   0.105739E+00   0.279272E+03  -0.417075E-18
   LPB:    4  -0.720517647312871E+00   0.103836805023123E-03   0.281212E-01   0.334328E+00   0.287083E+03  -0.139263E-18
   LPB:    5  -0.720517646641142E+00   0.937711343190671E-04   0.269760E-01   0.466665E+00   0.229115E+03   0.626790E-18
   LPB:    6  -0.720517646246386E+00   0.591474855465995E-04   0.257463E-01   0.615739E+00   0.280044E+03   0.145560E-17
   LPB:    7  -0.720517645941530E+00   0.346782785653968E-04   0.325554E-01   0.610742E+00   0.444772E+03   0.214850E-17
  Finished solving LPB equations
  A_corr:   -0.641892124909642     
 End minimization
 Ecorr=   1402.16154612691     
 A_corr= -0.641892124909642     
 Ecorr_band=  -1402.80343825182     
 End Solvation calculations
 176 F= -.13302639E+03 E0= -.13302116E+03  d E =0.339522E-05
quench:  g(F)=  0.000E+00 g(S)=  0.000E+00 dE (1.order)= 0.000E+00
 bond charge predicted
       N       E                     dE             d eps       ncg     rms          rms(c)
 Begin Solvation calculations
  rms_SCF =   5.902799261094605E-004 tol =   5.902799261094605E-005
 Begin minimization
 Creating dielectric and ionic cavities
  area:      149.758606481603     
  volume:    673.098573707495     
  Acav:     7.862326840284180E-002
  Solving linear dielectric/ionic screening model
        iter                  A_solv                     rms
   LPB:       -0.720601200674332E+00   0.857794199823050E-03
   LPB:    0  -0.720601200668545E+00   0.866386222340200E-03  -0.590956E-06   0.000000E+00   0.331385E+02  -0.195834E-04
   LPB:    1  -0.720546011001207E+00   0.353441668808314E-03   0.159938E-01   0.000000E+00   0.518633E+06   0.912490E-21
   LPB:    2  -0.720539420653697E+00   0.326038254544774E-03   0.277138E-01   0.689138E-01   0.121998E+06   0.155178E-17
   LPB:    3  -0.720537242210476E+00   0.606598606206109E-03   0.331648E-01   0.276221E+00   0.327917E+05   0.210099E-17
   LPB:    4  -0.720536276114810E+00   0.134382456186792E-02   0.356461E-01   0.412609E+00   0.435467E+04   0.336441E-17
   LPB:    5  -0.720535819721548E+00   0.275849044569609E-02   0.333157E-01   0.505454E+00   0.527542E+03   0.736797E-17
   LPB:    6  -0.720535605491409E+00   0.250877945774164E-02   0.225615E-01   0.693142E+00   0.171558E+03   0.847555E-17
   LPB:    7  -0.720535440718961E+00   0.147384308390153E-02   0.251260E-01   0.690636E+00   0.353589E+03   0.163067E-16
   LPB:    8  -0.720535346524199E+00   0.175841424586951E-02   0.264040E-01   0.543996E+00   0.236455E+03   0.248142E-16
   LPB:    9  -0.720535283107652E+00   0.791198388589029E-03   0.223589E-01   0.795051E+00   0.199489E+03   0.299039E-16
   LPB:   10  -0.720535231838048E+00   0.201104312087325E-03   0.337549E-01   0.535514E+00   0.955065E+03   0.267783E-16
   LPB:   11  -0.720535198298914E+00   0.100275359657653E-03   0.403083E-01   0.547816E+00   0.629211E+04   0.235030E-16
   LPB:   12  -0.720535177834316E+00   0.126346643053936E-03   0.384660E-01   0.639395E+00   0.502114E+04   0.232000E-16
   LPB:   13  -0.720535164969477E+00   0.155165546826983E-03   0.374946E-01   0.644925E+00   0.230564E+04   0.228116E-16
   LPB:   14  -0.720535156608513E+00   0.132643265742968E-03   0.340732E-01   0.715169E+00   0.148567E+04   0.225534E-16
   LPB:   15  -0.720535150679559E+00   0.793192961639944E-04   0.348158E-01   0.693996E+00   0.196048E+04   0.222878E-16
   LPB:   16  -0.720535146543831E+00   0.547952762796577E-04   0.380284E-01   0.638621E+00   0.322215E+04   0.220904E-16
  Finished solving LPB equations
  A_corr:   -0.641911878140989     
 End minimization
 Ecorr=   1402.16331631098     
 A_corr= -0.641911878140989     
 Ecorr_band=  -1402.80522818912     
 End Solvation calculations
DAV:   1    -0.133026368625E+03    0.24470E-04   -0.35768E-03  4212   0.118E-01    0.137E-02
 Begin Solvation calculations
  rms_SCF =   5.902799261094605E-004 tol =   5.902799261094605E-005
 Begin minimization
 Creating dielectric and ionic cavities
  area:      149.760717955795     
  volume:    673.101304189673     
  Acav:     7.862437692679262E-002
  Solving linear dielectric/ionic screening model
        iter                  A_solv                     rms
   LPB:       -0.720479630326332E+00   0.751856393442600E-02
   LPB:    0  -0.720479605486014E+00   0.688000679311653E-02   0.387194E-04   0.000000E+00   0.331383E+02   0.128310E-02
   LPB:    1  -0.720479086200089E+00   0.336552536559694E-02   0.138028E-01   0.000000E+00   0.111828E+03   0.562477E-19
   LPB:    2  -0.720478960914812E+00   0.526261016672826E-03   0.136954E-01   0.243157E+00   0.245669E+03   0.367382E-17
   LPB:    3  -0.720478928355810E+00   0.250632151050195E-03   0.275189E-01   0.129335E+00   0.626400E+03   0.443843E-17
   LPB:    4  -0.720478917174369E+00   0.283163124018422E-03   0.277223E-01   0.340901E+00   0.581806E+03   0.527048E-17
   LPB:    5  -0.720478911865905E+00   0.286690623653377E-03   0.256638E-01   0.512836E+00   0.284073E+03   0.483090E-17
   LPB:    6  -0.720478908538042E+00   0.187989315086754E-03   0.266388E-01   0.603952E+00   0.188637E+03   0.447919E-17
   LPB:    7  -0.720478906195859E+00   0.108169130947408E-03   0.320181E-01   0.585565E+00   0.318735E+03   0.560152E-17
   LPB:    8  -0.720478904550101E+00   0.701944282642667E-04   0.355669E-01   0.632551E+00   0.565873E+03   0.348042E-17
   LPB:    9  -0.720478903367889E+00   0.430262756435840E-04   0.367625E-01   0.694976E+00   0.939122E+03   0.238761E-17
  Finished solving LPB equations
  A_corr:   -0.641854526441097     
 End minimization
 Ecorr=   1402.16877559710     
 A_corr= -0.641854526441097     
 Ecorr_band=  -1402.81063012354     
 End Solvation calculations
RMM:   2    -0.133026384559E+03   -0.15934E-04   -0.18224E-04  3662   0.282E-02    0.995E-03
 Begin Solvation calculations
  rms_SCF =   5.902799261094605E-004 tol =   5.902799261094605E-005
 Begin minimization
 Creating dielectric and ionic cavities
  area:      149.759537356094     
  volume:    673.101397960571     
  Acav:     7.862375711194936E-002
  Solving linear dielectric/ionic screening model
        iter                  A_solv                     rms
   LPB:       -0.720449853253815E+00   0.743442151782304E-02
   LPB:    0  -0.720449849274107E+00   0.732458396348990E-02   0.154980E-04   0.000000E+00   0.331383E+02   0.513577E-03
   LPB:    1  -0.720449624254708E+00   0.113256939396829E-02   0.999628E-02   0.000000E+00   0.835060E+02  -0.502639E-21
   LPB:    2  -0.720449590578768E+00   0.185208867814790E-03   0.149358E-01   0.100163E+00   0.354787E+03   0.208758E-17
   LPB:    3  -0.720449584744699E+00   0.125786578011744E-03   0.240554E-01   0.107565E+00   0.725019E+03   0.200696E-17
   LPB:    4  -0.720449582869296E+00   0.118479165328516E-03   0.279917E-01   0.276252E+00   0.287908E+03   0.156558E-17
   LPB:    5  -0.720449582037635E+00   0.115630330453460E-03   0.251695E-01   0.493182E+00   0.293829E+03   0.417049E-18
   LPB:    6  -0.720449581401676E+00   0.794751979606432E-04   0.302788E-01   0.635650E+00   0.160550E+03  -0.539786E-18
   LPB:    7  -0.720449580824752E+00   0.499256606515242E-04   0.356605E-01   0.770266E+00   0.573360E+03  -0.235166E-17
  Finished solving LPB equations
  A_corr:   -0.641825823712802     
 End minimization
 Ecorr=   1402.17191503717     
 A_corr= -0.641825823712802     
 Ecorr_band=  -1402.81374086088     
 End Solvation calculations
RMM:   3    -0.133026381585E+03    0.29741E-05   -0.91474E-06  2252   0.122E-02
 Begin Solvation calculations
  rms_SCF =   5.902799261094605E-004 tol =   5.902799261094605E-005
 Begin minimization
 Creating dielectric and ionic cavities
  area:      149.759390203745     
  volume:    673.102515950253     
  Acav:     7.862367985696631E-002
  Solving linear dielectric/ionic screening model
        iter                  A_solv                     rms
   LPB:       -0.720377889046117E+00   0.547317313219080E-02
   LPB:    0  -0.720377843938211E+00   0.336356001121866E-02   0.521767E-04   0.000000E+00   0.331383E+02   0.172904E-02
   LPB:    1  -0.720377508542534E+00   0.100719474138094E-02   0.166042E-01   0.000000E+00   0.159980E+03   0.628120E-19
   LPB:    2  -0.720377477156780E+00   0.634977879305031E-03   0.167683E-01   0.926626E-01   0.247671E+03   0.718168E-17
   LPB:    3  -0.720377467376437E+00   0.351733158292238E-03   0.197632E-01   0.264395E+00   0.134642E+03   0.222528E-17
   LPB:    4  -0.720377463377717E+00   0.297116346934394E-03   0.247692E-01   0.326222E+00   0.236120E+03   0.123142E-17
   LPB:    5  -0.720377461602362E+00   0.205454276192400E-03   0.205853E-01   0.534218E+00   0.208844E+03  -0.521159E-18
   LPB:    6  -0.720377460260602E+00   0.834843215564524E-04   0.247274E-01   0.629170E+00   0.229999E+03  -0.127809E-17
   LPB:    7  -0.720377459349750E+00   0.548438263204056E-04   0.331293E-01   0.506686E+00   0.616242E+03  -0.294117E-17
  Finished solving LPB equations
  A_corr:   -0.641753779492783     
 End minimization
 Ecorr=   1402.18281643369     
 A_corr= -0.641753779492783     
 Ecorr_band=  -1402.82457021318     
 End Solvation calculations
 177 F= -.13302638E+03 E0= -.13302115E+03  d E =0.843375E-05
quench:  g(F)=  0.000E+00 g(S)=  0.000E+00 dE (1.order)= 0.000E+00
 bond charge predicted
       N       E                     dE             d eps       ncg     rms          rms(c)
 Begin Solvation calculations
  rms_SCF =   5.902799261094605E-004 tol =   5.902799261094605E-005
 Begin minimization
 Creating dielectric and ionic cavities
  area:      149.761505241299     
  volume:    673.102144106773     
  Acav:     7.862479025168223E-002
  Solving linear dielectric/ionic screening model
        iter                  A_solv                     rms
   LPB:       -0.720449331364744E+00   0.888971666684324E-03
   LPB:    0  -0.720449331364691E+00   0.889139515997816E-03  -0.567068E-07   0.000000E+00   0.331383E+02  -0.187916E-05
   LPB:    1  -0.720378025308907E+00   0.306319344865902E-03   0.150466E-01   0.000000E+00   0.794371E+06  -0.784095E-22
   LPB:    2  -0.720372484188315E+00   0.176064872745697E-03   0.264423E-01   0.442192E-01   0.155295E+06  -0.337459E-18
   LPB:    3  -0.720370687405347E+00   0.308300830704122E-03   0.332070E-01   0.258207E+00   0.769879E+05  -0.609170E-18
   LPB:    4  -0.720369849668759E+00   0.877075551092983E-03   0.366000E-01   0.423019E+00   0.146803E+05  -0.101822E-17
   LPB:    5  -0.720369431355777E+00   0.239483462257104E-02   0.355119E-01   0.514637E+00   0.115839E+04  -0.132368E-17
   LPB:    6  -0.720369252033630E+00   0.294398175802664E-02   0.226134E-01   0.673196E+00   0.192611E+03  -0.350664E-17
   LPB:    7  -0.720369105723256E+00   0.846932869974587E-03   0.221474E-01   0.833076E+00   0.315640E+03  -0.523275E-17
   LPB:    8  -0.720369000098881E+00   0.450175518205456E-03   0.360060E-01   0.444054E+00   0.202134E+04  -0.908932E-17
   LPB:    9  -0.720368939376248E+00   0.842029086928742E-03   0.359074E-01   0.576472E+00   0.589310E+03  -0.122963E-16
   LPB:   10  -0.720368907712713E+00   0.830498229431489E-03   0.259483E-01   0.721578E+00   0.180447E+03  -0.121343E-16
   LPB:   11  -0.720368882136225E+00   0.331522257969668E-03   0.282762E-01   0.741257E+00   0.296570E+03  -0.170618E-16
   LPB:   12  -0.720368863654888E+00   0.142714898518037E-03   0.363578E-01   0.561974E+00   0.130066E+04  -0.212831E-16
   LPB:   13  -0.720368851952106E+00   0.140040278430775E-03   0.379066E-01   0.607350E+00   0.213953E+04  -0.255304E-16
   LPB:   14  -0.720368844626395E+00   0.133851959630616E-03   0.344771E-01   0.688246E+00   0.143538E+04  -0.288980E-16
   LPB:   15  -0.720368839567140E+00   0.831389520534824E-04   0.336257E-01   0.708102E+00   0.157312E+04  -0.307986E-16
   LPB:   16  -0.720368836063870E+00   0.482892400723579E-04   0.369582E-01   0.630011E+00   0.291843E+04  -0.324176E-16
  Finished solving LPB equations
  A_corr:   -0.641744045812188     
 End minimization
 Ecorr=   1402.18530759508     
 A_corr= -0.641744045812188     
 Ecorr_band=  -1402.82705164089     
 End Solvation calculations
DAV:   1    -0.133026359263E+03    0.25296E-04   -0.37560E-03  4122   0.112E-01    0.148E-02
 Begin Solvation calculations
  rms_SCF =   5.902799261094605E-004 tol =   5.902799261094605E-005
 Begin minimization
 Creating dielectric and ionic cavities
  area:      149.758648693810     
  volume:    673.100092083368     
  Acav:     7.862329056425006E-002
  Solving linear dielectric/ionic screening model
        iter                  A_solv                     rms
   LPB:       -0.720400001757926E+00   0.632800982538988E-02
   LPB:    0  -0.720399990521931E+00   0.605888077319788E-02  -0.260408E-04   0.000000E+00   0.331384E+02  -0.862952E-03
   LPB:    1  -0.720399496937860E+00   0.343326457848645E-02   0.137445E-01   0.000000E+00   0.141462E+03   0.191314E-19
   LPB:    2  -0.720399366076120E+00   0.595670672253218E-03   0.143292E-01   0.254306E+00   0.236767E+03  -0.571872E-17
   LPB:    3  -0.720399326705505E+00   0.246599824983583E-03   0.279544E-01   0.154217E+00   0.647503E+03  -0.704402E-17
   LPB:    4  -0.720399311765008E+00   0.151036361594169E-03   0.298149E-01   0.355804E+00   0.877247E+03  -0.736630E-17
   LPB:    5  -0.720399304262694E+00   0.122260768169234E-03   0.326029E-01   0.459206E+00   0.908839E+03  -0.812651E-17
   LPB:    6  -0.720399300192617E+00   0.186045859682203E-03   0.323898E-01   0.546078E+00   0.639275E+03  -0.805540E-17
   LPB:    7  -0.720399297808402E+00   0.215952448750057E-03   0.287150E-01   0.660757E+00   0.204307E+03  -0.828014E-17
   LPB:    8  -0.720399296148818E+00   0.150519695781305E-03   0.277318E-01   0.720749E+00   0.177611E+03  -0.913671E-17
   LPB:    9  -0.720399294905187E+00   0.688806357765010E-04   0.316472E-01   0.656653E+00   0.310019E+03  -0.100580E-16
   LPB:   10  -0.720399294019350E+00   0.368821127134620E-04   0.351977E-01   0.640447E+00   0.120614E+04  -0.975393E-17
  Finished solving LPB equations
  A_corr:   -0.641776003455100     
 End minimization
 Ecorr=   1402.18524036090     
 A_corr= -0.641776003455100     
 Ecorr_band=  -1402.82701636435     
 End Solvation calculations
RMM:   2    -0.133026376722E+03   -0.17459E-04   -0.18983E-04  3626   0.282E-02    0.119E-02
 Begin Solvation calculations
  rms_SCF =   5.902799261094605E-004 tol =   5.902799261094605E-005
 Begin minimization
 Creating dielectric and ionic cavities
  area:      149.759615622754     
  volume:    673.099678299004     
  Acav:     7.862379820194575E-002
  Solving linear dielectric/ionic screening model
        iter                  A_solv                     rms
   LPB:       -0.720409197935379E+00   0.116264302623725E-01
   LPB:    0  -0.720409197802280E+00   0.116293203996727E-01  -0.283424E-05   0.000000E+00   0.331384E+02  -0.939223E-04
   LPB:    1  -0.720408781121845E+00   0.123853430834353E-02   0.920235E-02   0.000000E+00   0.727064E+02  -0.276098E-20
   LPB:    2  -0.720408730968876E+00   0.214133718913863E-03   0.162540E-01   0.681447E-01   0.172816E+03  -0.109328E-17
   LPB:    3  -0.720408723641669E+00   0.995903993536070E-04   0.235453E-01   0.100855E+00   0.358885E+03  -0.135653E-17
   LPB:    4  -0.720408721060681E+00   0.585229405865834E-04   0.304981E-01   0.271944E+00   0.533223E+03  -0.364343E-18
  Finished solving LPB equations
  A_corr:   -0.641784922858735     
 End minimization
 Ecorr=   1402.19143395371     
 A_corr= -0.641784922858735     
 Ecorr_band=  -1402.83321887657     
 End Solvation calculations
RMM:   3    -0.133026373560E+03    0.31615E-05   -0.11667E-05  2204   0.149E-02
 Begin Solvation calculations
  rms_SCF =   5.902799261094605E-004 tol =   5.902799261094605E-005
 Begin minimization
 Creating dielectric and ionic cavities
  area:      149.758886098768     
  volume:    673.099511595190     
  Acav:     7.862341520185294E-002
  Solving linear dielectric/ionic screening model
        iter                  A_solv                     rms
   LPB:       -0.720425238641472E+00   0.745838323504070E-02
   LPB:    0  -0.720425236769839E+00   0.742261651496813E-02  -0.106282E-04   0.000000E+00   0.331384E+02  -0.352202E-03
   LPB:    1  -0.720425048160914E+00   0.850259486207815E-03   0.922385E-02   0.000000E+00   0.804084E+02   0.178928E-19
   LPB:    2  -0.720425019355665E+00   0.165582809506582E-03   0.180793E-01   0.779184E-01   0.205022E+03   0.104693E-17
   LPB:    3  -0.720425015273112E+00   0.114657164616631E-03   0.243977E-01   0.105025E+00   0.335891E+03   0.610914E-18
   LPB:    4  -0.720425013747929E+00   0.839830010331804E-04   0.275209E-01   0.331189E+00   0.445586E+03   0.189269E-17
   LPB:    5  -0.720425012950015E+00   0.909986273739616E-04   0.322580E-01   0.446334E+00   0.296603E+03   0.229552E-17
   LPB:    6  -0.720425012462561E+00   0.883546184159018E-04   0.282837E-01   0.696753E+00   0.270854E+03   0.366239E-17
   LPB:    7  -0.720425012050000E+00   0.521098597366534E-04   0.300671E-01   0.796158E+00   0.262958E+03   0.417215E-17
  Finished solving LPB equations
  A_corr:   -0.641801596848147     
 End minimization
 Ecorr=   1402.18900960265     
 A_corr= -0.641801596848147     
 Ecorr_band=  -1402.83081119950     
 End Solvation calculations
 178 F= -.13302637E+03 E0= -.13302114E+03  d E =0.802457E-05
quench:  g(F)=  0.000E+00 g(S)=  0.000E+00 dE (1.order)= 0.000E+00
 reached required accuracy - stopping structural energy minimisation
