 vasp.5.4.4.18Apr17-6-g9f103f2a35 (build Feb 06 2024 13:54:16) complex          
  
 POSCAR found type information on POSCAR  Cu Pd Cu N  O 
 02/POSCAR found :  5 types and      40 ions
 scaLAPACK will be used

 ----------------------------------------------------------------------------- 
|                                                                             |
|  ADVICE TO THIS USER RUNNING 'VASP/VAMP'   (HEAR YOUR MASTER'S VOICE ...):  |
|                                                                             |
|      You enforced a specific xc-type in the INCAR file,                     |
|      a different type was found on the POTCAR file                          |
|          I HOPE YOU KNOW, WHAT YOU ARE  DOING                               |
|                                                                             |
 ----------------------------------------------------------------------------- 

 LDA part: xc-table for Pade appr. of Perdew
 POSCAR found type information on POSCAR  Cu Pd Cu N  O 
 00/POSCAR found :  5 types and      40 ions
 POSCAR found type information on POSCAR  Cu Pd Cu N  O 
 06/POSCAR found :  5 types and      40 ions
 Jacobian:    20.5888137679208     
 POSCAR, INCAR and KPOINTS ok, starting setup
 FFT: planning ...
 WAVECAR not read
 entering main loop
       N       E                     dE             d eps       ncg     rms          rms(c)
DAV:   1     0.417913577137E+04    0.41791E+04   -0.17843E+05  4032   0.203E+03
DAV:   2     0.607679450320E+03   -0.35715E+04   -0.34428E+04  4032   0.460E+02
DAV:   3    -0.327700990003E+02   -0.64045E+03   -0.58852E+03  4689   0.232E+02
DAV:   4    -0.151033963403E+03   -0.11826E+03   -0.10468E+03  7065   0.931E+01
DAV:   5    -0.162809987802E+03   -0.11776E+02   -0.11021E+02  6255   0.305E+01    0.457E+01
RMM:   6    -0.188430682747E+03   -0.25621E+02   -0.37684E+02  4075   0.972E+01    0.516E+01
RMM:   7    -0.173407832490E+03    0.15023E+02   -0.13112E+02  4160   0.467E+01    0.377E+01
RMM:   8    -0.148064429855E+03    0.25343E+02   -0.22608E+01  4104   0.206E+01    0.270E+01
RMM:   9    -0.139797139490E+03    0.82673E+01   -0.70104E+00  4109   0.126E+01    0.167E+01
RMM:  10    -0.135215163215E+03    0.45820E+01   -0.15736E+01  4145   0.134E+01    0.121E+01
RMM:  11    -0.133911287055E+03    0.13039E+01   -0.26119E+00  4111   0.575E+00    0.584E+00
RMM:  12    -0.133700232924E+03    0.21105E+00   -0.52110E-01  4225   0.275E+00    0.420E+00
RMM:  13    -0.133898873143E+03   -0.19864E+00   -0.11153E+00  4088   0.417E+00    0.371E+00
RMM:  14    -0.133767002516E+03    0.13187E+00   -0.28190E-01  4107   0.175E+00    0.341E+00
RMM:  15    -0.133612781185E+03    0.15422E+00   -0.14694E-01  4117   0.166E+00    0.220E+00
RMM:  16    -0.133564222916E+03    0.48558E-01   -0.88648E-02  4229   0.985E-01    0.171E+00
RMM:  17    -0.133518327944E+03    0.45895E-01   -0.60492E-02  4144   0.830E-01    0.107E+00
RMM:  18    -0.133513654146E+03    0.46738E-02   -0.97682E-03  4227   0.369E-01    0.108E+00
RMM:  19    -0.133497420233E+03    0.16234E-01   -0.63360E-03  4489   0.201E-01    0.814E-01
RMM:  20    -0.133486837098E+03    0.10583E-01   -0.50054E-03  4259   0.193E-01    0.605E-01
RMM:  21    -0.133476501479E+03    0.10336E-01   -0.98132E-03  4171   0.269E-01    0.259E-01
RMM:  22    -0.133474499678E+03    0.20018E-02   -0.33573E-03  5204   0.114E-01    0.142E-01
RMM:  23    -0.133474297684E+03    0.20199E-03   -0.41263E-04  4403   0.580E-02    0.113E-01
RMM:  24    -0.133474515585E+03   -0.21790E-03   -0.35123E-04  4301   0.454E-02    0.830E-02
RMM:  25    -0.133474753301E+03   -0.23772E-03   -0.34389E-04  4110   0.595E-02    0.335E-02
RMM:  26    -0.133475021835E+03   -0.26853E-03   -0.15328E-04  4068   0.284E-02    0.258E-02
RMM:  27    -0.133475238066E+03   -0.21623E-03   -0.36503E-05  2621   0.147E-02    0.224E-02
RMM:  28    -0.133475319292E+03   -0.81226E-04   -0.14976E-05  2422   0.163E-02    0.113E-02
RMM:  29    -0.133475365150E+03   -0.45857E-04   -0.80092E-06  2344   0.888E-03    0.908E-03
RMM:  30    -0.133475427978E+03   -0.62829E-04   -0.82699E-06  2399   0.920E-03    0.924E-03
RMM:  31    -0.133475458494E+03   -0.30516E-04   -0.61798E-06  2360   0.928E-03    0.312E-03
RMM:  32    -0.133475467955E+03   -0.94608E-05   -0.29472E-06  2310   0.691E-03
   1 F= -.13347547E+03 E0= -.13347448E+03  d E =-.133475E+03
quench:  g(F)=  0.000E+00 g(S)=  0.000E+00 dE (1.order)= 0.000E+00
 bond charge predicted
       N       E                     dE             d eps       ncg     rms          rms(c)
DAV:   1    -0.133479511847E+03   -0.40534E-02   -0.87784E-01  4302   0.144E+00    0.355E-01
RMM:   2    -0.133483351960E+03   -0.38401E-02   -0.54399E-02  5979   0.423E-01    0.296E-01
RMM:   3    -0.133481694931E+03    0.16570E-02   -0.37211E-03  5068   0.123E-01    0.146E-01
RMM:   4    -0.133482335761E+03   -0.64083E-03   -0.14536E-03  4218   0.113E-01    0.266E-01
RMM:   5    -0.133481169442E+03    0.11663E-02   -0.69772E-04  4117   0.959E-02    0.810E-02
RMM:   6    -0.133481056429E+03    0.11301E-03   -0.41329E-04  4100   0.886E-02    0.443E-02
RMM:   7    -0.133481022653E+03    0.33777E-04   -0.81453E-05  3655   0.432E-02    0.195E-02
RMM:   8    -0.133481026503E+03   -0.38506E-05   -0.19922E-05  2381   0.220E-02
   2 F= -.13348103E+03 E0= -.13348000E+03  d E =-.555855E-02
quench:  g(F)=  0.000E+00 g(S)=  0.000E+00 dE (1.order)= 0.000E+00
 bond charge predicted
       N       E                     dE             d eps       ncg     rms          rms(c)
DAV:   1    -0.133482283307E+03   -0.12607E-02   -0.30433E-01  4158   0.994E-01    0.169E-01
RMM:   2    -0.133483655308E+03   -0.13720E-02   -0.15314E-02  5976   0.287E-01    0.142E-01
RMM:   3    -0.133483677317E+03   -0.22008E-04   -0.12180E-03  4539   0.982E-02    0.152E-01
RMM:   4    -0.133483388037E+03    0.28928E-03   -0.37603E-04  4219   0.622E-02    0.841E-02
RMM:   5    -0.133483324524E+03    0.63513E-04   -0.14840E-04  4011   0.498E-02    0.416E-02
RMM:   6    -0.133483320119E+03    0.44052E-05   -0.11322E-04  3845   0.481E-02    0.246E-02
RMM:   7    -0.133483318186E+03    0.19334E-05   -0.24945E-05  2459   0.237E-02
   3 F= -.13348332E+03 E0= -.13348233E+03  d E =-.229168E-02
quench:  g(F)=  0.000E+00 g(S)=  0.000E+00 dE (1.order)= 0.000E+00
 bond charge predicted
       N       E                     dE             d eps       ncg     rms          rms(c)
DAV:   1    -0.133484295209E+03   -0.97509E-03   -0.10932E-01  4113   0.613E-01    0.103E-01
RMM:   2    -0.133484845455E+03   -0.55025E-03   -0.70784E-03  5332   0.198E-01    0.104E-01
RMM:   3    -0.133484657020E+03    0.18843E-03   -0.54640E-04  5395   0.483E-02    0.575E-02
RMM:   4    -0.133484673716E+03   -0.16696E-04   -0.12077E-04  4014   0.301E-02    0.754E-02
RMM:   5    -0.133484589863E+03    0.83852E-04   -0.69828E-05  3359   0.332E-02    0.228E-02
RMM:   6    -0.133484580556E+03    0.93075E-05   -0.48508E-05  3164   0.322E-02
   4 F= -.13348458E+03 E0= -.13348359E+03  d E =-.126237E-02
quench:  g(F)=  0.000E+00 g(S)=  0.000E+00 dE (1.order)= 0.000E+00
 bond charge predicted
       N       E                     dE             d eps       ncg     rms          rms(c)
DAV:   1    -0.133485093048E+03   -0.50319E-03   -0.19078E-01  4059   0.891E-01    0.104E-01
RMM:   2    -0.133486008642E+03   -0.91559E-03   -0.95950E-03  5117   0.267E-01    0.927E-02
RMM:   3    -0.133485955247E+03    0.53394E-04   -0.10523E-03  5455   0.743E-02    0.865E-02
RMM:   4    -0.133485869472E+03    0.85776E-04   -0.18544E-04  4239   0.416E-02    0.572E-02
RMM:   5    -0.133485834190E+03    0.35282E-04   -0.57529E-05  3409   0.340E-02    0.323E-02
RMM:   6    -0.133485833041E+03    0.11487E-05   -0.31599E-05  2578   0.230E-02
   5 F= -.13348583E+03 E0= -.13348486E+03  d E =-.125249E-02
quench:  g(F)=  0.000E+00 g(S)=  0.000E+00 dE (1.order)= 0.000E+00
 bond charge predicted
       N       E                     dE             d eps       ncg     rms          rms(c)
DAV:   1    -0.133486053591E+03   -0.21940E-03   -0.25738E-01  4086   0.101E+00    0.143E-01
RMM:   2    -0.133487320059E+03   -0.12665E-02   -0.16026E-02  5216   0.313E-01    0.136E-01
RMM:   3    -0.133486882991E+03    0.43707E-03   -0.12359E-03  5468   0.789E-02    0.653E-02
RMM:   4    -0.133486848319E+03    0.34672E-04   -0.20720E-04  4171   0.523E-02    0.593E-02
RMM:   5    -0.133486810881E+03    0.37438E-04   -0.12655E-04  3970   0.493E-02    0.505E-02
RMM:   6    -0.133486799539E+03    0.11343E-04   -0.55753E-05  2895   0.251E-02    0.387E-02
RMM:   7    -0.133486770880E+03    0.28659E-04   -0.23592E-05  2470   0.191E-02    0.779E-03
RMM:   8    -0.133486774939E+03   -0.40585E-05   -0.97232E-06  2215   0.151E-02
   6 F= -.13348677E+03 E0= -.13348578E+03  d E =-.941897E-03
quench:  g(F)=  0.000E+00 g(S)=  0.000E+00 dE (1.order)= 0.000E+00
 bond charge predicted
       N       E                     dE             d eps       ncg     rms          rms(c)
DAV:   1    -0.133486911977E+03   -0.14110E-03   -0.19208E-01  4176   0.796E-01    0.132E-01
RMM:   2    -0.133487726988E+03   -0.81501E-03   -0.92818E-03  5804   0.220E-01    0.981E-02
RMM:   3    -0.133487723061E+03    0.39270E-05   -0.68460E-04  4499   0.749E-02    0.111E-01
RMM:   4    -0.133487569149E+03    0.15391E-03   -0.21440E-04  4181   0.476E-02    0.665E-02
RMM:   5    -0.133487509972E+03    0.59177E-04   -0.66098E-05  3337   0.320E-02    0.264E-02
RMM:   6    -0.133487509890E+03    0.81993E-07   -0.64203E-05  3609   0.382E-02
   7 F= -.13348751E+03 E0= -.13348655E+03  d E =-.734951E-03
quench:  g(F)=  0.000E+00 g(S)=  0.000E+00 dE (1.order)= 0.000E+00
 bond charge predicted
       N       E                     dE             d eps       ncg     rms          rms(c)
DAV:   1    -0.133488029489E+03   -0.51952E-03   -0.79463E-02  4149   0.509E-01    0.103E-01
RMM:   2    -0.133488430336E+03   -0.40085E-03   -0.54497E-03  5875   0.151E-01    0.877E-02
RMM:   3    -0.133488248124E+03    0.18221E-03   -0.34853E-04  4708   0.426E-02    0.429E-02
RMM:   4    -0.133488270323E+03   -0.22199E-04   -0.11930E-04  3971   0.442E-02    0.601E-02
RMM:   5    -0.133488216556E+03    0.53768E-04   -0.67960E-05  3319   0.350E-02    0.305E-02
RMM:   6    -0.133488203905E+03    0.12651E-04   -0.23638E-05  2505   0.179E-02    0.164E-02
RMM:   7    -0.133488198759E+03    0.51461E-05   -0.11938E-05  2223   0.185E-02
   8 F= -.13348820E+03 E0= -.13348721E+03  d E =-.688869E-03
quench:  g(F)=  0.000E+00 g(S)=  0.000E+00 dE (1.order)= 0.000E+00
 bond charge predicted
       N       E                     dE             d eps       ncg     rms          rms(c)
DAV:   1    -0.133488467950E+03   -0.26405E-03   -0.58537E-02  4167   0.487E-01    0.597E-02
RMM:   2    -0.133488741544E+03   -0.27359E-03   -0.29066E-03  5386   0.137E-01    0.424E-02
RMM:   3    -0.133488732342E+03    0.92014E-05   -0.23097E-04  4487   0.423E-02    0.565E-02
RMM:   4    -0.133488692107E+03    0.40235E-04   -0.44525E-05  2760   0.239E-02    0.246E-02
RMM:   5    -0.133488691983E+03    0.12430E-06   -0.25280E-05  2345   0.253E-02
   9 F= -.13348869E+03 E0= -.13348771E+03  d E =-.493224E-03
quench:  g(F)=  0.000E+00 g(S)=  0.000E+00 dE (1.order)= 0.000E+00
 bond charge predicted
       N       E                     dE             d eps       ncg     rms          rms(c)
DAV:   1    -0.133488948450E+03   -0.25634E-03   -0.94333E-02  4149   0.651E-01    0.815E-02
RMM:   2    -0.133489459189E+03   -0.51074E-03   -0.60602E-03  5656   0.183E-01    0.711E-02
RMM:   3    -0.133489300913E+03    0.15828E-03   -0.37881E-04  5166   0.411E-02    0.467E-02
RMM:   4    -0.133489291735E+03    0.91782E-05   -0.53205E-05  2946   0.253E-02
  10 F= -.13348929E+03 E0= -.13348830E+03  d E =-.599752E-03
quench:  g(F)=  0.000E+00 g(S)=  0.000E+00 dE (1.order)= 0.000E+00
 bond charge predicted
       N       E                     dE             d eps       ncg     rms          rms(c)
DAV:   1    -0.133489123153E+03    0.17776E-03   -0.14797E-01  4050   0.787E-01    0.898E-02
RMM:   2    -0.133489848954E+03   -0.72580E-03   -0.76759E-03  5883   0.207E-01    0.620E-02
RMM:   3    -0.133489767846E+03    0.81109E-04   -0.45007E-04  4458   0.665E-02    0.712E-02
RMM:   4    -0.133489708267E+03    0.59579E-04   -0.89683E-05  3650   0.337E-02    0.417E-02
RMM:   5    -0.133489699319E+03    0.89480E-05   -0.28161E-05  2557   0.207E-02
  11 F= -.13348970E+03 E0= -.13348872E+03  d E =-.407584E-03
quench:  g(F)=  0.000E+00 g(S)=  0.000E+00 dE (1.order)= 0.000E+00
 bond charge predicted
       N       E                     dE             d eps       ncg     rms          rms(c)
DAV:   1    -0.133490006103E+03   -0.29784E-03   -0.56955E-02  4671   0.461E-01    0.889E-02
RMM:   2    -0.133490275199E+03   -0.26910E-03   -0.38089E-03  5971   0.117E-01    0.752E-02
RMM:   3    -0.133490144651E+03    0.13055E-03   -0.25021E-04  4502   0.357E-02    0.407E-02
RMM:   4    -0.133490182751E+03   -0.38100E-04   -0.80329E-05  3904   0.337E-02    0.605E-02
RMM:   5    -0.133490109284E+03    0.73467E-04   -0.46126E-05  2675   0.239E-02    0.227E-02
RMM:   6    -0.133490101347E+03    0.79370E-05   -0.31663E-05  2617   0.279E-02
  12 F= -.13349010E+03 E0= -.13348910E+03  d E =-.402028E-03
quench:  g(F)=  0.000E+00 g(S)=  0.000E+00 dE (1.order)= 0.000E+00
 bond charge predicted
       N       E                     dE             d eps       ncg     rms          rms(c)
DAV:   1    -0.133490282824E+03   -0.17354E-03   -0.37398E-02  4176   0.393E-01    0.507E-02
RMM:   2    -0.133490472823E+03   -0.19000E-03   -0.20122E-03  5886   0.104E-01    0.374E-02
RMM:   3    -0.133490456015E+03    0.16808E-04   -0.12334E-04  3844   0.332E-02    0.455E-02
RMM:   4    -0.133490432458E+03    0.23557E-04   -0.27725E-05  2516   0.212E-02    0.211E-02
RMM:   5    -0.133490433710E+03   -0.12521E-05   -0.15687E-05  2268   0.202E-02
  13 F= -.13349043E+03 E0= -.13348944E+03  d E =-.332363E-03
quench:  g(F)=  0.000E+00 g(S)=  0.000E+00 dE (1.order)= 0.000E+00
 bond charge predicted
       N       E                     dE             d eps       ncg     rms          rms(c)
DAV:   1    -0.133490609776E+03   -0.17732E-03   -0.57472E-02  4131   0.518E-01    0.627E-02
RMM:   2    -0.133490923849E+03   -0.31407E-03   -0.36689E-03  5686   0.139E-01    0.518E-02
RMM:   3    -0.133490829208E+03    0.94641E-04   -0.19680E-04  4397   0.291E-02    0.344E-02
RMM:   4    -0.133490826140E+03    0.30677E-05   -0.31415E-05  2559   0.213E-02
  14 F= -.13349083E+03 E0= -.13348982E+03  d E =-.392430E-03
quench:  g(F)=  0.000E+00 g(S)=  0.000E+00 dE (1.order)= 0.000E+00
 bond charge predicted
       N       E                     dE             d eps       ncg     rms          rms(c)
DAV:   1    -0.133490749003E+03    0.80205E-04   -0.10141E-01  4059   0.658E-01    0.725E-02
RMM:   2    -0.133491250740E+03   -0.50174E-03   -0.52365E-03  5678   0.174E-01    0.546E-02
RMM:   3    -0.133491205628E+03    0.45112E-04   -0.32610E-04  4455   0.565E-02    0.649E-02
RMM:   4    -0.133491144935E+03    0.60693E-04   -0.56341E-05  3011   0.264E-02    0.305E-02
RMM:   5    -0.133491143110E+03    0.18251E-05   -0.18357E-05  2361   0.179E-02
  15 F= -.13349114E+03 E0= -.13349015E+03  d E =-.316970E-03
quench:  g(F)=  0.000E+00 g(S)=  0.000E+00 dE (1.order)= 0.000E+00
 bond charge predicted
       N       E                     dE             d eps       ncg     rms          rms(c)
DAV:   1    -0.133491299234E+03   -0.15430E-03   -0.49914E-02  4419   0.430E-01    0.812E-02
RMM:   2    -0.133491538094E+03   -0.23886E-03   -0.33258E-03  5939   0.111E-01    0.681E-02
RMM:   3    -0.133491425082E+03    0.11301E-03   -0.20383E-04  4170   0.305E-02    0.355E-02
RMM:   4    -0.133491462144E+03   -0.37062E-04   -0.69113E-05  3732   0.328E-02    0.564E-02
RMM:   5    -0.133491397032E+03    0.65112E-04   -0.34358E-05  2574   0.222E-02    0.193E-02
RMM:   6    -0.133491391033E+03    0.59987E-05   -0.26243E-05  2454   0.247E-02
  16 F= -.13349139E+03 E0= -.13349038E+03  d E =-.247923E-03
quench:  g(F)=  0.000E+00 g(S)=  0.000E+00 dE (1.order)= 0.000E+00
 bond charge predicted
       N       E                     dE             d eps       ncg     rms          rms(c)
DAV:   1    -0.133491525204E+03   -0.12817E-03   -0.35365E-02  4167   0.369E-01    0.545E-02
RMM:   2    -0.133491701656E+03   -0.17645E-03   -0.19280E-03  6049   0.975E-02    0.409E-02
RMM:   3    -0.133491687541E+03    0.14115E-04   -0.11459E-04  3703   0.312E-02    0.474E-02
RMM:   4    -0.133491661517E+03    0.26024E-04   -0.32254E-05  2564   0.234E-02    0.240E-02
RMM:   5    -0.133491659908E+03    0.16087E-05   -0.14392E-05  2295   0.195E-02
  17 F= -.13349166E+03 E0= -.13349065E+03  d E =-.268875E-03
quench:  g(F)=  0.000E+00 g(S)=  0.000E+00 dE (1.order)= 0.000E+00
 bond charge predicted
       N       E                     dE             d eps       ncg     rms          rms(c)
DAV:   1    -0.133491800606E+03   -0.13909E-03   -0.31455E-02  4311   0.391E-01    0.504E-02
RMM:   2    -0.133491982717E+03   -0.18211E-03   -0.20774E-03  5738   0.976E-02    0.426E-02
RMM:   3    -0.133491928873E+03    0.53844E-04   -0.11208E-04  3736   0.237E-02    0.387E-02
RMM:   4    -0.133491910325E+03    0.18548E-04   -0.25153E-05  2438   0.214E-02    0.214E-02
RMM:   5    -0.133491905180E+03    0.51451E-05   -0.93623E-06  2227   0.131E-02
  18 F= -.13349191E+03 E0= -.13349089E+03  d E =-.245272E-03
quench:  g(F)=  0.000E+00 g(S)=  0.000E+00 dE (1.order)= 0.000E+00
 bond charge predicted
       N       E                     dE             d eps       ncg     rms          rms(c)
DAV:   1    -0.133491927452E+03   -0.17127E-04   -0.57070E-02  4086   0.501E-01    0.572E-02
RMM:   2    -0.133492210591E+03   -0.28314E-03   -0.29924E-03  6031   0.124E-01    0.322E-02
RMM:   3    -0.133492161598E+03    0.48993E-04   -0.13835E-04  3774   0.329E-02    0.327E-02
RMM:   4    -0.133492153829E+03    0.77692E-05   -0.25844E-05  2475   0.219E-02
  19 F= -.13349215E+03 E0= -.13349114E+03  d E =-.248649E-03
quench:  g(F)=  0.000E+00 g(S)=  0.000E+00 dE (1.order)= 0.000E+00
 bond charge predicted
       N       E                     dE             d eps       ncg     rms          rms(c)
DAV:   1    -0.133492224038E+03   -0.62440E-04   -0.38890E-02  4716   0.406E-01    0.658E-02
RMM:   2    -0.133492436239E+03   -0.21220E-03   -0.23853E-03  5579   0.100E-01    0.667E-02
RMM:   3    -0.133492378478E+03    0.57761E-04   -0.18911E-04  4371   0.385E-02    0.614E-02
RMM:   4    -0.133492318690E+03    0.59787E-04   -0.37007E-05  2672   0.222E-02    0.245E-02
RMM:   5    -0.133492313513E+03    0.51779E-05   -0.31580E-05  2560   0.252E-02
  20 F= -.13349231E+03 E0= -.13349128E+03  d E =-.159684E-03
quench:  g(F)=  0.000E+00 g(S)=  0.000E+00 dE (1.order)= 0.000E+00
 bond charge predicted
       N       E                     dE             d eps       ncg     rms          rms(c)
DAV:   1    -0.133492425448E+03   -0.10676E-03   -0.28993E-02  4725   0.355E-01    0.499E-02
RMM:   2    -0.133492567469E+03   -0.14202E-03   -0.15460E-03  6207   0.800E-02    0.371E-02
RMM:   3    -0.133492561133E+03    0.63360E-05   -0.87737E-05  3286   0.263E-02
  21 F= -.13349256E+03 E0= -.13349154E+03  d E =-.247620E-03
quench:  g(F)=  0.000E+00 g(S)=  0.000E+00 dE (1.order)= 0.000E+00
 bond charge predicted
       N       E                     dE             d eps       ncg     rms          rms(c)
DAV:   1    -0.133492620550E+03   -0.53081E-04   -0.23293E-02  5112   0.379E-01    0.375E-02
RMM:   2    -0.133492783779E+03   -0.16323E-03   -0.14166E-03  5393   0.797E-02    0.468E-02
RMM:   3    -0.133492731672E+03    0.52107E-04   -0.10143E-04  3725   0.282E-02    0.427E-02
RMM:   4    -0.133492709375E+03    0.22297E-04   -0.17090E-05  2342   0.177E-02    0.140E-02
RMM:   5    -0.133492708642E+03    0.73306E-06   -0.49573E-06  2153   0.876E-03
  22 F= -.13349271E+03 E0= -.13349168E+03  d E =-.147509E-03
quench:  g(F)=  0.000E+00 g(S)=  0.000E+00 dE (1.order)= 0.000E+00
 bond charge predicted
       N       E                     dE             d eps       ncg     rms          rms(c)
DAV:   1    -0.133492744225E+03   -0.34850E-04   -0.43721E-02  4032   0.432E-01    0.509E-02
RMM:   2    -0.133492952203E+03   -0.20798E-03   -0.22156E-03  6006   0.109E-01    0.264E-02
RMM:   3    -0.133492913105E+03    0.39098E-04   -0.87969E-05  3153   0.228E-02    0.207E-02
RMM:   4    -0.133492911519E+03    0.15860E-05   -0.21488E-05  2362   0.218E-02
  23 F= -.13349291E+03 E0= -.13349189E+03  d E =-.202877E-03
quench:  g(F)=  0.000E+00 g(S)=  0.000E+00 dE (1.order)= 0.000E+00
 bond charge predicted
       N       E                     dE             d eps       ncg     rms          rms(c)
DAV:   1    -0.133492974116E+03   -0.61011E-04   -0.32679E-02  4185   0.351E-01    0.610E-02
RMM:   2    -0.133493150000E+03   -0.17588E-03   -0.19951E-03  5671   0.948E-02    0.623E-02
RMM:   3    -0.133493107483E+03    0.42517E-04   -0.15639E-04  4253   0.353E-02    0.575E-02
RMM:   4    -0.133493055258E+03    0.52226E-04   -0.31850E-05  2612   0.211E-02    0.215E-02
RMM:   5    -0.133493049022E+03    0.62354E-05   -0.20668E-05  2345   0.200E-02
  24 F= -.13349305E+03 E0= -.13349201E+03  d E =-.137503E-03
quench:  g(F)=  0.000E+00 g(S)=  0.000E+00 dE (1.order)= 0.000E+00
 bond charge predicted
       N       E                     dE             d eps       ncg     rms          rms(c)
DAV:   1    -0.133493142540E+03   -0.87282E-04   -0.24098E-02  4644   0.319E-01    0.463E-02
RMM:   2    -0.133493264113E+03   -0.12157E-03   -0.13097E-03  6104   0.741E-02    0.358E-02
RMM:   3    -0.133493259893E+03    0.42203E-05   -0.74604E-05  3127   0.245E-02
  25 F= -.13349326E+03 E0= -.13349223E+03  d E =-.210871E-03
quench:  g(F)=  0.000E+00 g(S)=  0.000E+00 dE (1.order)= 0.000E+00
 bond charge predicted
       N       E                     dE             d eps       ncg     rms          rms(c)
DAV:   1    -0.133493301121E+03   -0.37008E-04   -0.18623E-02  5193   0.347E-01    0.337E-02
RMM:   2    -0.133493426927E+03   -0.12581E-03   -0.11333E-03  5345   0.702E-02    0.394E-02
RMM:   3    -0.133493391638E+03    0.35289E-04   -0.75713E-05  3286   0.255E-02    0.391E-02
RMM:   4    -0.133493373101E+03    0.18536E-04   -0.15695E-05  2263   0.184E-02    0.123E-02
RMM:   5    -0.133493372552E+03    0.54998E-06   -0.42644E-06  2154   0.787E-03
  26 F= -.13349337E+03 E0= -.13349233E+03  d E =-.112659E-03
quench:  g(F)=  0.000E+00 g(S)=  0.000E+00 dE (1.order)= 0.000E+00
 bond charge predicted
       N       E                     dE             d eps       ncg     rms          rms(c)
DAV:   1    -0.133493405065E+03   -0.31963E-04   -0.34000E-02  4122   0.380E-01    0.454E-02
RMM:   2    -0.133493570708E+03   -0.16564E-03   -0.17631E-03  5930   0.960E-02    0.279E-02
RMM:   3    -0.133493557290E+03    0.13417E-04   -0.82522E-05  3147   0.233E-02    0.387E-02
RMM:   4    -0.133493535264E+03    0.22026E-04   -0.21328E-05  2410   0.205E-02    0.167E-02
RMM:   5    -0.133493534170E+03    0.10936E-05   -0.97279E-06  2216   0.155E-02
  27 F= -.13349353E+03 E0= -.13349250E+03  d E =-.161619E-03
quench:  g(F)=  0.000E+00 g(S)=  0.000E+00 dE (1.order)= 0.000E+00
 bond charge predicted
       N       E                     dE             d eps       ncg     rms          rms(c)
DAV:   1    -0.133493601948E+03   -0.66684E-04   -0.25924E-02  4167   0.311E-01    0.542E-02
RMM:   2    -0.133493727195E+03   -0.12525E-03   -0.15948E-03  5753   0.807E-02    0.457E-02
RMM:   3    -0.133493681064E+03    0.46131E-04   -0.87794E-05  3270   0.238E-02    0.343E-02
RMM:   4    -0.133493676368E+03    0.46954E-05   -0.32124E-05  2544   0.256E-02
  28 F= -.13349368E+03 E0= -.13349263E+03  d E =-.142198E-03
quench:  g(F)=  0.000E+00 g(S)=  0.000E+00 dE (1.order)= 0.000E+00
 bond charge predicted
       N       E                     dE             d eps       ncg     rms          rms(c)
DAV:   1    -0.133493735306E+03   -0.54242E-04   -0.17957E-02  4743   0.280E-01    0.374E-02
RMM:   2    -0.133493827912E+03   -0.92606E-04   -0.99895E-04  5651   0.683E-02    0.291E-02
RMM:   3    -0.133493811829E+03    0.16083E-04   -0.56079E-05  2988   0.283E-02    0.249E-02
RMM:   4    -0.133493807902E+03    0.39268E-05   -0.16631E-05  2308   0.195E-02
  29 F= -.13349381E+03 E0= -.13349277E+03  d E =-.131534E-03
quench:  g(F)=  0.000E+00 g(S)=  0.000E+00 dE (1.order)= 0.000E+00
 bond charge predicted
       N       E                     dE             d eps       ncg     rms          rms(c)
DAV:   1    -0.133493879567E+03   -0.67738E-04   -0.16449E-02  4356   0.280E-01    0.326E-02
RMM:   2    -0.133493964798E+03   -0.85231E-04   -0.95084E-04  5361   0.686E-02    0.263E-02
RMM:   3    -0.133493941673E+03    0.23125E-04   -0.43052E-05  2778   0.202E-02    0.183E-02
RMM:   4    -0.133493939156E+03    0.25164E-05   -0.11344E-05  2204   0.166E-02
  30 F= -.13349394E+03 E0= -.13349289E+03  d E =-.131254E-03
quench:  g(F)=  0.000E+00 g(S)=  0.000E+00 dE (1.order)= 0.000E+00
 bond charge predicted
       N       E                     dE             d eps       ncg     rms          rms(c)
DAV:   1    -0.133493966649E+03   -0.24977E-04   -0.29962E-02  4050   0.362E-01    0.421E-02
RMM:   2    -0.133494144420E+03   -0.17777E-03   -0.16182E-03  5811   0.905E-02    0.492E-02
RMM:   3    -0.133494105045E+03    0.39375E-04   -0.10529E-04  3636   0.298E-02    0.423E-02
RMM:   4    -0.133494080289E+03    0.24756E-04   -0.20289E-05  2321   0.212E-02    0.145E-02
RMM:   5    -0.133494082678E+03   -0.23897E-05   -0.10602E-05  2290   0.165E-02
  31 F= -.13349408E+03 E0= -.13349303E+03  d E =-.143522E-03
quench:  g(F)=  0.000E+00 g(S)=  0.000E+00 dE (1.order)= 0.000E+00
 bond charge predicted
       N       E                     dE             d eps       ncg     rms          rms(c)
DAV:   1    -0.133494153548E+03   -0.73259E-04   -0.23065E-02  4491   0.304E-01    0.499E-02
RMM:   2    -0.133494267484E+03   -0.11394E-03   -0.13620E-03  5588   0.750E-02    0.432E-02
RMM:   3    -0.133494237429E+03    0.30055E-04   -0.82704E-05  3279   0.242E-02    0.431E-02
RMM:   4    -0.133494213371E+03    0.24057E-04   -0.29281E-05  2474   0.245E-02    0.216E-02
RMM:   5    -0.133494205563E+03    0.78084E-05   -0.12199E-05  2278   0.153E-02
  32 F= -.13349421E+03 E0= -.13349315E+03  d E =-.122885E-03
quench:  g(F)=  0.000E+00 g(S)=  0.000E+00 dE (1.order)= 0.000E+00
 bond charge predicted
       N       E                     dE             d eps       ncg     rms          rms(c)
DAV:   1    -0.133494277923E+03   -0.64552E-04   -0.17124E-02  4437   0.266E-01    0.393E-02
RMM:   2    -0.133494362442E+03   -0.84519E-04   -0.94156E-04  5920   0.643E-02    0.284E-02
RMM:   3    -0.133494347858E+03    0.14585E-04   -0.47310E-05  2802   0.224E-02    0.257E-02
RMM:   4    -0.133494344851E+03    0.30065E-05   -0.19679E-05  2342   0.214E-02
  33 F= -.13349434E+03 E0= -.13349330E+03  d E =-.139288E-03
quench:  g(F)=  0.000E+00 g(S)=  0.000E+00 dE (1.order)= 0.000E+00
 bond charge predicted
       N       E                     dE             d eps       ncg     rms          rms(c)
DAV:   1    -0.133494420657E+03   -0.72799E-04   -0.13484E-02  4842   0.264E-01    0.308E-02
RMM:   2    -0.133494495697E+03   -0.75040E-04   -0.73690E-04  5088   0.609E-02    0.308E-02
RMM:   3    -0.133494479864E+03    0.15833E-04   -0.45973E-05  2798   0.212E-02    0.302E-02
RMM:   4    -0.133494465111E+03    0.14752E-04   -0.13111E-05  2230   0.181E-02    0.124E-02
RMM:   5    -0.133494464123E+03    0.98837E-06   -0.67524E-06  2237   0.124E-02
  34 F= -.13349446E+03 E0= -.13349340E+03  d E =-.119272E-03
quench:  g(F)=  0.000E+00 g(S)=  0.000E+00 dE (1.order)= 0.000E+00
 bond charge predicted
       N       E                     dE             d eps       ncg     rms          rms(c)
DAV:   1    -0.133494516676E+03   -0.51564E-04   -0.23958E-02  4050   0.317E-01    0.381E-02
RMM:   2    -0.133494634122E+03   -0.11745E-03   -0.12491E-03  5704   0.812E-02    0.278E-02
RMM:   3    -0.133494621843E+03    0.12279E-04   -0.64384E-05  3012   0.255E-02    0.329E-02
RMM:   4    -0.133494608028E+03    0.13815E-04   -0.18259E-05  2353   0.199E-02    0.162E-02
RMM:   5    -0.133494607626E+03    0.40251E-06   -0.72689E-06  2266   0.133E-02
  35 F= -.13349461E+03 E0= -.13349355E+03  d E =-.143503E-03
quench:  g(F)=  0.000E+00 g(S)=  0.000E+00 dE (1.order)= 0.000E+00
 bond charge predicted
       N       E                     dE             d eps       ncg     rms          rms(c)
DAV:   1    -0.133494671234E+03   -0.63206E-04   -0.20821E-02  4302   0.286E-01    0.464E-02
RMM:   2    -0.133494770564E+03   -0.99330E-04   -0.12100E-03  5563   0.720E-02    0.383E-02
RMM:   3    -0.133494742516E+03    0.28048E-04   -0.65215E-05  3022   0.220E-02    0.356E-02
RMM:   4    -0.133494729599E+03    0.12918E-04   -0.25041E-05  2404   0.235E-02    0.219E-02
RMM:   5    -0.133494720681E+03    0.89173E-05   -0.96440E-06  2310   0.136E-02
  36 F= -.13349472E+03 E0= -.13349366E+03  d E =-.113056E-03
quench:  g(F)=  0.000E+00 g(S)=  0.000E+00 dE (1.order)= 0.000E+00
 bond charge predicted
       N       E                     dE             d eps       ncg     rms          rms(c)
DAV:   1    -0.133494789069E+03   -0.59470E-04   -0.16056E-02  4392   0.254E-01    0.387E-02
RMM:   2    -0.133494866702E+03   -0.77633E-04   -0.87986E-04  5884   0.620E-02    0.284E-02
RMM:   3    -0.133494853220E+03    0.13481E-04   -0.44365E-05  2772   0.215E-02    0.257E-02
RMM:   4    -0.133494850078E+03    0.31419E-05   -0.18930E-05  2341   0.209E-02
  37 F= -.13349485E+03 E0= -.13349379E+03  d E =-.129397E-03
quench:  g(F)=  0.000E+00 g(S)=  0.000E+00 dE (1.order)= 0.000E+00
 bond charge predicted
       N       E                     dE             d eps       ncg     rms          rms(c)
DAV:   1    -0.133494923924E+03   -0.70704E-04   -0.10849E-02  4860   0.239E-01    0.284E-02
RMM:   2    -0.133494982475E+03   -0.58551E-04   -0.58018E-04  4903   0.548E-02    0.270E-02
RMM:   3    -0.133494971139E+03    0.11336E-04   -0.35814E-05  2648   0.200E-02    0.272E-02
RMM:   4    -0.133494960211E+03    0.10928E-04   -0.11204E-05  2229   0.171E-02    0.115E-02
RMM:   5    -0.133494958624E+03    0.15862E-05   -0.59984E-06  2245   0.115E-02
  38 F= -.13349496E+03 E0= -.13349389E+03  d E =-.108546E-03
quench:  g(F)=  0.000E+00 g(S)=  0.000E+00 dE (1.order)= 0.000E+00
 bond charge predicted
       N       E                     dE             d eps       ncg     rms          rms(c)
DAV:   1    -0.133495017943E+03   -0.57732E-04   -0.19339E-02  4113   0.285E-01    0.339E-02
RMM:   2    -0.133495111664E+03   -0.93721E-04   -0.10005E-03  5649   0.722E-02    0.243E-02
RMM:   3    -0.133495100103E+03    0.11561E-04   -0.47798E-05  2805   0.226E-02    0.284E-02
RMM:   4    -0.133495090256E+03    0.98469E-05   -0.15125E-05  2306   0.188E-02
  39 F= -.13349509E+03 E0= -.13349403E+03  d E =-.131632E-03
quench:  g(F)=  0.000E+00 g(S)=  0.000E+00 dE (1.order)= 0.000E+00
 bond charge predicted
       N       E                     dE             d eps       ncg     rms          rms(c)
DAV:   1    -0.133495145810E+03   -0.45707E-04   -0.19204E-02  4410   0.281E-01    0.407E-02
RMM:   2    -0.133495231000E+03   -0.85189E-04   -0.10379E-03  5390   0.681E-02    0.314E-02
RMM:   3    -0.133495203705E+03    0.27294E-04   -0.46502E-05  2781   0.202E-02    0.196E-02
RMM:   4    -0.133495202675E+03    0.10306E-05   -0.21742E-05  2345   0.235E-02
  40 F= -.13349520E+03 E0= -.13349413E+03  d E =-.112419E-03
quench:  g(F)=  0.000E+00 g(S)=  0.000E+00 dE (1.order)= 0.000E+00
 bond charge predicted
       N       E                     dE             d eps       ncg     rms          rms(c)
DAV:   1    -0.133495262283E+03   -0.58578E-04   -0.15670E-02  4824   0.272E-01    0.393E-02
RMM:   2    -0.133495395623E+03   -0.13334E-03   -0.91585E-04  5292   0.672E-02    0.671E-02
RMM:   3    -0.133495324843E+03    0.70780E-04   -0.81393E-05  3417   0.291E-02    0.301E-02
RMM:   4    -0.133495314357E+03    0.10487E-04   -0.17979E-05  2297   0.196E-02    0.129E-02
RMM:   5    -0.133495315228E+03   -0.87141E-06   -0.10675E-05  2279   0.167E-02
  41 F= -.13349532E+03 E0= -.13349425E+03  d E =-.112553E-03
quench:  g(F)=  0.000E+00 g(S)=  0.000E+00 dE (1.order)= 0.000E+00
 bond charge predicted
       N       E                     dE             d eps       ncg     rms          rms(c)
DAV:   1    -0.133495398113E+03   -0.83757E-04   -0.10237E-02  4788   0.218E-01    0.292E-02
RMM:   2    -0.133495447767E+03   -0.49654E-04   -0.56257E-04  4838   0.498E-02    0.224E-02
RMM:   3    -0.133495436068E+03    0.11699E-04   -0.26551E-05  2585   0.155E-02    0.221E-02
RMM:   4    -0.133495430971E+03    0.50970E-05   -0.10871E-05  2241   0.168E-02
  42 F= -.13349543E+03 E0= -.13349436E+03  d E =-.115743E-03
quench:  g(F)=  0.000E+00 g(S)=  0.000E+00 dE (1.order)= 0.000E+00
 bond charge predicted
       N       E                     dE             d eps       ncg     rms          rms(c)
DAV:   1    -0.133495496986E+03   -0.60918E-04   -0.17404E-02  4158   0.270E-01    0.307E-02
RMM:   2    -0.133495581746E+03   -0.84759E-04   -0.89140E-04  5679   0.676E-02    0.214E-02
RMM:   3    -0.133495576421E+03    0.53248E-05   -0.40824E-05  2701   0.211E-02
  43 F= -.13349558E+03 E0= -.13349450E+03  d E =-.145450E-03
quench:  g(F)=  0.000E+00 g(S)=  0.000E+00 dE (1.order)= 0.000E+00
 bond charge predicted
       N       E                     dE             d eps       ncg     rms          rms(c)
DAV:   1    -0.133495617134E+03   -0.35388E-04   -0.19037E-02  4869   0.301E-01    0.386E-02
RMM:   2    -0.133495709389E+03   -0.92255E-04   -0.10284E-03  5303   0.640E-02    0.312E-02
RMM:   3    -0.133495692751E+03    0.16638E-04   -0.52174E-05  2886   0.192E-02    0.370E-02
RMM:   4    -0.133495676475E+03    0.16276E-04   -0.18390E-05  2333   0.207E-02    0.152E-02
RMM:   5    -0.133495672322E+03    0.41529E-05   -0.62369E-06  2261   0.109E-02
  44 F= -.13349567E+03 E0= -.13349459E+03  d E =-.959015E-04
quench:  g(F)=  0.000E+00 g(S)=  0.000E+00 dE (1.order)= 0.000E+00
 bond charge predicted
       N       E                     dE             d eps       ncg     rms          rms(c)
DAV:   1    -0.133495735458E+03   -0.58983E-04   -0.18140E-02  4203   0.262E-01    0.421E-02
RMM:   2    -0.133495821612E+03   -0.86154E-04   -0.99735E-04  6042   0.647E-02    0.309E-02
RMM:   3    -0.133495811965E+03    0.96476E-05   -0.48034E-05  2806   0.202E-02
  45 F= -.13349581E+03 E0= -.13349473E+03  d E =-.139642E-03
quench:  g(F)=  0.000E+00 g(S)=  0.000E+00 dE (1.order)= 0.000E+00
 bond charge predicted
       N       E                     dE             d eps       ncg     rms          rms(c)
DAV:   1    -0.133495870193E+03   -0.48581E-04   -0.74654E-03  5247   0.239E-01    0.256E-02
RMM:   2    -0.133495965032E+03   -0.94838E-04   -0.42946E-04  4719   0.482E-02    0.562E-02
RMM:   3    -0.133495899420E+03    0.65612E-04   -0.45280E-05  2789   0.208E-02    0.181E-02
RMM:   4    -0.133495897406E+03    0.20144E-05   -0.10141E-05  2212   0.153E-02
  46 F= -.13349590E+03 E0= -.13349482E+03  d E =-.854411E-04
quench:  g(F)=  0.000E+00 g(S)=  0.000E+00 dE (1.order)= 0.000E+00
 bond charge predicted
       N       E                     dE             d eps       ncg     rms          rms(c)
DAV:   1    -0.133495977355E+03   -0.77935E-04   -0.12829E-02  4176   0.232E-01    0.259E-02
RMM:   2    -0.133496037872E+03   -0.60517E-04   -0.63922E-04  5474   0.568E-02    0.158E-02
RMM:   3    -0.133496028553E+03    0.93186E-05   -0.25883E-05  2547   0.150E-02
  47 F= -.13349603E+03 E0= -.13349495E+03  d E =-.131148E-03
quench:  g(F)=  0.000E+00 g(S)=  0.000E+00 dE (1.order)= 0.000E+00
 bond charge predicted
       N       E                     dE             d eps       ncg     rms          rms(c)
DAV:   1    -0.133496092437E+03   -0.54565E-04   -0.20510E-02  4176   0.289E-01    0.372E-02
RMM:   2    -0.133496197254E+03   -0.10482E-03   -0.10852E-03  5458   0.739E-02    0.333E-02
RMM:   3    -0.133496180900E+03    0.16354E-04   -0.64591E-05  3026   0.243E-02    0.410E-02
RMM:   4    -0.133496159287E+03    0.21613E-04   -0.18644E-05  2315   0.210E-02    0.141E-02
RMM:   5    -0.133496157161E+03    0.21266E-05   -0.54838E-06  2222   0.101E-02
  48 F= -.13349616E+03 E0= -.13349507E+03  d E =-.128607E-03
quench:  g(F)=  0.000E+00 g(S)=  0.000E+00 dE (1.order)= 0.000E+00
 bond charge predicted
       N       E                     dE             d eps       ncg     rms          rms(c)
DAV:   1    -0.133496198713E+03   -0.39426E-04   -0.21994E-02  4176   0.285E-01    0.460E-02
RMM:   2    -0.133496301018E+03   -0.10230E-03   -0.11888E-03  6125   0.720E-02    0.338E-02
RMM:   3    -0.133496289963E+03    0.11055E-04   -0.59355E-05  2916   0.200E-02    0.353E-02
RMM:   4    -0.133496274642E+03    0.15321E-04   -0.25215E-05  2436   0.231E-02    0.220E-02
RMM:   5    -0.133496266656E+03    0.79860E-05   -0.81929E-06  2244   0.141E-02
  49 F= -.13349627E+03 E0= -.13349519E+03  d E =-.109495E-03
quench:  g(F)=  0.000E+00 g(S)=  0.000E+00 dE (1.order)= 0.000E+00
 bond charge predicted
       N       E                     dE             d eps       ncg     rms          rms(c)
DAV:   1    -0.133496363315E+03   -0.88673E-04   -0.10825E-02  4446   0.191E-01    0.358E-02
RMM:   2    -0.133496410001E+03   -0.46686E-04   -0.58265E-04  4920   0.496E-02    0.295E-02
RMM:   3    -0.133496393321E+03    0.16680E-04   -0.36866E-05  2665   0.212E-02    0.200E-02
RMM:   4    -0.133496394318E+03   -0.99628E-06   -0.20446E-05  2302   0.226E-02
  50 F= -.13349639E+03 E0= -.13349530E+03  d E =-.127662E-03
quench:  g(F)=  0.000E+00 g(S)=  0.000E+00 dE (1.order)= 0.000E+00
 bond charge predicted
       N       E                     dE             d eps       ncg     rms          rms(c)
DAV:   1    -0.133496461437E+03   -0.68116E-04   -0.92196E-03  4788   0.218E-01    0.251E-02
RMM:   2    -0.133496529334E+03   -0.67896E-04   -0.51550E-04  5067   0.519E-02    0.322E-02
RMM:   3    -0.133496504778E+03    0.24555E-04   -0.36202E-05  2657   0.184E-02    0.247E-02
RMM:   4    -0.133496497424E+03    0.73545E-05   -0.12271E-05  2186   0.181E-02
  51 F= -.13349650E+03 E0= -.13349541E+03  d E =-.103106E-03
quench:  g(F)=  0.000E+00 g(S)=  0.000E+00 dE (1.order)= 0.000E+00
 bond charge predicted
       N       E                     dE             d eps       ncg     rms          rms(c)
DAV:   1    -0.133496585799E+03   -0.81020E-04   -0.16320E-02  4050   0.257E-01    0.302E-02
RMM:   2    -0.133496660337E+03   -0.74538E-04   -0.80248E-04  5400   0.625E-02    0.218E-02
RMM:   3    -0.133496647186E+03    0.13150E-04   -0.30391E-05  2635   0.160E-02    0.258E-02
RMM:   4    -0.133496639235E+03    0.79511E-05   -0.11979E-05  2242   0.178E-02
  52 F= -.13349664E+03 E0= -.13349555E+03  d E =-.141812E-03
quench:  g(F)=  0.000E+00 g(S)=  0.000E+00 dE (1.order)= 0.000E+00
 bond charge predicted
       N       E                     dE             d eps       ncg     rms          rms(c)
DAV:   1    -0.133496679097E+03   -0.31910E-04   -0.22835E-02  4086   0.294E-01    0.406E-02
RMM:   2    -0.133496783633E+03   -0.10454E-03   -0.11439E-03  5830   0.751E-02    0.331E-02
RMM:   3    -0.133496773908E+03    0.97249E-05   -0.60503E-05  2938   0.251E-02
  53 F= -.13349677E+03 E0= -.13349568E+03  d E =-.134672E-03
quench:  g(F)=  0.000E+00 g(S)=  0.000E+00 dE (1.order)= 0.000E+00
 bond charge predicted
       N       E                     dE             d eps       ncg     rms          rms(c)
DAV:   1    -0.133496830554E+03   -0.46922E-04   -0.10200E-02  5355   0.249E-01    0.317E-02
RMM:   2    -0.133496907730E+03   -0.77175E-04   -0.56662E-04  4871   0.491E-02    0.437E-02
RMM:   3    -0.133496873119E+03    0.34611E-04   -0.47504E-05  2805   0.212E-02    0.304E-02
RMM:   4    -0.133496862016E+03    0.11103E-04   -0.14914E-05  2293   0.184E-02    0.105E-02
RMM:   5    -0.133496860687E+03    0.13287E-05   -0.52891E-06  2223   0.963E-03
  54 F= -.13349686E+03 E0= -.13349577E+03  d E =-.867793E-04
quench:  g(F)=  0.000E+00 g(S)=  0.000E+00 dE (1.order)= 0.000E+00
 bond charge predicted
       N       E                     dE             d eps       ncg     rms          rms(c)
DAV:   1    -0.133496930454E+03   -0.68438E-04   -0.82690E-03  4203   0.188E-01    0.237E-02
RMM:   2    -0.133496970552E+03   -0.40098E-04   -0.43712E-04  5260   0.461E-02    0.151E-02
RMM:   3    -0.133496962658E+03    0.78939E-05   -0.19370E-05  2344   0.151E-02
  55 F= -.13349696E+03 E0= -.13349587E+03  d E =-.101971E-03
quench:  g(F)=  0.000E+00 g(S)=  0.000E+00 dE (1.order)= 0.000E+00
 bond charge predicted
       N       E                     dE             d eps       ncg     rms          rms(c)
DAV:   1    -0.133497043379E+03   -0.72827E-04   -0.13449E-02  4203   0.240E-01    0.277E-02
RMM:   2    -0.133497107746E+03   -0.64367E-04   -0.69418E-04  5263   0.568E-02    0.206E-02
RMM:   3    -0.133497099890E+03    0.78567E-05   -0.29881E-05  2624   0.151E-02
  56 F= -.13349710E+03 E0= -.13349600E+03  d E =-.137232E-03
quench:  g(F)=  0.000E+00 g(S)=  0.000E+00 dE (1.order)= 0.000E+00
 bond charge predicted
       N       E                     dE             d eps       ncg     rms          rms(c)
DAV:   1    -0.133497130431E+03   -0.22685E-04   -0.18908E-02  4554   0.290E-01    0.358E-02
RMM:   2    -0.133497223956E+03   -0.93525E-04   -0.10394E-03  5854   0.666E-02    0.258E-02
RMM:   3    -0.133497203784E+03    0.20172E-04   -0.39252E-05  2719   0.176E-02    0.167E-02
RMM:   4    -0.133497208042E+03   -0.42573E-05   -0.12210E-05  2309   0.160E-02
  57 F= -.13349721E+03 E0= -.13349612E+03  d E =-.108152E-03
quench:  g(F)=  0.000E+00 g(S)=  0.000E+00 dE (1.order)= 0.000E+00
 bond charge predicted
       N       E                     dE             d eps       ncg     rms          rms(c)
DAV:   1    -0.133497281295E+03   -0.77511E-04   -0.11070E-02  4878   0.217E-01    0.337E-02
RMM:   2    -0.133497329058E+03   -0.47763E-04   -0.59186E-04  4789   0.498E-02    0.266E-02
RMM:   3    -0.133497313088E+03    0.15970E-04   -0.29806E-05  2531   0.170E-02    0.148E-02
RMM:   4    -0.133497313573E+03   -0.48451E-06   -0.17826E-05  2353   0.211E-02
  58 F= -.13349731E+03 E0= -.13349621E+03  d E =-.105531E-03
quench:  g(F)=  0.000E+00 g(S)=  0.000E+00 dE (1.order)= 0.000E+00
 bond charge predicted
       N       E                     dE             d eps       ncg     rms          rms(c)
DAV:   1    -0.133497383578E+03   -0.70489E-04   -0.87024E-03  4887   0.215E-01    0.260E-02
RMM:   2    -0.133497459431E+03   -0.75854E-04   -0.50646E-04  5103   0.493E-02    0.462E-02
RMM:   3    -0.133497418831E+03    0.40600E-04   -0.36544E-05  2673   0.188E-02    0.201E-02
RMM:   4    -0.133497414843E+03    0.39883E-05   -0.12970E-05  2177   0.188E-02
  59 F= -.13349741E+03 E0= -.13349632E+03  d E =-.101270E-03
quench:  g(F)=  0.000E+00 g(S)=  0.000E+00 dE (1.order)= 0.000E+00
 bond charge predicted
       N       E                     dE             d eps       ncg     rms          rms(c)
DAV:   1    -0.133497502976E+03   -0.84144E-04   -0.14187E-02  4122   0.238E-01    0.285E-02
RMM:   2    -0.133497567204E+03   -0.64229E-04   -0.70771E-04  5315   0.580E-02    0.182E-02
RMM:   3    -0.133497551572E+03    0.15633E-04   -0.22863E-05  2496   0.125E-02    0.126E-02
RMM:   4    -0.133497552152E+03   -0.58002E-06   -0.79470E-06  2263   0.138E-02
  60 F= -.13349755E+03 E0= -.13349645E+03  d E =-.137309E-03
quench:  g(F)=  0.000E+00 g(S)=  0.000E+00 dE (1.order)= 0.000E+00
 bond charge predicted
       N       E                     dE             d eps       ncg     rms          rms(c)
DAV:   1    -0.133497602040E+03   -0.50468E-04   -0.21422E-02  4131   0.294E-01    0.393E-02
RMM:   2    -0.133497707955E+03   -0.10592E-03   -0.11388E-03  6005   0.729E-02    0.324E-02
RMM:   3    -0.133497697157E+03    0.10799E-04   -0.59487E-05  2916   0.197E-02    0.380E-02
RMM:   4    -0.133497678110E+03    0.19047E-04   -0.19855E-05  2374   0.211E-02    0.152E-02
RMM:   5    -0.133497676840E+03    0.12700E-05   -0.80730E-06  2243   0.142E-02
  61 F= -.13349768E+03 E0= -.13349657E+03  d E =-.124688E-03
quench:  g(F)=  0.000E+00 g(S)=  0.000E+00 dE (1.order)= 0.000E+00
 bond charge predicted
       N       E                     dE             d eps       ncg     rms          rms(c)
DAV:   1    -0.133497757618E+03   -0.79509E-04   -0.14809E-02  4374   0.220E-01    0.396E-02
RMM:   2    -0.133497819532E+03   -0.61914E-04   -0.77078E-04  5151   0.554E-02    0.328E-02
RMM:   3    -0.133497802120E+03    0.17412E-04   -0.44572E-05  2746   0.213E-02    0.277E-02
RMM:   4    -0.133497797366E+03    0.47545E-05   -0.20412E-05  2346   0.224E-02
  62 F= -.13349780E+03 E0= -.13349668E+03  d E =-.120526E-03
quench:  g(F)=  0.000E+00 g(S)=  0.000E+00 dE (1.order)= 0.000E+00
 bond charge predicted
       N       E                     dE             d eps       ncg     rms          rms(c)
DAV:   1    -0.133497859297E+03   -0.57177E-04   -0.72651E-03  4761   0.180E-01    0.244E-02
RMM:   2    -0.133497896278E+03   -0.36981E-04   -0.39306E-04  4862   0.451E-02    0.207E-02
RMM:   3    -0.133497887320E+03    0.89584E-05   -0.26331E-05  2441   0.208E-02
  63 F= -.13349789E+03 E0= -.13349678E+03  d E =-.899539E-04
quench:  g(F)=  0.000E+00 g(S)=  0.000E+00 dE (1.order)= 0.000E+00
 bond charge predicted
       N       E                     dE             d eps       ncg     rms          rms(c)
DAV:   1    -0.133497964267E+03   -0.67989E-04   -0.98703E-03  4590   0.208E-01    0.239E-02
RMM:   2    -0.133498016700E+03   -0.52433E-04   -0.47990E-04  4830   0.498E-02    0.278E-02
RMM:   3    -0.133498005236E+03    0.11465E-04   -0.27540E-05  2568   0.179E-02    0.241E-02
RMM:   4    -0.133497997034E+03    0.82013E-05   -0.84953E-06  2208   0.154E-02
  64 F= -.13349800E+03 E0= -.13349688E+03  d E =-.109715E-03
quench:  g(F)=  0.000E+00 g(S)=  0.000E+00 dE (1.order)= 0.000E+00
 bond charge predicted
       N       E                     dE             d eps       ncg     rms          rms(c)
DAV:   1    -0.133498068113E+03   -0.62878E-04   -0.18443E-02  4149   0.264E-01    0.342E-02
RMM:   2    -0.133498147310E+03   -0.79197E-04   -0.87527E-04  5856   0.668E-02    0.236E-02
RMM:   3    -0.133498136597E+03    0.10713E-04   -0.37975E-05  2711   0.180E-02    0.236E-02
RMM:   4    -0.133498132943E+03    0.36534E-05   -0.12974E-05  2311   0.172E-02
  65 F= -.13349813E+03 E0= -.13349702E+03  d E =-.135909E-03
quench:  g(F)=  0.000E+00 g(S)=  0.000E+00 dE (1.order)= 0.000E+00
 bond charge predicted
       N       E                     dE             d eps       ncg     rms          rms(c)
DAV:   1    -0.133498186299E+03   -0.49703E-04   -0.16595E-02  4599   0.242E-01    0.386E-02
RMM:   2    -0.133498251712E+03   -0.65413E-04   -0.80810E-04  5145   0.588E-02    0.297E-02
RMM:   3    -0.133498231334E+03    0.20379E-04   -0.39511E-05  2664   0.189E-02    0.176E-02
RMM:   4    -0.133498229636E+03    0.16977E-05   -0.22330E-05  2384   0.239E-02
  66 F= -.13349823E+03 E0= -.13349711E+03  d E =-.966929E-04
quench:  g(F)=  0.000E+00 g(S)=  0.000E+00 dE (1.order)= 0.000E+00
 bond charge predicted
       N       E                     dE             d eps       ncg     rms          rms(c)
DAV:   1    -0.133498303765E+03   -0.72432E-04   -0.92158E-03  5076   0.224E-01    0.317E-02
RMM:   2    -0.133498402228E+03   -0.98463E-04   -0.55341E-04  5176   0.522E-02    0.614E-02
RMM:   3    -0.133498334668E+03    0.67560E-04   -0.48773E-05  2836   0.227E-02    0.225E-02
RMM:   4    -0.133498330041E+03    0.46267E-05   -0.14678E-05  2261   0.182E-02
  67 F= -.13349833E+03 E0= -.13349721E+03  d E =-.100405E-03
quench:  g(F)=  0.000E+00 g(S)=  0.000E+00 dE (1.order)= 0.000E+00
 bond charge predicted
       N       E                     dE             d eps       ncg     rms          rms(c)
DAV:   1    -0.133498407748E+03   -0.73080E-04   -0.87216E-03  4473   0.189E-01    0.225E-02
RMM:   2    -0.133498445800E+03   -0.38052E-04   -0.40995E-04  4574   0.456E-02    0.146E-02
RMM:   3    -0.133498440087E+03    0.57133E-05   -0.22035E-05  2415   0.169E-02
  68 F= -.13349844E+03 E0= -.13349732E+03  d E =-.110046E-03
quench:  g(F)=  0.000E+00 g(S)=  0.000E+00 dE (1.order)= 0.000E+00
 bond charge predicted
       N       E                     dE             d eps       ncg     rms          rms(c)
DAV:   1    -0.133498510077E+03   -0.64277E-04   -0.15909E-02  4392   0.261E-01    0.313E-02
RMM:   2    -0.133498591169E+03   -0.81091E-04   -0.79904E-04  5834   0.617E-02    0.269E-02
RMM:   3    -0.133498583211E+03    0.79583E-05   -0.42816E-05  2736   0.180E-02
  69 F= -.13349858E+03 E0= -.13349747E+03  d E =-.143124E-03
quench:  g(F)=  0.000E+00 g(S)=  0.000E+00 dE (1.order)= 0.000E+00
 bond charge predicted
       N       E                     dE             d eps       ncg     rms          rms(c)
DAV:   1    -0.133498606439E+03   -0.15270E-04   -0.17959E-02  4851   0.272E-01    0.386E-02
RMM:   2    -0.133498685112E+03   -0.78672E-04   -0.90937E-04  5157   0.609E-02    0.332E-02
RMM:   3    -0.133498668498E+03    0.16613E-04   -0.45322E-05  2808   0.191E-02    0.290E-02
RMM:   4    -0.133498663232E+03    0.52661E-05   -0.17440E-05  2379   0.188E-02
  70 F= -.13349866E+03 E0= -.13349753E+03  d E =-.800215E-04
quench:  g(F)=  0.000E+00 g(S)=  0.000E+00 dE (1.order)= 0.000E+00
 bond charge predicted
       N       E                     dE             d eps       ncg     rms          rms(c)
DAV:   1    -0.133498734165E+03   -0.65667E-04   -0.10700E-02  4878   0.218E-01    0.324E-02
RMM:   2    -0.133498784906E+03   -0.50741E-04   -0.57510E-04  5326   0.505E-02    0.284E-02
RMM:   3    -0.133498773388E+03    0.11519E-04   -0.34449E-05  2658   0.190E-02    0.196E-02
RMM:   4    -0.133498773748E+03   -0.36028E-06   -0.11731E-05  2297   0.151E-02
  71 F= -.13349877E+03 E0= -.13349765E+03  d E =-.110516E-03
quench:  g(F)=  0.000E+00 g(S)=  0.000E+00 dE (1.order)= 0.000E+00
 bond charge predicted
       N       E                     dE             d eps       ncg     rms          rms(c)
DAV:   1    -0.133498842025E+03   -0.68638E-04   -0.80135E-03  5139   0.207E-01    0.219E-02
RMM:   2    -0.133498879012E+03   -0.36987E-04   -0.37731E-04  4403   0.455E-02    0.173E-02
RMM:   3    -0.133498875448E+03    0.35639E-05   -0.25684E-05  2439   0.195E-02
  72 F= -.13349888E+03 E0= -.13349774E+03  d E =-.101700E-03
quench:  g(F)=  0.000E+00 g(S)=  0.000E+00 dE (1.order)= 0.000E+00
 bond charge predicted
       N       E                     dE             d eps       ncg     rms          rms(c)
DAV:   1    -0.133498938261E+03   -0.59249E-04   -0.14620E-02  4572   0.252E-01    0.304E-02
RMM:   2    -0.133499007818E+03   -0.69557E-04   -0.76375E-04  5561   0.611E-02    0.200E-02
RMM:   3    -0.133498992595E+03    0.15223E-04   -0.32641E-05  2555   0.203E-02    0.143E-02
RMM:   4    -0.133498993308E+03   -0.71294E-06   -0.13249E-05  2225   0.191E-02
  73 F= -.13349899E+03 E0= -.13349787E+03  d E =-.117860E-03
quench:  g(F)=  0.000E+00 g(S)=  0.000E+00 dE (1.order)= 0.000E+00
 bond charge predicted
       N       E                     dE             d eps       ncg     rms          rms(c)
DAV:   1    -0.133499039492E+03   -0.46897E-04   -0.18869E-02  4437   0.258E-01    0.401E-02
RMM:   2    -0.133499129192E+03   -0.89700E-04   -0.93218E-04  5310   0.631E-02    0.393E-02
RMM:   3    -0.133499113780E+03    0.15412E-04   -0.62707E-05  2933   0.190E-02    0.398E-02
RMM:   4    -0.133499093218E+03    0.20563E-04   -0.22211E-05  2398   0.228E-02    0.162E-02
RMM:   5    -0.133499090989E+03    0.22287E-05   -0.13686E-05  2312   0.178E-02
  74 F= -.13349909E+03 E0= -.13349795E+03  d E =-.976811E-04
quench:  g(F)=  0.000E+00 g(S)=  0.000E+00 dE (1.order)= 0.000E+00
 bond charge predicted
       N       E                     dE             d eps       ncg     rms          rms(c)
DAV:   1    -0.133499168289E+03   -0.75071E-04   -0.11234E-02  4491   0.205E-01    0.342E-02
RMM:   2    -0.133499218066E+03   -0.49777E-04   -0.59914E-04  5545   0.498E-02    0.277E-02
RMM:   3    -0.133499209237E+03    0.88284E-05   -0.32292E-05  2633   0.179E-02
  75 F= -.13349921E+03 E0= -.13349808E+03  d E =-.118248E-03
quench:  g(F)=  0.000E+00 g(S)=  0.000E+00 dE (1.order)= 0.000E+00
 bond charge predicted
       N       E                     dE             d eps       ncg     rms          rms(c)
DAV:   1    -0.133499272856E+03   -0.54790E-04   -0.80982E-03  5328   0.221E-01    0.253E-02
RMM:   2    -0.133499368229E+03   -0.95373E-04   -0.41866E-04  4664   0.490E-02    0.566E-02
RMM:   3    -0.133499301488E+03    0.66741E-04   -0.43722E-05  2771   0.218E-02    0.165E-02
RMM:   4    -0.133499300329E+03    0.11588E-05   -0.81487E-06  2216   0.138E-02
  76 F= -.13349930E+03 E0= -.13349816E+03  d E =-.910919E-04
quench:  g(F)=  0.000E+00 g(S)=  0.000E+00 dE (1.order)= 0.000E+00
 bond charge predicted
       N       E                     dE             d eps       ncg     rms          rms(c)
DAV:   1    -0.133499377802E+03   -0.76314E-04   -0.15474E-02  4176   0.242E-01    0.302E-02
RMM:   2    -0.133499444923E+03   -0.67121E-04   -0.72860E-04  5805   0.624E-02    0.202E-02
RMM:   3    -0.133499437392E+03    0.75308E-05   -0.30381E-05  2622   0.162E-02
  77 F= -.13349944E+03 E0= -.13349830E+03  d E =-.137063E-03
quench:  g(F)=  0.000E+00 g(S)=  0.000E+00 dE (1.order)= 0.000E+00
 bond charge predicted
       N       E                     dE             d eps       ncg     rms          rms(c)
DAV:   1    -0.133499473956E+03   -0.29033E-04   -0.20202E-02  4671   0.276E-01    0.390E-02
RMM:   2    -0.133499570627E+03   -0.96671E-04   -0.96241E-04  5266   0.659E-02    0.363E-02
RMM:   3    -0.133499557578E+03    0.13048E-04   -0.70624E-05  3113   0.258E-02    0.432E-02
RMM:   4    -0.133499532607E+03    0.24971E-04   -0.18782E-05  2363   0.208E-02    0.139E-02
RMM:   5    -0.133499530364E+03    0.22430E-05   -0.53866E-06  2233   0.103E-02
  78 F= -.13349953E+03 E0= -.13349839E+03  d E =-.929718E-04
quench:  g(F)=  0.000E+00 g(S)=  0.000E+00 dE (1.order)= 0.000E+00
 bond charge predicted
       N       E                     dE             d eps       ncg     rms          rms(c)
DAV:   1    -0.133499604534E+03   -0.71928E-04   -0.12944E-02  4203   0.209E-01    0.373E-02
RMM:   2    -0.133499661163E+03   -0.56629E-04   -0.70076E-04  5915   0.541E-02    0.296E-02
RMM:   3    -0.133499650591E+03    0.10572E-04   -0.35571E-05  2697   0.161E-02    0.232E-02
RMM:   4    -0.133499649792E+03    0.79972E-06   -0.15869E-05  2358   0.181E-02
  79 F= -.13349965E+03 E0= -.13349852E+03  d E =-.119428E-03
quench:  g(F)=  0.000E+00 g(S)=  0.000E+00 dE (1.order)= 0.000E+00
 bond charge predicted
       N       E                     dE             d eps       ncg     rms          rms(c)
DAV:   1    -0.133499709331E+03   -0.58740E-04   -0.82688E-03  5184   0.201E-01    0.231E-02
RMM:   2    -0.133499745714E+03   -0.36383E-04   -0.38232E-04  4338   0.440E-02    0.175E-02
RMM:   3    -0.133499739490E+03    0.62236E-05   -0.23814E-05  2411   0.180E-02
  80 F= -.13349974E+03 E0= -.13349860E+03  d E =-.896987E-04
quench:  g(F)=  0.000E+00 g(S)=  0.000E+00 dE (1.order)= 0.000E+00
 bond charge predicted
       N       E                     dE             d eps       ncg     rms          rms(c)
DAV:   1    -0.133499806794E+03   -0.61080E-04   -0.13208E-02  4671   0.245E-01    0.284E-02
RMM:   2    -0.133499876445E+03   -0.69651E-04   -0.64230E-04  5589   0.546E-02    0.291E-02
RMM:   3    -0.133499865843E+03    0.10602E-04   -0.37066E-05  2692   0.185E-02    0.310E-02
RMM:   4    -0.133499852705E+03    0.13138E-04   -0.12405E-05  2204   0.184E-02    0.987E-03
RMM:   5    -0.133499852714E+03   -0.94369E-08   -0.51779E-06  2179   0.106E-02
  81 F= -.13349985E+03 E0= -.13349871E+03  d E =-.113224E-03
quench:  g(F)=  0.000E+00 g(S)=  0.000E+00 dE (1.order)= 0.000E+00
 bond charge predicted
       N       E                     dE             d eps       ncg     rms          rms(c)
DAV:   1    -0.133499906028E+03   -0.53323E-04   -0.22675E-02  4176   0.274E-01    0.395E-02
RMM:   2    -0.133499997380E+03   -0.91351E-04   -0.10722E-03  5528   0.711E-02    0.283E-02
RMM:   3    -0.133499974220E+03    0.23160E-04   -0.44156E-05  2749   0.175E-02    0.196E-02
RMM:   4    -0.133499980004E+03   -0.57839E-05   -0.18001E-05  2324   0.208E-02
  82 F= -.13349998E+03 E0= -.13349883E+03  d E =-.127290E-03
quench:  g(F)=  0.000E+00 g(S)=  0.000E+00 dE (1.order)= 0.000E+00
 bond charge predicted
       N       E                     dE             d eps       ncg     rms          rms(c)
DAV:   1    -0.133500018485E+03   -0.44265E-04   -0.15159E-02  4725   0.244E-01    0.382E-02
RMM:   2    -0.133500087214E+03   -0.68728E-04   -0.83172E-04  5770   0.580E-02    0.306E-02
RMM:   3    -0.133500070783E+03    0.16430E-04   -0.41883E-05  2708   0.212E-02    0.189E-02
RMM:   4    -0.133500076162E+03   -0.53787E-05   -0.19197E-05  2342   0.209E-02
  83 F= -.13350008E+03 E0= -.13349894E+03  d E =-.961579E-04
quench:  g(F)=  0.000E+00 g(S)=  0.000E+00 dE (1.order)= 0.000E+00
 bond charge predicted
       N       E                     dE             d eps       ncg     rms          rms(c)
DAV:   1    -0.133500131383E+03   -0.60600E-04   -0.89975E-03  5148   0.199E-01    0.265E-02
RMM:   2    -0.133500170587E+03   -0.39204E-04   -0.43424E-04  4546   0.461E-02    0.212E-02
RMM:   3    -0.133500161396E+03    0.91915E-05   -0.28449E-05  2458   0.204E-02
  84 F= -.13350016E+03 E0= -.13349901E+03  d E =-.852338E-04
quench:  g(F)=  0.000E+00 g(S)=  0.000E+00 dE (1.order)= 0.000E+00
 bond charge predicted
       N       E                     dE             d eps       ncg     rms          rms(c)
DAV:   1    -0.133500225738E+03   -0.55150E-04   -0.11206E-02  4311   0.212E-01    0.258E-02
RMM:   2    -0.133500275129E+03   -0.49392E-04   -0.52721E-04  5578   0.512E-02    0.168E-02
RMM:   3    -0.133500269467E+03    0.56627E-05   -0.22238E-05  2451   0.163E-02
  85 F= -.13350027E+03 E0= -.13349912E+03  d E =-.108071E-03
quench:  g(F)=  0.000E+00 g(S)=  0.000E+00 dE (1.order)= 0.000E+00
 bond charge predicted
       N       E                     dE             d eps       ncg     rms          rms(c)
DAV:   1    -0.133500309887E+03   -0.34758E-04   -0.19371E-02  4572   0.273E-01    0.363E-02
RMM:   2    -0.133500393716E+03   -0.83829E-04   -0.87273E-04  5190   0.645E-02    0.336E-02
RMM:   3    -0.133500384940E+03    0.87759E-05   -0.54841E-05  2931   0.230E-02
  86 F= -.13350038E+03 E0= -.13349922E+03  d E =-.115473E-03
quench:  g(F)=  0.000E+00 g(S)=  0.000E+00 dE (1.order)= 0.000E+00
 bond charge predicted
       N       E                     dE             d eps       ncg     rms          rms(c)
DAV:   1    -0.133500401845E+03   -0.81296E-05   -0.15207E-02  5040   0.265E-01    0.369E-02
RMM:   2    -0.133500478205E+03   -0.76359E-04   -0.85859E-04  5635   0.602E-02    0.320E-02
RMM:   3    -0.133500459841E+03    0.18364E-04   -0.43265E-05  2775   0.216E-02    0.219E-02
RMM:   4    -0.133500459843E+03   -0.20009E-08   -0.19952E-05  2356   0.216E-02
  87 F= -.13350046E+03 E0= -.13349931E+03  d E =-.749030E-04
quench:  g(F)=  0.000E+00 g(S)=  0.000E+00 dE (1.order)= 0.000E+00
 bond charge predicted
       N       E                     dE             d eps       ncg     rms          rms(c)
DAV:   1    -0.133500523709E+03   -0.63868E-04   -0.98141E-03  5220   0.222E-01    0.297E-02
RMM:   2    -0.133500593169E+03   -0.69460E-04   -0.48198E-04  4714   0.555E-02    0.391E-02
RMM:   3    -0.133500560630E+03    0.32539E-04   -0.46583E-05  2712   0.232E-02    0.289E-02
RMM:   4    -0.133500552097E+03    0.85330E-05   -0.13664E-05  2268   0.179E-02
  88 F= -.13350055E+03 E0= -.13349940E+03  d E =-.922546E-04
quench:  g(F)=  0.000E+00 g(S)=  0.000E+00 dE (1.order)= 0.000E+00
 bond charge predicted
       N       E                     dE             d eps       ncg     rms          rms(c)
DAV:   1    -0.133500616638E+03   -0.56007E-04   -0.11798E-02  4536   0.220E-01    0.263E-02
RMM:   2    -0.133500669939E+03   -0.53301E-04   -0.54421E-04  5476   0.517E-02    0.238E-02
RMM:   3    -0.133500664748E+03    0.51910E-05   -0.35758E-05  2622   0.209E-02
  89 F= -.13350066E+03 E0= -.13349951E+03  d E =-.112650E-03
quench:  g(F)=  0.000E+00 g(S)=  0.000E+00 dE (1.order)= 0.000E+00
 bond charge predicted
       N       E                     dE             d eps       ncg     rms          rms(c)
DAV:   1    -0.133500698897E+03   -0.28958E-04   -0.20587E-02  4473   0.275E-01    0.364E-02
RMM:   2    -0.133500786878E+03   -0.87981E-04   -0.91631E-04  5291   0.640E-02    0.276E-02
RMM:   3    -0.133500779796E+03    0.70823E-05   -0.48215E-05  2810   0.200E-02
  90 F= -.13350078E+03 E0= -.13349962E+03  d E =-.115048E-03
quench:  g(F)=  0.000E+00 g(S)=  0.000E+00 dE (1.order)= 0.000E+00
 bond charge predicted
       N       E                     dE             d eps       ncg     rms          rms(c)
DAV:   1    -0.133500781412E+03    0.54656E-05   -0.17754E-02  4959   0.288E-01    0.406E-02
RMM:   2    -0.133500867200E+03   -0.85788E-04   -0.97390E-04  5761   0.635E-02    0.350E-02
RMM:   3    -0.133500852336E+03    0.14864E-04   -0.63920E-05  3090   0.274E-02    0.323E-02
RMM:   4    -0.133500845331E+03    0.70047E-05   -0.18494E-05  2348   0.204E-02
  91 F= -.13350085E+03 E0= -.13349969E+03  d E =-.655353E-04
quench:  g(F)=  0.000E+00 g(S)=  0.000E+00 dE (1.order)= 0.000E+00
 bond charge predicted
       N       E                     dE             d eps       ncg     rms          rms(c)
DAV:   1    -0.133500909359E+03   -0.57024E-04   -0.11421E-02  5202   0.231E-01    0.318E-02
RMM:   2    -0.133500980787E+03   -0.71428E-04   -0.54387E-04  4802   0.539E-02    0.390E-02
RMM:   3    -0.133500952055E+03    0.28732E-04   -0.44744E-05  2705   0.219E-02    0.307E-02
RMM:   4    -0.133500941361E+03    0.10695E-04   -0.16041E-05  2302   0.195E-02    0.145E-02
RMM:   5    -0.133500939414E+03    0.19469E-05   -0.11509E-05  2275   0.170E-02
  92 F= -.13350094E+03 E0= -.13349977E+03  d E =-.940828E-04
quench:  g(F)=  0.000E+00 g(S)=  0.000E+00 dE (1.order)= 0.000E+00
 bond charge predicted
       N       E                     dE             d eps       ncg     rms          rms(c)
DAV:   1    -0.133501003484E+03   -0.62124E-04   -0.11686E-02  4167   0.208E-01    0.272E-02
RMM:   2    -0.133501052924E+03   -0.49440E-04   -0.54904E-04  5629   0.543E-02    0.198E-02
RMM:   3    -0.133501045039E+03    0.78849E-05   -0.24718E-05  2488   0.171E-02
  93 F= -.13350105E+03 E0= -.13349988E+03  d E =-.105625E-03
quench:  g(F)=  0.000E+00 g(S)=  0.000E+00 dE (1.order)= 0.000E+00
 bond charge predicted
       N       E                     dE             d eps       ncg     rms          rms(c)
DAV:   1    -0.133501084735E+03   -0.31811E-04   -0.20186E-02  4293   0.262E-01    0.356E-02
RMM:   2    -0.133501187364E+03   -0.10263E-03   -0.88722E-04  5331   0.654E-02    0.402E-02
RMM:   3    -0.133501158438E+03    0.28926E-04   -0.56926E-05  2982   0.244E-02    0.355E-02
RMM:   4    -0.133501142422E+03    0.16017E-04   -0.14913E-05  2284   0.189E-02    0.120E-02
RMM:   5    -0.133501141921E+03    0.50023E-06   -0.54909E-06  2196   0.113E-02
  94 F= -.13350114E+03 E0= -.13349997E+03  d E =-.968821E-04
quench:  g(F)=  0.000E+00 g(S)=  0.000E+00 dE (1.order)= 0.000E+00
 bond charge predicted
       N       E                     dE             d eps       ncg     rms          rms(c)
DAV:   1    -0.133501175778E+03   -0.33356E-04   -0.20462E-02  4194   0.262E-01    0.439E-02
RMM:   2    -0.133501264006E+03   -0.88228E-04   -0.10742E-03  6349   0.674E-02    0.353E-02
RMM:   3    -0.133501239428E+03    0.24578E-04   -0.51946E-05  2832   0.190E-02    0.209E-02
RMM:   4    -0.133501241702E+03   -0.22740E-05   -0.26695E-05  2485   0.248E-02
  95 F= -.13350124E+03 E0= -.13350008E+03  d E =-.997804E-04
quench:  g(F)=  0.000E+00 g(S)=  0.000E+00 dE (1.order)= 0.000E+00
 bond charge predicted
       N       E                     dE             d eps       ncg     rms          rms(c)
DAV:   1    -0.133501303395E+03   -0.63967E-04   -0.13793E-02  4923   0.234E-01    0.351E-02
RMM:   2    -0.133501394296E+03   -0.90901E-04   -0.68715E-04  4881   0.597E-02    0.457E-02
RMM:   3    -0.133501358022E+03    0.36274E-04   -0.56428E-05  2920   0.242E-02    0.338E-02
RMM:   4    -0.133501344073E+03    0.13949E-04   -0.17597E-05  2301   0.202E-02    0.144E-02
RMM:   5    -0.133501342878E+03    0.11952E-05   -0.12945E-05  2296   0.176E-02
  96 F= -.13350134E+03 E0= -.13350017E+03  d E =-.101176E-03
quench:  g(F)=  0.000E+00 g(S)=  0.000E+00 dE (1.order)= 0.000E+00
 bond charge predicted
       N       E                     dE             d eps       ncg     rms          rms(c)
DAV:   1    -0.133501403200E+03   -0.59128E-04   -0.11458E-02  4338   0.208E-01    0.277E-02
RMM:   2    -0.133501451844E+03   -0.48643E-04   -0.54739E-04  5575   0.524E-02    0.219E-02
RMM:   3    -0.133501447176E+03    0.46683E-05   -0.27898E-05  2555   0.174E-02
  97 F= -.13350145E+03 E0= -.13350028E+03  d E =-.104298E-03
quench:  g(F)=  0.000E+00 g(S)=  0.000E+00 dE (1.order)= 0.000E+00
 bond charge predicted
       N       E                     dE             d eps       ncg     rms          rms(c)
DAV:   1    -0.133501479093E+03   -0.27250E-04   -0.18872E-02  4563   0.265E-01    0.344E-02
RMM:   2    -0.133501571628E+03   -0.92535E-04   -0.83535E-04  5166   0.617E-02    0.353E-02
RMM:   3    -0.133501552260E+03    0.19368E-04   -0.53052E-05  2910   0.232E-02    0.368E-02
RMM:   4    -0.133501534899E+03    0.17361E-04   -0.15439E-05  2295   0.194E-02    0.116E-02
RMM:   5    -0.133501534266E+03    0.63325E-06   -0.41620E-06  2188   0.935E-03
  98 F= -.13350153E+03 E0= -.13350036E+03  d E =-.870901E-04
quench:  g(F)=  0.000E+00 g(S)=  0.000E+00 dE (1.order)= 0.000E+00
 bond charge predicted
       N       E                     dE             d eps       ncg     rms          rms(c)
DAV:   1    -0.133501564042E+03   -0.29143E-04   -0.20034E-02  4131   0.257E-01    0.425E-02
RMM:   2    -0.133501648100E+03   -0.84058E-04   -0.10169E-03  6344   0.660E-02    0.340E-02
RMM:   3    -0.133501627246E+03    0.20854E-04   -0.52072E-05  2805   0.190E-02    0.207E-02
RMM:   4    -0.133501628106E+03   -0.86085E-06   -0.25591E-05  2448   0.245E-02
  99 F= -.13350163E+03 E0= -.13350046E+03  d E =-.938407E-04
quench:  g(F)=  0.000E+00 g(S)=  0.000E+00 dE (1.order)= 0.000E+00
 bond charge predicted
       N       E                     dE             d eps       ncg     rms          rms(c)
DAV:   1    -0.133501682341E+03   -0.55095E-04   -0.15227E-02  4788   0.239E-01    0.365E-02
RMM:   2    -0.133501778686E+03   -0.96345E-04   -0.74273E-04  4913   0.617E-02    0.468E-02
RMM:   3    -0.133501742220E+03    0.36466E-04   -0.65397E-05  3001   0.251E-02    0.351E-02
RMM:   4    -0.133501726833E+03    0.15387E-04   -0.18463E-05  2317   0.205E-02    0.148E-02
RMM:   5    -0.133501725564E+03    0.12692E-05   -0.13688E-05  2302   0.181E-02
 100 F= -.13350173E+03 E0= -.13350055E+03  d E =-.974575E-04
quench:  g(F)=  0.000E+00 g(S)=  0.000E+00 dE (1.order)= 0.000E+00
 bond charge predicted
       N       E                     dE             d eps       ncg     rms          rms(c)
DAV:   1    -0.133501778890E+03   -0.52057E-04   -0.12006E-02  4410   0.210E-01    0.290E-02
RMM:   2    -0.133501828870E+03   -0.49980E-04   -0.56921E-04  5593   0.524E-02    0.234E-02
RMM:   3    -0.133501823789E+03    0.50815E-05   -0.29132E-05  2586   0.177E-02
 101 F= -.13350182E+03 E0= -.13350065E+03  d E =-.982246E-04
quench:  g(F)=  0.000E+00 g(S)=  0.000E+00 dE (1.order)= 0.000E+00
 bond charge predicted
       N       E                     dE             d eps       ncg     rms          rms(c)
DAV:   1    -0.133501843347E+03   -0.14477E-04   -0.18769E-02  4635   0.266E-01    0.347E-02
RMM:   2    -0.133501939939E+03   -0.96592E-04   -0.83468E-04  5125   0.618E-02    0.386E-02
RMM:   3    -0.133501914656E+03    0.25283E-04   -0.56311E-05  2959   0.238E-02    0.357E-02
RMM:   4    -0.133501898945E+03    0.15711E-04   -0.15046E-05  2303   0.189E-02    0.116E-02
RMM:   5    -0.133501898111E+03    0.83413E-06   -0.39972E-06  2180   0.926E-03
 102 F= -.13350190E+03 E0= -.13350072E+03  d E =-.743220E-04
quench:  g(F)=  0.000E+00 g(S)=  0.000E+00 dE (1.order)= 0.000E+00
 bond charge predicted
       N       E                     dE             d eps       ncg     rms          rms(c)
DAV:   1    -0.133501922539E+03   -0.23595E-04   -0.19942E-02  4131   0.253E-01    0.417E-02
RMM:   2    -0.133502003950E+03   -0.81410E-04   -0.98303E-04  6346   0.653E-02    0.331E-02
RMM:   3    -0.133501984130E+03    0.19819E-04   -0.49067E-05  2772   0.186E-02    0.199E-02
RMM:   4    -0.133501984175E+03   -0.44602E-07   -0.25340E-05  2421   0.247E-02
 103 F= -.13350198E+03 E0= -.13350081E+03  d E =-.860643E-04
quench:  g(F)=  0.000E+00 g(S)=  0.000E+00 dE (1.order)= 0.000E+00
 bond charge predicted
       N       E                     dE             d eps       ncg     rms          rms(c)
DAV:   1    -0.133502025270E+03   -0.41140E-04   -0.16803E-02  4527   0.241E-01    0.383E-02
RMM:   2    -0.133502124996E+03   -0.99726E-04   -0.82099E-04  4968   0.640E-02    0.477E-02
RMM:   3    -0.133502090958E+03    0.34039E-04   -0.65574E-05  3055   0.254E-02    0.366E-02
RMM:   4    -0.133502073543E+03    0.17414E-04   -0.19905E-05  2349   0.209E-02    0.151E-02
RMM:   5    -0.133502071937E+03    0.16062E-05   -0.14310E-05  2310   0.184E-02
 104 F= -.13350207E+03 E0= -.13350089E+03  d E =-.877623E-04
quench:  g(F)=  0.000E+00 g(S)=  0.000E+00 dE (1.order)= 0.000E+00
 bond charge predicted
       N       E                     dE             d eps       ncg     rms          rms(c)
DAV:   1    -0.133502123599E+03   -0.50056E-04   -0.11799E-02  4545   0.209E-01    0.299E-02
RMM:   2    -0.133502173259E+03   -0.49660E-04   -0.56315E-04  5505   0.510E-02    0.251E-02
RMM:   3    -0.133502168651E+03    0.46082E-05   -0.30638E-05  2593   0.181E-02
 105 F= -.13350217E+03 E0= -.13350099E+03  d E =-.967136E-04
quench:  g(F)=  0.000E+00 g(S)=  0.000E+00 dE (1.order)= 0.000E+00
 bond charge predicted
       N       E                     dE             d eps       ncg     rms          rms(c)
DAV:   1    -0.133502186933E+03   -0.13674E-04   -0.17860E-02  4779   0.267E-01    0.336E-02
RMM:   2    -0.133502278360E+03   -0.91428E-04   -0.80232E-04  5047   0.601E-02    0.363E-02
RMM:   3    -0.133502256788E+03    0.21572E-04   -0.53438E-05  2915   0.231E-02    0.355E-02
RMM:   4    -0.133502241124E+03    0.15664E-04   -0.14576E-05  2282   0.189E-02    0.111E-02
RMM:   5    -0.133502240283E+03    0.84144E-06   -0.35878E-06  2168   0.853E-03
 106 F= -.13350224E+03 E0= -.13350106E+03  d E =-.716322E-04
quench:  g(F)=  0.000E+00 g(S)=  0.000E+00 dE (1.order)= 0.000E+00
 bond charge predicted
       N       E                     dE             d eps       ncg     rms          rms(c)
DAV:   1    -0.133502267033E+03   -0.25909E-04   -0.20954E-02  4095   0.258E-01    0.412E-02
RMM:   2    -0.133502350783E+03   -0.83749E-04   -0.10042E-03  6357   0.676E-02    0.321E-02
RMM:   3    -0.133502332468E+03    0.18315E-04   -0.50650E-05  2781   0.182E-02    0.205E-02
RMM:   4    -0.133502335100E+03   -0.26323E-05   -0.22393E-05  2405   0.227E-02
 107 F= -.13350234E+03 E0= -.13350116E+03  d E =-.948171E-04
quench:  g(F)=  0.000E+00 g(S)=  0.000E+00 dE (1.order)= 0.000E+00
 bond charge predicted
       N       E                     dE             d eps       ncg     rms          rms(c)
DAV:   1    -0.133502360339E+03   -0.27872E-04   -0.20572E-02  4761   0.271E-01    0.409E-02
RMM:   2    -0.133502464210E+03   -0.10387E-03   -0.98762E-04  5096   0.681E-02    0.414E-02
RMM:   3    -0.133502443704E+03    0.20506E-04   -0.77025E-05  3118   0.260E-02    0.404E-02
RMM:   4    -0.133502420721E+03    0.22983E-04   -0.21409E-05  2410   0.217E-02    0.172E-02
RMM:   5    -0.133502418476E+03    0.22449E-05   -0.16062E-05  2325   0.195E-02
 108 F= -.13350242E+03 E0= -.13350123E+03  d E =-.833759E-04
quench:  g(F)=  0.000E+00 g(S)=  0.000E+00 dE (1.order)= 0.000E+00
 bond charge predicted
       N       E                     dE             d eps       ncg     rms          rms(c)
DAV:   1    -0.133502473877E+03   -0.53157E-04   -0.11704E-02  4662   0.207E-01    0.319E-02
RMM:   2    -0.133502522496E+03   -0.48619E-04   -0.57693E-04  5465   0.500E-02    0.268E-02
RMM:   3    -0.133502515847E+03    0.66491E-05   -0.31330E-05  2598   0.179E-02
 109 F= -.13350252E+03 E0= -.13350133E+03  d E =-.973712E-04
quench:  g(F)=  0.000E+00 g(S)=  0.000E+00 dE (1.order)= 0.000E+00
 bond charge predicted
       N       E                     dE             d eps       ncg     rms          rms(c)
DAV:   1    -0.133502540075E+03   -0.17579E-04   -0.15886E-02  4905   0.259E-01    0.320E-02
RMM:   2    -0.133502640943E+03   -0.10087E-03   -0.70882E-04  4915   0.587E-02    0.468E-02
RMM:   3    -0.133502597325E+03    0.43618E-04   -0.54228E-05  2941   0.235E-02    0.279E-02
RMM:   4    -0.133502589329E+03    0.79958E-05   -0.11623E-05  2235   0.165E-02
 110 F= -.13350259E+03 E0= -.13350140E+03  d E =-.734824E-04
quench:  g(F)=  0.000E+00 g(S)=  0.000E+00 dE (1.order)= 0.000E+00
 bond charge predicted
       N       E                     dE             d eps       ncg     rms          rms(c)
DAV:   1    -0.133502610087E+03   -0.12762E-04   -0.22758E-02  4032   0.265E-01    0.398E-02
RMM:   2    -0.133502692806E+03   -0.82719E-04   -0.96618E-04  6200   0.694E-02    0.294E-02
RMM:   3    -0.133502683055E+03    0.97507E-05   -0.47096E-05  2772   0.200E-02
 111 F= -.13350268E+03 E0= -.13350149E+03  d E =-.937260E-04
quench:  g(F)=  0.000E+00 g(S)=  0.000E+00 dE (1.order)= 0.000E+00
 bond charge predicted
       N       E                     dE             d eps       ncg     rms          rms(c)
DAV:   1    -0.133502662586E+03    0.30220E-04   -0.26823E-02  4725   0.318E-01    0.467E-02
RMM:   2    -0.133502848329E+03   -0.18574E-03   -0.12779E-03  5141   0.772E-02    0.709E-02
RMM:   3    -0.133502756425E+03    0.91904E-04   -0.11631E-04  3933   0.329E-02    0.388E-02
RMM:   4    -0.133502739423E+03    0.17002E-04   -0.19374E-05  2435   0.158E-02    0.153E-02
RMM:   5    -0.133502735202E+03    0.42210E-05   -0.67358E-06  2281   0.120E-02
 112 F= -.13350274E+03 E0= -.13350154E+03  d E =-.521467E-04
quench:  g(F)=  0.000E+00 g(S)=  0.000E+00 dE (1.order)= 0.000E+00
 bond charge predicted
       N       E                     dE             d eps       ncg     rms          rms(c)
DAV:   1    -0.133502801277E+03   -0.61854E-04   -0.11307E-02  4356   0.188E-01    0.351E-02
RMM:   2    -0.133502848361E+03   -0.47084E-04   -0.60460E-04  5605   0.493E-02    0.289E-02
RMM:   3    -0.133502834140E+03    0.14221E-04   -0.31511E-05  2560   0.164E-02    0.167E-02
RMM:   4    -0.133502837486E+03   -0.33461E-05   -0.17413E-05  2352   0.198E-02
 113 F= -.13350284E+03 E0= -.13350165E+03  d E =-.102284E-03
quench:  g(F)=  0.000E+00 g(S)=  0.000E+00 dE (1.order)= 0.000E+00
 bond charge predicted
       N       E                     dE             d eps       ncg     rms          rms(c)
DAV:   1    -0.133502866626E+03   -0.32486E-04   -0.13175E-02  4878   0.229E-01    0.274E-02
RMM:   2    -0.133502935493E+03   -0.68868E-04   -0.57192E-04  4746   0.572E-02    0.310E-02
RMM:   3    -0.133502918818E+03    0.16675E-04   -0.39154E-05  2690   0.212E-02    0.276E-02
RMM:   4    -0.133502909427E+03    0.93910E-05   -0.11959E-05  2204   0.177E-02
 114 F= -.13350291E+03 E0= -.13350171E+03  d E =-.719416E-04
quench:  g(F)=  0.000E+00 g(S)=  0.000E+00 dE (1.order)= 0.000E+00
 bond charge predicted
       N       E                     dE             d eps       ncg     rms          rms(c)
DAV:   1    -0.133502930975E+03   -0.12156E-04   -0.24750E-02  4122   0.287E-01    0.383E-02
RMM:   2    -0.133503023343E+03   -0.92368E-04   -0.10087E-03  6290   0.709E-02    0.289E-02
RMM:   3    -0.133503015992E+03    0.73506E-05   -0.59313E-05  2904   0.238E-02
 115 F= -.13350302E+03 E0= -.13350182E+03  d E =-.106565E-03
quench:  g(F)=  0.000E+00 g(S)=  0.000E+00 dE (1.order)= 0.000E+00
 bond charge predicted
       N       E                     dE             d eps       ncg     rms          rms(c)
DAV:   1    -0.133502936236E+03    0.87107E-04   -0.39424E-02  4563   0.365E-01    0.530E-02
RMM:   2    -0.133503125287E+03   -0.18905E-03   -0.17831E-03  5606   0.865E-02    0.512E-02
RMM:   3    -0.133503090972E+03    0.34314E-04   -0.12729E-04  4094   0.319E-02    0.562E-02
RMM:   4    -0.133503046681E+03    0.44291E-04   -0.29288E-05  2568   0.212E-02    0.192E-02
RMM:   5    -0.133503043925E+03    0.27560E-05   -0.14130E-05  2325   0.177E-02
 116 F= -.13350304E+03 E0= -.13350184E+03  d E =-.279328E-04
quench:  g(F)=  0.000E+00 g(S)=  0.000E+00 dE (1.order)= 0.000E+00
 bond charge predicted
       N       E                     dE             d eps       ncg     rms          rms(c)
DAV:   1    -0.133503123491E+03   -0.76810E-04   -0.16052E-02  4815   0.245E-01    0.447E-02
RMM:   2    -0.133503196401E+03   -0.72910E-04   -0.91743E-04  5723   0.609E-02    0.400E-02
RMM:   3    -0.133503171875E+03    0.24526E-04   -0.63153E-05  3030   0.267E-02    0.249E-02
RMM:   4    -0.133503172197E+03   -0.32274E-06   -0.27921E-05  2470   0.256E-02
 117 F= -.13350317E+03 E0= -.13350198E+03  d E =-.128272E-03
quench:  g(F)=  0.000E+00 g(S)=  0.000E+00 dE (1.order)= 0.000E+00
 bond charge predicted
       N       E                     dE             d eps       ncg     rms          rms(c)
DAV:   1    -0.133503209027E+03   -0.37153E-04   -0.10492E-02  5247   0.232E-01    0.282E-02
RMM:   2    -0.133503313607E+03   -0.10458E-03   -0.50222E-04  4633   0.582E-02    0.548E-02
RMM:   3    -0.133503243565E+03    0.70042E-04   -0.51550E-05  2866   0.236E-02    0.228E-02
RMM:   4    -0.133503240884E+03    0.26811E-05   -0.14679E-05  2269   0.189E-02
 118 F= -.13350324E+03 E0= -.13350204E+03  d E =-.686870E-04
quench:  g(F)=  0.000E+00 g(S)=  0.000E+00 dE (1.order)= 0.000E+00
 bond charge predicted
       N       E                     dE             d eps       ncg     rms          rms(c)
DAV:   1    -0.133503274775E+03   -0.31210E-04   -0.21674E-02  4176   0.270E-01    0.342E-02
RMM:   2    -0.133503357181E+03   -0.82406E-04   -0.87003E-04  6030   0.671E-02    0.261E-02
RMM:   3    -0.133503356673E+03    0.50770E-06   -0.53328E-05  2814   0.230E-02
 119 F= -.13350336E+03 E0= -.13350215E+03  d E =-.115789E-03
quench:  g(F)=  0.000E+00 g(S)=  0.000E+00 dE (1.order)= 0.000E+00
 bond charge predicted
       N       E                     dE             d eps       ncg     rms          rms(c)
DAV:   1    -0.133503288116E+03    0.69065E-04   -0.42067E-02  4554   0.384E-01    0.523E-02
RMM:   2    -0.133503455894E+03   -0.16778E-03   -0.18311E-03  5525   0.889E-02    0.341E-02
RMM:   3    -0.133503446307E+03    0.95874E-05   -0.95043E-05  3294   0.258E-02
 120 F= -.13350345E+03 E0= -.13350225E+03  d E =-.896334E-04
quench:  g(F)=  0.000E+00 g(S)=  0.000E+00 dE (1.order)= 0.000E+00
 bond charge predicted
       N       E                     dE             d eps       ncg     rms          rms(c)
DAV:   1    -0.133503380610E+03    0.75285E-04   -0.28310E-02  5067   0.365E-01    0.530E-02
RMM:   2    -0.133503523017E+03   -0.14241E-03   -0.14864E-03  5968   0.774E-02    0.516E-02
RMM:   3    -0.133503509723E+03    0.13295E-04   -0.12151E-04  3897   0.317E-02    0.545E-02
RMM:   4    -0.133503471313E+03    0.38410E-04   -0.31289E-05  2554   0.235E-02    0.187E-02
RMM:   5    -0.133503468694E+03    0.26185E-05   -0.11027E-05  2305   0.162E-02
 121 F= -.13350347E+03 E0= -.13350227E+03  d E =-.223873E-04
quench:  g(F)=  0.000E+00 g(S)=  0.000E+00 dE (1.order)= 0.000E+00
 bond charge predicted
       N       E                     dE             d eps       ncg     rms          rms(c)
DAV:   1    -0.133503535508E+03   -0.64195E-04   -0.20069E-02  4860   0.273E-01    0.430E-02
[...]
 bond charge predicted
       N       E                     dE             d eps       ncg     rms          rms(c)
DAV:   1    -0.133513699450E+03    0.16184E-03   -0.53638E-02  4185   0.396E-01    0.621E-02
RMM:   2    -0.133513929530E+03   -0.23008E-03   -0.26090E-03  5901   0.103E-01    0.473E-02
RMM:   3    -0.133513880384E+03    0.49146E-04   -0.15557E-04  3713   0.349E-02    0.340E-02
RMM:   4    -0.133513887775E+03   -0.73916E-05   -0.42282E-05  2842   0.288E-02
 280 F= -.13351389E+03 E0= -.13351272E+03  d E =-.303643E-04
quench:  g(F)=  0.000E+00 g(S)=  0.000E+00 dE (1.order)= 0.000E+00
 bond charge predicted
       N       E                     dE             d eps       ncg     rms          rms(c)
DAV:   1    -0.133513922178E+03   -0.41795E-04   -0.20277E-02  4950   0.293E-01    0.480E-02
RMM:   2    -0.133514034916E+03   -0.11274E-03   -0.12528E-03  5236   0.724E-02    0.447E-02
RMM:   3    -0.133514001776E+03    0.33140E-04   -0.82473E-05  3430   0.296E-02    0.324E-02
RMM:   4    -0.133513994481E+03    0.72947E-05   -0.19798E-05  2430   0.192E-02
 281 F= -.13351399E+03 E0= -.13351283E+03  d E =-.106706E-03
quench:  g(F)=  0.000E+00 g(S)=  0.000E+00 dE (1.order)= 0.000E+00
 bond charge predicted
       N       E                     dE             d eps       ncg     rms          rms(c)
DAV:   1    -0.133513994558E+03    0.72181E-05   -0.16096E-02  4626   0.256E-01    0.328E-02
RMM:   2    -0.133514087588E+03   -0.93030E-04   -0.76023E-04  4758   0.682E-02    0.467E-02
RMM:   3    -0.133514058440E+03    0.29148E-04   -0.79320E-05  3313   0.307E-02    0.275E-02
RMM:   4    -0.133514051041E+03    0.73986E-05   -0.11316E-05  2235   0.155E-02
 282 F= -.13351405E+03 E0= -.13351289E+03  d E =-.565602E-04
quench:  g(F)=  0.000E+00 g(S)=  0.000E+00 dE (1.order)= 0.000E+00
 bond charge predicted
       N       E                     dE             d eps       ncg     rms          rms(c)
DAV:   1    -0.133514023358E+03    0.35082E-04   -0.32737E-02  4131   0.314E-01    0.422E-02
RMM:   2    -0.133514146736E+03   -0.12338E-03   -0.13161E-03  5386   0.760E-02    0.285E-02
RMM:   3    -0.133514145635E+03    0.11004E-05   -0.67276E-05  2976   0.210E-02
 283 F= -.13351415E+03 E0= -.13351299E+03  d E =-.945940E-04
quench:  g(F)=  0.000E+00 g(S)=  0.000E+00 dE (1.order)= 0.000E+00
 bond charge predicted
       N       E                     dE             d eps       ncg     rms          rms(c)
DAV:   1    -0.133513916265E+03    0.23047E-03   -0.64380E-02  4383   0.468E-01    0.637E-02
RMM:   2    -0.133514190438E+03   -0.27417E-03   -0.30076E-03  5665   0.112E-01    0.415E-02
RMM:   3    -0.133514133044E+03    0.57394E-04   -0.14914E-04  3387   0.297E-02    0.262E-02
RMM:   4    -0.133514138063E+03   -0.50185E-05   -0.32012E-05  2485   0.259E-02
 284 F= -.13351414E+03 E0= -.13351298E+03  d E =0.757271E-05
quench:  g(F)=  0.000E+00 g(S)=  0.000E+00 dE (1.order)= 0.000E+00
 bond charge predicted
       N       E                     dE             d eps       ncg     rms          rms(c)
DAV:   1    -0.133514132698E+03    0.34603E-06   -0.28954E-02  4977   0.352E-01    0.618E-02
RMM:   2    -0.133514336165E+03   -0.20347E-03   -0.18748E-03  5438   0.854E-02    0.764E-02
RMM:   3    -0.133514267038E+03    0.69127E-04   -0.17081E-04  4254   0.382E-02    0.602E-02
RMM:   4    -0.133514216123E+03    0.50915E-04   -0.33556E-05  2615   0.217E-02    0.216E-02
RMM:   5    -0.133514209472E+03    0.66509E-05   -0.25800E-05  2387   0.217E-02
 285 F= -.13351421E+03 E0= -.13351306E+03  d E =-.714091E-04
quench:  g(F)=  0.000E+00 g(S)=  0.000E+00 dE (1.order)= 0.000E+00
 bond charge predicted
       N       E                     dE             d eps       ncg     rms          rms(c)
DAV:   1    -0.133514239713E+03   -0.23590E-04   -0.20457E-02  4563   0.267E-01    0.396E-02
RMM:   2    -0.133514333587E+03   -0.93875E-04   -0.10490E-03  5428   0.651E-02    0.302E-02
RMM:   3    -0.133514316467E+03    0.17120E-04   -0.49592E-05  2796   0.176E-02    0.238E-02
RMM:   4    -0.133514317261E+03   -0.79392E-06   -0.16583E-05  2383   0.180E-02
 286 F= -.13351432E+03 E0= -.13351316E+03  d E =-.107790E-03
quench:  g(F)=  0.000E+00 g(S)=  0.000E+00 dE (1.order)= 0.000E+00
 bond charge predicted
       N       E                     dE             d eps       ncg     rms          rms(c)
DAV:   1    -0.133514301477E+03    0.14990E-04   -0.24033E-02  4581   0.292E-01    0.369E-02
RMM:   2    -0.133514399178E+03   -0.97701E-04   -0.10745E-03  5188   0.688E-02    0.254E-02
RMM:   3    -0.133514378792E+03    0.20386E-04   -0.47040E-05  2764   0.202E-02    0.193E-02
RMM:   4    -0.133514381311E+03   -0.25195E-05   -0.18810E-05  2307   0.224E-02
 287 F= -.13351438E+03 E0= -.13351323E+03  d E =-.640501E-04
quench:  g(F)=  0.000E+00 g(S)=  0.000E+00 dE (1.order)= 0.000E+00
 bond charge predicted
       N       E                     dE             d eps       ncg     rms          rms(c)
DAV:   1    -0.133514273525E+03    0.10527E-03   -0.47179E-02  4167   0.375E-01    0.541E-02
RMM:   2    -0.133514486510E+03   -0.21298E-03   -0.21330E-03  5606   0.971E-02    0.517E-02
RMM:   3    -0.133514458191E+03    0.28319E-04   -0.15086E-04  3818   0.301E-02    0.543E-02
RMM:   4    -0.133514419255E+03    0.38936E-04   -0.35222E-05  2599   0.261E-02    0.216E-02
RMM:   5    -0.133514415596E+03    0.36591E-05   -0.20472E-05  2365   0.228E-02
 288 F= -.13351442E+03 E0= -.13351327E+03  d E =-.342845E-04
quench:  g(F)=  0.000E+00 g(S)=  0.000E+00 dE (1.order)= 0.000E+00
 bond charge predicted
       N       E                     dE             d eps       ncg     rms          rms(c)
DAV:   1    -0.133514393629E+03    0.25626E-04   -0.30007E-02  4536   0.302E-01    0.571E-02
RMM:   2    -0.133514539384E+03   -0.14575E-03   -0.17624E-03  5786   0.767E-02    0.519E-02
RMM:   3    -0.133514503975E+03    0.35409E-04   -0.10394E-04  3508   0.289E-02    0.451E-02
RMM:   4    -0.133514481912E+03    0.22063E-04   -0.33880E-05  2558   0.260E-02    0.289E-02
RMM:   5    -0.133514467087E+03    0.14825E-04   -0.17525E-05  2394   0.157E-02    0.115E-02
RMM:   6    -0.133514465092E+03    0.19943E-05   -0.16250E-05  2270   0.207E-02
 289 F= -.13351447E+03 E0= -.13351332E+03  d E =-.494965E-04
quench:  g(F)=  0.000E+00 g(S)=  0.000E+00 dE (1.order)= 0.000E+00
 bond charge predicted
       N       E                     dE             d eps       ncg     rms          rms(c)
DAV:   1    -0.133514501975E+03   -0.34889E-04   -0.23498E-02  4158   0.253E-01    0.446E-02
RMM:   2    -0.133514604002E+03   -0.10203E-03   -0.11882E-03  5761   0.693E-02    0.344E-02
RMM:   3    -0.133514582677E+03    0.21325E-04   -0.61323E-05  2836   0.187E-02    0.258E-02
RMM:   4    -0.133514586980E+03   -0.43031E-05   -0.23322E-05  2440   0.216E-02
 290 F= -.13351459E+03 E0= -.13351344E+03  d E =-.121888E-03
quench:  g(F)=  0.000E+00 g(S)=  0.000E+00 dE (1.order)= 0.000E+00
 bond charge predicted
       N       E                     dE             d eps       ncg     rms          rms(c)
DAV:   1    -0.133514572667E+03    0.10010E-04   -0.19377E-02  4833   0.274E-01    0.346E-02
RMM:   2    -0.133514656151E+03   -0.83484E-04   -0.92135E-04  5057   0.620E-02    0.249E-02
RMM:   3    -0.133514636120E+03    0.20031E-04   -0.39145E-05  2689   0.176E-02    0.171E-02
RMM:   4    -0.133514637119E+03   -0.99903E-06   -0.17541E-05  2293   0.217E-02
 291 F= -.13351464E+03 E0= -.13351350E+03  d E =-.501387E-04
quench:  g(F)=  0.000E+00 g(S)=  0.000E+00 dE (1.order)= 0.000E+00
 bond charge predicted
       N       E                     dE             d eps       ncg     rms          rms(c)
DAV:   1    -0.133514572893E+03    0.63227E-04   -0.36250E-02  4248   0.342E-01    0.483E-02
RMM:   2    -0.133514775048E+03   -0.20215E-03   -0.17095E-03  5364   0.892E-02    0.652E-02
RMM:   3    -0.133514707630E+03    0.67417E-04   -0.14023E-04  3835   0.334E-02    0.420E-02
RMM:   4    -0.133514685880E+03    0.21750E-04   -0.23792E-05  2418   0.221E-02    0.175E-02
RMM:   5    -0.133514683878E+03    0.20021E-05   -0.15053E-05  2316   0.198E-02
 292 F= -.13351468E+03 E0= -.13351354E+03  d E =-.467594E-04
quench:  g(F)=  0.000E+00 g(S)=  0.000E+00 dE (1.order)= 0.000E+00
 bond charge predicted
       N       E                     dE             d eps       ncg     rms          rms(c)
DAV:   1    -0.133514653753E+03    0.32128E-04   -0.29270E-02  4662   0.308E-01    0.532E-02
RMM:   2    -0.133514795001E+03   -0.14125E-03   -0.16634E-03  5708   0.757E-02    0.473E-02
RMM:   3    -0.133514764701E+03    0.30301E-04   -0.92887E-05  3311   0.255E-02    0.444E-02
RMM:   4    -0.133514739389E+03    0.25311E-04   -0.31458E-05  2524   0.253E-02    0.260E-02
RMM:   5    -0.133514728786E+03    0.10604E-04   -0.15665E-05  2336   0.168E-02    0.121E-02
RMM:   6    -0.133514726825E+03    0.19610E-05   -0.17369E-05  2323   0.214E-02
 293 F= -.13351473E+03 E0= -.13351359E+03  d E =-.429464E-04
quench:  g(F)=  0.000E+00 g(S)=  0.000E+00 dE (1.order)= 0.000E+00
 bond charge predicted
       N       E                     dE             d eps       ncg     rms          rms(c)
DAV:   1    -0.133514750828E+03   -0.22042E-04   -0.25326E-02  4149   0.267E-01    0.465E-02
RMM:   2    -0.133514863547E+03   -0.11272E-03   -0.13120E-03  5734   0.734E-02    0.373E-02
RMM:   3    -0.133514842201E+03    0.21346E-04   -0.67061E-05  2928   0.220E-02    0.326E-02
RMM:   4    -0.133514837264E+03    0.49370E-05   -0.25654E-05  2454   0.230E-02
 294 F= -.13351484E+03 E0= -.13351369E+03  d E =-.110440E-03
quench:  g(F)=  0.000E+00 g(S)=  0.000E+00 dE (1.order)= 0.000E+00
 bond charge predicted
       N       E                     dE             d eps       ncg     rms          rms(c)
DAV:   1    -0.133514835487E+03    0.67143E-05   -0.17133E-02  4860   0.257E-01    0.344E-02
RMM:   2    -0.133514912115E+03   -0.76628E-04   -0.83904E-04  5061   0.599E-02    0.268E-02
RMM:   3    -0.133514893071E+03    0.19044E-04   -0.42549E-05  2684   0.211E-02    0.201E-02
RMM:   4    -0.133514892600E+03    0.47113E-06   -0.16640E-05  2305   0.211E-02
 295 F= -.13351489E+03 E0= -.13351376E+03  d E =-.553352E-04
quench:  g(F)=  0.000E+00 g(S)=  0.000E+00 dE (1.order)= 0.000E+00
 bond charge predicted
       N       E                     dE             d eps       ncg     rms          rms(c)
DAV:   1    -0.133514854457E+03    0.38613E-04   -0.29942E-02  4212   0.303E-01    0.437E-02
RMM:   2    -0.133515005826E+03   -0.15137E-03   -0.13736E-03  5326   0.806E-02    0.538E-02
RMM:   3    -0.133514966545E+03    0.39281E-04   -0.10544E-04  3544   0.310E-02    0.397E-02
RMM:   4    -0.133514948165E+03    0.18380E-04   -0.20797E-05  2369   0.217E-02    0.168E-02
RMM:   5    -0.133514946588E+03    0.15769E-05   -0.13998E-05  2288   0.196E-02
 296 F= -.13351495E+03 E0= -.13351381E+03  d E =-.539880E-04
quench:  g(F)=  0.000E+00 g(S)=  0.000E+00 dE (1.order)= 0.000E+00
 bond charge predicted
       N       E                     dE             d eps       ncg     rms          rms(c)
DAV:   1    -0.133514912671E+03    0.35494E-04   -0.29439E-02  4491   0.306E-01    0.504E-02
RMM:   2    -0.133515043746E+03   -0.13107E-03   -0.15631E-03  5637   0.760E-02    0.423E-02
RMM:   3    -0.133515016568E+03    0.27177E-04   -0.86448E-05  3127   0.232E-02    0.395E-02
RMM:   4    -0.133514999083E+03    0.17485E-04   -0.27880E-05  2469   0.244E-02    0.253E-02
RMM:   5    -0.133514988752E+03    0.10331E-04   -0.12750E-05  2313   0.160E-02    0.113E-02
RMM:   6    -0.133514987344E+03    0.14080E-05   -0.15462E-05  2261   0.202E-02
 297 F= -.13351499E+03 E0= -.13351386E+03  d E =-.407567E-04
quench:  g(F)=  0.000E+00 g(S)=  0.000E+00 dE (1.order)= 0.000E+00
 bond charge predicted
       N       E                     dE             d eps       ncg     rms          rms(c)
DAV:   1    -0.133514986326E+03    0.24266E-05   -0.30113E-02  4095   0.287E-01    0.504E-02
RMM:   2    -0.133515118104E+03   -0.13178E-03   -0.15323E-03  5835   0.798E-02    0.405E-02
RMM:   3    -0.133515096059E+03    0.22045E-04   -0.84219E-05  3066   0.249E-02    0.373E-02
RMM:   4    -0.133515085900E+03    0.10159E-04   -0.29317E-05  2513   0.246E-02    0.286E-02
RMM:   5    -0.133515071623E+03    0.14277E-04   -0.10097E-05  2341   0.148E-02    0.841E-03
RMM:   6    -0.133515072119E+03   -0.49553E-06   -0.10015E-05  2236   0.146E-02
 298 F= -.13351507E+03 E0= -.13351394E+03  d E =-.847746E-04
quench:  g(F)=  0.000E+00 g(S)=  0.000E+00 dE (1.order)= 0.000E+00
 bond charge predicted
       N       E                     dE             d eps       ncg     rms          rms(c)
DAV:   1    -0.133515111664E+03   -0.40041E-04   -0.12409E-02  4428   0.193E-01    0.349E-02
RMM:   2    -0.133515170107E+03   -0.58443E-04   -0.71757E-04  5054   0.505E-02    0.293E-02
RMM:   3    -0.133515152764E+03    0.17344E-04   -0.34754E-05  2591   0.178E-02    0.196E-02
RMM:   4    -0.133515156586E+03   -0.38218E-05   -0.16853E-05  2331   0.198E-02
 299 F= -.13351516E+03 E0= -.13351403E+03  d E =-.844667E-04
quench:  g(F)=  0.000E+00 g(S)=  0.000E+00 dE (1.order)= 0.000E+00
 bond charge predicted
       N       E                     dE             d eps       ncg     rms          rms(c)
DAV:   1    -0.133515145473E+03    0.72905E-05   -0.19109E-02  4356   0.252E-01    0.322E-02
RMM:   2    -0.133515228836E+03   -0.83362E-04   -0.87805E-04  5175   0.639E-02    0.216E-02
RMM:   3    -0.133515215961E+03    0.12875E-04   -0.44535E-05  2657   0.240E-02    0.194E-02
RMM:   4    -0.133515214905E+03    0.10552E-05   -0.14346E-05  2273   0.194E-02
 300 F= -.13351521E+03 E0= -.13351408E+03  d E =-.583198E-04
quench:  g(F)=  0.000E+00 g(S)=  0.000E+00 dE (1.order)= 0.000E+00
 bond charge predicted
       N       E                     dE             d eps       ncg     rms          rms(c)
DAV:   1    -0.133515175398E+03    0.40562E-04   -0.31240E-02  4032   0.292E-01    0.450E-02
RMM:   2    -0.133515292615E+03   -0.11722E-03   -0.13651E-03  5454   0.782E-02    0.328E-02
RMM:   3    -0.133515267292E+03    0.25322E-04   -0.65406E-05  2928   0.256E-02    0.238E-02
RMM:   4    -0.133515271636E+03   -0.43442E-05   -0.27413E-05  2464   0.261E-02
 301 F= -.13351527E+03 E0= -.13351415E+03  d E =-.567308E-04
quench:  g(F)=  0.000E+00 g(S)=  0.000E+00 dE (1.order)= 0.000E+00
 bond charge predicted
       N       E                     dE             d eps       ncg     rms          rms(c)
DAV:   1    -0.133515141554E+03    0.12574E-03   -0.45876E-02  4293   0.373E-01    0.584E-02
RMM:   2    -0.133515344851E+03   -0.20330E-03   -0.22738E-03  5780   0.983E-02    0.447E-02
RMM:   3    -0.133515296876E+03    0.47975E-04   -0.12617E-04  3578   0.326E-02    0.304E-02
RMM:   4    -0.133515293632E+03    0.32439E-05   -0.30284E-05  2563   0.232E-02
 302 F= -.13351529E+03 E0= -.13351416E+03  d E =-.219956E-04
quench:  g(F)=  0.000E+00 g(S)=  0.000E+00 dE (1.order)= 0.000E+00
 bond charge predicted
       N       E                     dE             d eps       ncg     rms          rms(c)
DAV:   1    -0.133515361198E+03   -0.64322E-04   -0.17473E-02  5076   0.282E-01    0.478E-02
RMM:   2    -0.133515598719E+03   -0.23752E-03   -0.11432E-03  4843   0.792E-02    0.995E-02
RMM:   3    -0.133515414288E+03    0.18443E-03   -0.13869E-04  4114   0.410E-02    0.353E-02
RMM:   4    -0.133515402673E+03    0.11615E-04   -0.21779E-05  2484   0.144E-02    0.161E-02
RMM:   5    -0.133515402272E+03    0.40047E-06   -0.17149E-05  2345   0.204E-02
 303 F= -.13351540E+03 E0= -.13351428E+03  d E =-.108640E-03
quench:  g(F)=  0.000E+00 g(S)=  0.000E+00 dE (1.order)= 0.000E+00
 bond charge predicted
       N       E                     dE             d eps       ncg     rms          rms(c)
DAV:   1    -0.133515416058E+03   -0.13385E-04   -0.14578E-02  4428   0.223E-01    0.286E-02
RMM:   2    -0.133515478687E+03   -0.62630E-04   -0.66753E-04  4981   0.539E-02    0.188E-02
RMM:   3    -0.133515472584E+03    0.61036E-05   -0.33954E-05  2560   0.167E-02
 304 F= -.13351547E+03 E0= -.13351435E+03  d E =-.703114E-04
quench:  g(F)=  0.000E+00 g(S)=  0.000E+00 dE (1.order)= 0.000E+00
 bond charge predicted
       N       E                     dE             d eps       ncg     rms          rms(c)
DAV:   1    -0.133515442960E+03    0.35727E-04   -0.28946E-02  4419   0.310E-01    0.413E-02
RMM:   2    -0.133515569034E+03   -0.12607E-03   -0.12041E-03  5225   0.742E-02    0.405E-02
RMM:   3    -0.133515555637E+03    0.13397E-04   -0.87711E-05  3337   0.273E-02    0.447E-02
RMM:   4    -0.133515528704E+03    0.26933E-04   -0.19912E-05  2359   0.217E-02    0.138E-02
RMM:   5    -0.133515527966E+03    0.73791E-06   -0.74288E-06  2217   0.133E-02
 305 F= -.13351553E+03 E0= -.13351441E+03  d E =-.553827E-04
quench:  g(F)=  0.000E+00 g(S)=  0.000E+00 dE (1.order)= 0.000E+00
 bond charge predicted
       N       E                     dE             d eps       ncg     rms          rms(c)
DAV:   1    -0.133515391147E+03    0.13756E-03   -0.54416E-02  4032   0.399E-01    0.583E-02
RMM:   2    -0.133515618687E+03   -0.22754E-03   -0.24889E-03  6036   0.102E-01    0.432E-02
RMM:   3    -0.133515600278E+03    0.18409E-04   -0.14809E-04  3519   0.277E-02    0.512E-02
RMM:   4    -0.133515563430E+03    0.36848E-04   -0.37426E-05  2652   0.263E-02    0.264E-02
RMM:   5    -0.133515553176E+03    0.10253E-04   -0.12921E-05  2315   0.173E-02    0.132E-02
RMM:   6    -0.133515551448E+03    0.17284E-05   -0.17859E-05  2345   0.212E-02
 306 F= -.13351555E+03 E0= -.13351443E+03  d E =-.234816E-04
quench:  g(F)=  0.000E+00 g(S)=  0.000E+00 dE (1.order)= 0.000E+00
 bond charge predicted
       N       E                     dE             d eps       ncg     rms          rms(c)
DAV:   1    -0.133515624930E+03   -0.71754E-04   -0.20088E-02  4221   0.229E-01    0.509E-02
RMM:   2    -0.133515723570E+03   -0.98640E-04   -0.12536E-03  5589   0.639E-02    0.445E-02
RMM:   3    -0.133515696329E+03    0.27241E-04   -0.69209E-05  3008   0.230E-02    0.351E-02
RMM:   4    -0.133515689710E+03    0.66196E-05   -0.30252E-05  2538   0.251E-02
 307 F= -.13351569E+03 E0= -.13351457E+03  d E =-.138262E-03
quench:  g(F)=  0.000E+00 g(S)=  0.000E+00 dE (1.order)= 0.000E+00
 bond charge predicted
       N       E                     dE             d eps       ncg     rms          rms(c)
DAV:   1    -0.133515697193E+03   -0.86345E-06   -0.11679E-02  4869   0.215E-01    0.260E-02
RMM:   2    -0.133515753192E+03   -0.55999E-04   -0.56995E-04  4789   0.511E-02    0.210E-02
RMM:   3    -0.133515745564E+03    0.76272E-05   -0.39175E-05  2539   0.222E-02
 308 F= -.13351575E+03 E0= -.13351463E+03  d E =-.558546E-04
quench:  g(F)=  0.000E+00 g(S)=  0.000E+00 dE (1.order)= 0.000E+00
 bond charge predicted
       N       E                     dE             d eps       ncg     rms          rms(c)
DAV:   1    -0.133515737432E+03    0.15759E-04   -0.25125E-02  4248   0.279E-01    0.370E-02
RMM:   2    -0.133515848558E+03   -0.11113E-03   -0.96284E-04  5090   0.679E-02    0.399E-02
RMM:   3    -0.133515825753E+03    0.22805E-04   -0.67677E-05  3024   0.232E-02    0.368E-02
RMM:   4    -0.133515809261E+03    0.16491E-04   -0.20594E-05  2301   0.232E-02    0.134E-02
RMM:   5    -0.133515809980E+03   -0.71830E-06   -0.11358E-05  2221   0.164E-02
 309 F= -.13351581E+03 E0= -.13351469E+03  d E =-.644153E-04
quench:  g(F)=  0.000E+00 g(S)=  0.000E+00 dE (1.order)= 0.000E+00
 bond charge predicted
       N       E                     dE             d eps       ncg     rms          rms(c)
DAV:   1    -0.133515711053E+03    0.98208E-04   -0.56050E-02  4095   0.400E-01    0.538E-02
RMM:   2    -0.133515927155E+03   -0.21610E-03   -0.23248E-03  5668   0.104E-01    0.342E-02
RMM:   3    -0.133515901773E+03    0.25382E-04   -0.11727E-04  3150   0.234E-02    0.357E-02
RMM:   4    -0.133515891175E+03    0.10598E-04   -0.25846E-05  2469   0.220E-02    0.272E-02
RMM:   5    -0.133515880352E+03    0.10823E-04   -0.13467E-05  2295   0.185E-02    0.131E-02
