 vasp.5.4.4.18Apr17-6-g9f103f2a35 (build Feb 06 2024 13:54:16) complex          
  
 POSCAR found type information on POSCAR  Pd N  O 
 05/POSCAR found :  3 types and      40 ions
 scaLAPACK will be used

 ----------------------------------------------------------------------------- 
|                                                                             |
|  ADVICE TO THIS USER RUNNING 'VASP/VAMP'   (HEAR YOUR MASTER'S VOICE ...):  |
|                                                                             |
|      You enforced a specific xc-type in the INCAR file,                     |
|      a different type was found on the POTCAR file                          |
|          I HOPE YOU KNOW, WHAT YOU ARE  DOING                               |
|                                                                             |
 ----------------------------------------------------------------------------- 

 LDA part: xc-table for Pade appr. of Perdew
 POSCAR found type information on POSCAR  Pd N  O 
 00/POSCAR found :  3 types and      40 ions
 POSCAR found type information on POSCAR  Pd N  O 
 06/POSCAR found :  3 types and      40 ions
 Jacobian:    21.0960049830057     
 POSCAR, INCAR and KPOINTS ok, starting setup
 FFT: planning ...
 WAVECAR not read
 entering main loop
       N       E                     dE             d eps       ncg     rms          rms(c)
DAV:   1     0.267291305579E+04    0.26729E+04   -0.17935E+05 11097   0.149E+03
DAV:   2    -0.888048940155E+01   -0.26818E+04   -0.25125E+04 12255   0.322E+02
DAV:   3    -0.184578189290E+03   -0.17570E+03   -0.15811E+03 13014   0.731E+01
DAV:   4    -0.191871053831E+03   -0.72929E+01   -0.69813E+01 12762   0.147E+01
DAV:   5    -0.192094690527E+03   -0.22364E+00   -0.22099E+00 12666   0.274E+00    0.380E+01
RMM:   6    -0.193011800148E+03   -0.91711E+00   -0.51165E+01 11088   0.144E+01    0.368E+01
RMM:   7    -0.266543044370E+03   -0.73531E+02   -0.37451E+01 11147   0.920E+00    0.627E+01
RMM:   8    -0.198796247227E+03    0.67747E+02   -0.29637E+01 11094   0.915E+00    0.362E+01
RMM:   9    -0.189841355780E+03    0.89549E+01   -0.24713E+01 11102   0.925E+00    0.240E+01
RMM:  10    -0.186951529224E+03    0.28898E+01   -0.10726E+01 11089   0.616E+00    0.196E+01
RMM:  11    -0.184023139774E+03    0.29284E+01   -0.74631E+00 11094   0.518E+00    0.134E+01
RMM:  12    -0.183204360259E+03    0.81878E+00   -0.25336E+00 11098   0.306E+00    0.104E+01
RMM:  13    -0.182569710365E+03    0.63465E+00   -0.11284E+00 11102   0.202E+00    0.755E+00
RMM:  14    -0.182223394185E+03    0.34632E+00   -0.45484E-01 11092   0.128E+00    0.486E+00
RMM:  15    -0.182158179215E+03    0.65215E-01   -0.20276E-01 11093   0.878E-01    0.386E+00
RMM:  16    -0.182099767433E+03    0.58412E-01   -0.16223E-01 11096   0.775E-01    0.297E+00
RMM:  17    -0.182117658997E+03   -0.17892E-01   -0.88197E-02 11097   0.577E-01    0.345E+00
RMM:  18    -0.182067478878E+03    0.50180E-01   -0.49263E-02 11096   0.427E-01    0.235E+00
RMM:  19    -0.182030563934E+03    0.36915E-01   -0.29777E-02 11097   0.322E-01    0.118E+00
RMM:  20    -0.182020449230E+03    0.10115E-01   -0.14134E-02 11096   0.222E-01    0.816E-01
RMM:  21    -0.182016090756E+03    0.43585E-02   -0.47666E-03 11000   0.130E-01    0.573E-01
RMM:  22    -0.182014033174E+03    0.20576E-02   -0.25324E-03 11016   0.958E-02    0.376E-01
RMM:  23    -0.182012244133E+03    0.17890E-02   -0.14608E-03 10948   0.717E-02    0.317E-01
RMM:  24    -0.182010674103E+03    0.15700E-02   -0.80107E-04 10600   0.510E-02    0.223E-01
RMM:  25    -0.182009924727E+03    0.74938E-03   -0.51566E-04  8914   0.418E-02    0.210E-01
RMM:  26    -0.182009144521E+03    0.78021E-03   -0.38870E-04  7826   0.356E-02    0.175E-01
RMM:  27    -0.182008828411E+03    0.31611E-03   -0.18691E-04  6397   0.267E-02    0.120E-01
RMM:  28    -0.182008739165E+03    0.89246E-04   -0.11280E-04  6243   0.193E-02
   1 F= -.18200874E+03 E0= -.18200004E+03  d E =-.182009E+03
quench:  g(F)=  0.000E+00 g(S)=  0.000E+00 dE (1.order)= 0.000E+00
 bond charge predicted
       N       E                     dE             d eps       ncg     rms          rms(c)
DAV:   1    -0.182017004476E+03   -0.81761E-02   -0.87764E-01 11421   0.156E+00    0.287E-01
RMM:   2    -0.182029475451E+03   -0.12471E-01   -0.29386E-02 11113   0.253E-01    0.112E+00
RMM:   3    -0.182020585816E+03    0.88896E-02   -0.22007E-03 11047   0.797E-02    0.478E-01
RMM:   4    -0.182019886011E+03    0.69980E-03   -0.19274E-03 11058   0.836E-02    0.361E-01
RMM:   5    -0.182019453096E+03    0.43291E-03   -0.10749E-03 10965   0.630E-02    0.265E-01
RMM:   6    -0.182019620242E+03   -0.16715E-03   -0.92519E-04 11007   0.585E-02    0.297E-01
RMM:   7    -0.182019377200E+03    0.24304E-03   -0.48863E-04  9249   0.435E-02    0.195E-01
RMM:   8    -0.182019252209E+03    0.12499E-03   -0.21636E-04  6306   0.311E-02    0.111E-01
RMM:   9    -0.182019300952E+03   -0.48742E-04   -0.75656E-05  5918   0.190E-02
   2 F= -.18201930E+03 E0= -.18201061E+03  d E =-.105618E-01
quench:  g(F)=  0.000E+00 g(S)=  0.000E+00 dE (1.order)= 0.000E+00
 bond charge predicted
       N       E                     dE             d eps       ncg     rms          rms(c)
DAV:   1    -0.182016354784E+03    0.28974E-02   -0.83487E-01 11322   0.162E+00    0.332E-01
RMM:   2    -0.182035436309E+03   -0.19082E-01   -0.35086E-02 11113   0.297E-01    0.146E+00
RMM:   3    -0.182022192743E+03    0.13244E-01   -0.36606E-03 11126   0.104E-01    0.649E-01
RMM:   4    -0.182019315564E+03    0.28772E-02   -0.20088E-03 11070   0.806E-02    0.282E-01
RMM:   5    -0.182019036755E+03    0.27881E-03   -0.11661E-03 11018   0.651E-02    0.245E-01
RMM:   6    -0.182018838422E+03    0.19833E-03   -0.53076E-04  9435   0.445E-02    0.176E-01
RMM:   7    -0.182018764644E+03    0.73779E-04   -0.29488E-04  6788   0.352E-02
   3 F= -.18201876E+03 E0= -.18201016E+03  d E =0.536308E-03
quench:  g(F)=  0.000E+00 g(S)=  0.000E+00 dE (1.order)= 0.000E+00
 bond charge predicted
       N       E                     dE             d eps       ncg     rms          rms(c)
DAV:   1    -0.182020350535E+03   -0.15121E-02   -0.25329E-01 11232   0.790E-01    0.201E-01
RMM:   2    -0.182031287760E+03   -0.10937E-01   -0.15708E-02 11094   0.206E-01    0.115E+00
RMM:   3    -0.182024142805E+03    0.71450E-02   -0.21330E-03 10989   0.789E-02    0.586E-01
RMM:   4    -0.182021520459E+03    0.26223E-02   -0.12629E-03 11082   0.672E-02    0.219E-01
RMM:   5    -0.182021167072E+03    0.35339E-03   -0.48103E-04  7845   0.410E-02    0.105E-01
RMM:   6    -0.182021258007E+03   -0.90935E-04   -0.28409E-04  6506   0.356E-02
   4 F= -.18202126E+03 E0= -.18201279E+03  d E =-.249336E-02
quench:  g(F)=  0.000E+00 g(S)=  0.000E+00 dE (1.order)= 0.000E+00
 bond charge predicted
       N       E                     dE             d eps       ncg     rms          rms(c)
DAV:   1    -0.182021233645E+03   -0.66573E-04   -0.43904E-02 11253   0.402E-01    0.107E-01
RMM:   2    -0.182023184958E+03   -0.19513E-02   -0.28732E-03 11110   0.106E-01    0.468E-01
RMM:   3    -0.182023116086E+03    0.68872E-04   -0.86522E-04 10926   0.535E-02
   5 F= -.18202312E+03 E0= -.18201450E+03  d E =-.185808E-02
quench:  g(F)=  0.000E+00 g(S)=  0.000E+00 dE (1.order)= 0.000E+00
 bond charge predicted
       N       E                     dE             d eps       ncg     rms          rms(c)
DAV:   1    -0.182021400164E+03    0.17848E-02   -0.14031E-02 11295   0.303E-01    0.811E-02
RMM:   2    -0.182023140100E+03   -0.17399E-02   -0.17141E-03 11088   0.897E-02    0.454E-01
RMM:   3    -0.182022759771E+03    0.38033E-03   -0.57495E-04  9735   0.424E-02    0.409E-01
RMM:   4    -0.182021441261E+03    0.13185E-02   -0.18819E-04  6197   0.265E-02    0.536E-02
RMM:   5    -0.182021414241E+03    0.27020E-04   -0.68774E-05  5730   0.169E-02
   6 F= -.18202141E+03 E0= -.18201281E+03  d E =0.170185E-02
quench:  g(F)=  0.000E+00 g(S)=  0.000E+00 dE (1.order)= 0.000E+00
 bond charge predicted
       N       E                     dE             d eps       ncg     rms          rms(c)
DAV:   1    -0.182021475366E+03   -0.34104E-04   -0.13549E-02 11322   0.240E-01    0.366E-02
RMM:   2    -0.182022002862E+03   -0.52750E-03   -0.45256E-04  7265   0.432E-02    0.255E-01
RMM:   3    -0.182021659148E+03    0.34371E-03   -0.11098E-04  5961   0.217E-02    0.133E-01
RMM:   4    -0.182021522876E+03    0.13627E-03   -0.40449E-05  5638   0.133E-02    0.312E-02
RMM:   5    -0.182021526202E+03   -0.33255E-05   -0.11880E-05  5607   0.761E-03
   7 F= -.18202153E+03 E0= -.18201291E+03  d E =-.111961E-03
quench:  g(F)=  0.000E+00 g(S)=  0.000E+00 dE (1.order)= 0.000E+00
 bond charge predicted
       N       E                     dE             d eps       ncg     rms          rms(c)
DAV:   1    -0.182021568683E+03   -0.45807E-04   -0.26426E-02 11202   0.334E-01    0.422E-02
RMM:   2    -0.182022791612E+03   -0.12229E-02   -0.85154E-04  9381   0.550E-02    0.376E-01
RMM:   3    -0.182021684830E+03    0.11068E-02   -0.14644E-04  6012   0.233E-02    0.830E-02
RMM:   4    -0.182021650079E+03    0.34751E-04   -0.60965E-05  5820   0.165E-02
   8 F= -.18202165E+03 E0= -.18201309E+03  d E =-.123877E-03
quench:  g(F)=  0.000E+00 g(S)=  0.000E+00 dE (1.order)= 0.000E+00
 bond charge predicted
       N       E                     dE             d eps       ncg     rms          rms(c)
DAV:   1    -0.182021592870E+03    0.91960E-04   -0.32885E-02 11247   0.364E-01    0.462E-02
RMM:   2    -0.182021899551E+03   -0.30668E-03   -0.10644E-03  8533   0.595E-02    0.165E-01
RMM:   3    -0.182021834702E+03    0.64850E-04   -0.95096E-05  5948   0.195E-02
   9 F= -.18202183E+03 E0= -.18201324E+03  d E =-.184623E-03
quench:  g(F)=  0.000E+00 g(S)=  0.000E+00 dE (1.order)= 0.000E+00
 bond charge predicted
       N       E                     dE             d eps       ncg     rms          rms(c)
DAV:   1    -0.182021702508E+03    0.19704E-03   -0.11911E-02 11298   0.204E-01    0.655E-02
RMM:   2    -0.182022501046E+03   -0.79854E-03   -0.12608E-03 10733   0.675E-02    0.297E-01
RMM:   3    -0.182022080539E+03    0.42051E-03   -0.34075E-04  7373   0.359E-02    0.214E-01
RMM:   4    -0.182021759323E+03    0.32122E-03   -0.68324E-05  5876   0.157E-02    0.630E-02
RMM:   5    -0.182021731302E+03    0.28021E-04   -0.30171E-05  5633   0.110E-02
  10 F= -.18202173E+03 E0= -.18201314E+03  d E =0.103400E-03
quench:  g(F)=  0.000E+00 g(S)=  0.000E+00 dE (1.order)= 0.000E+00
 bond charge predicted
       N       E                     dE             d eps       ncg     rms          rms(c)
DAV:   1    -0.182021743359E+03    0.15964E-04   -0.56468E-03 11262   0.151E-01    0.306E-02
RMM:   2    -0.182021917217E+03   -0.17386E-03   -0.25223E-04  6355   0.328E-02    0.144E-01
RMM:   3    -0.182021916329E+03    0.88768E-06   -0.75576E-05  5892   0.190E-02
  11 F= -.18202192E+03 E0= -.18201331E+03  d E =-.185028E-03
quench:  g(F)=  0.000E+00 g(S)=  0.000E+00 dE (1.order)= 0.000E+00
 bond charge predicted
       N       E                     dE             d eps       ncg     rms          rms(c)
DAV:   1    -0.182021749639E+03    0.16758E-03   -0.11594E-02 11160   0.226E-01    0.319E-02
RMM:   2    -0.182021909509E+03   -0.15987E-03   -0.37513E-04  6814   0.394E-02    0.127E-01
RMM:   3    -0.182021866005E+03    0.43503E-04   -0.55279E-05  5823   0.156E-02
  12 F= -.18202187E+03 E0= -.18201327E+03  d E =0.503239E-04
quench:  g(F)=  0.000E+00 g(S)=  0.000E+00 dE (1.order)= 0.000E+00
 bond charge predicted
       N       E                     dE             d eps       ncg     rms          rms(c)
DAV:   1    -0.182021745315E+03    0.16419E-03   -0.18380E-02 11304   0.278E-01    0.509E-02
RMM:   2    -0.182023349339E+03   -0.16040E-02   -0.93847E-04 10135   0.603E-02    0.449E-01
RMM:   3    -0.182021966712E+03    0.13826E-02   -0.19723E-04  6239   0.262E-02    0.148E-01
RMM:   4    -0.182021789904E+03    0.17681E-03   -0.92151E-05  5966   0.199E-02    0.432E-02
RMM:   5    -0.182021782805E+03    0.70992E-05   -0.24215E-05  5624   0.101E-02
  13 F= -.18202178E+03 E0= -.18201321E+03  d E =0.832009E-04
quench:  g(F)=  0.000E+00 g(S)=  0.000E+00 dE (1.order)= 0.000E+00
 bond charge predicted
       N       E                     dE             d eps       ncg     rms          rms(c)
DAV:   1    -0.182021759231E+03    0.30673E-04   -0.14214E-02 11232   0.224E-01    0.447E-02
RMM:   2    -0.182022159746E+03   -0.40052E-03   -0.72503E-04  8344   0.505E-02    0.217E-01
RMM:   3    -0.182022110743E+03    0.49003E-04   -0.13875E-04  6007   0.242E-02
  14 F= -.18202211E+03 E0= -.18201355E+03  d E =-.327939E-03
quench:  g(F)=  0.000E+00 g(S)=  0.000E+00 dE (1.order)= 0.000E+00
 bond charge predicted
       N       E                     dE             d eps       ncg     rms          rms(c)
DAV:   1    -0.182021795562E+03    0.36418E-03   -0.62285E-03 11331   0.175E-01    0.371E-02
RMM:   2    -0.182022034230E+03   -0.23867E-03   -0.43798E-04  6867   0.443E-02    0.169E-01
RMM:   3    -0.182022017768E+03    0.16463E-04   -0.89094E-05  5957   0.205E-02
  15 F= -.18202202E+03 E0= -.18201347E+03  d E =0.929754E-04
quench:  g(F)=  0.000E+00 g(S)=  0.000E+00 dE (1.order)= 0.000E+00
 bond charge predicted
       N       E                     dE             d eps       ncg     rms          rms(c)
DAV:   1    -0.182021806742E+03    0.22749E-03   -0.72877E-03 11232   0.191E-01    0.498E-02
RMM:   2    -0.182023095174E+03   -0.12884E-02   -0.60485E-04  9160   0.516E-02    0.401E-01
RMM:   3    -0.182022111382E+03    0.98379E-03   -0.21001E-04  6294   0.271E-02    0.191E-01
RMM:   4    -0.182021830955E+03    0.28043E-03   -0.84774E-05  5951   0.191E-02    0.442E-02
RMM:   5    -0.182021814940E+03    0.16015E-04   -0.21745E-05  5593   0.969E-03
  16 F= -.18202181E+03 E0= -.18201323E+03  d E =0.202828E-03
quench:  g(F)=  0.000E+00 g(S)=  0.000E+00 dE (1.order)= 0.000E+00
 bond charge predicted
       N       E                     dE             d eps       ncg     rms          rms(c)
DAV:   1    -0.182021794998E+03    0.35957E-04   -0.13734E-02 11190   0.237E-01    0.369E-02
RMM:   2    -0.182022248114E+03   -0.45312E-03   -0.43336E-04  7104   0.419E-02    0.227E-01
RMM:   3    -0.182021957249E+03    0.29087E-03   -0.97966E-05  5943   0.204E-02    0.137E-01
RMM:   4    -0.182021823846E+03    0.13340E-03   -0.45535E-05  5633   0.141E-02    0.253E-02
RMM:   5    -0.182021823805E+03    0.41575E-07   -0.96225E-06  5374   0.720E-03
  17 F= -.18202182E+03 E0= -.18201327E+03  d E =-.886501E-05
quench:  g(F)=  0.000E+00 g(S)=  0.000E+00 dE (1.order)= 0.000E+00
 bond charge predicted
       N       E                     dE             d eps       ncg     rms          rms(c)
DAV:   1    -0.182021772569E+03    0.51277E-04   -0.19232E-02 11232   0.274E-01    0.354E-02
RMM:   2    -0.182021857563E+03   -0.84994E-04   -0.62574E-04  7298   0.454E-02
  18 F= -.18202186E+03 E0= -.18201334E+03  d E =-.337586E-04
quench:  g(F)=  0.000E+00 g(S)=  0.000E+00 dE (1.order)= 0.000E+00
 bond charge predicted
       N       E                     dE             d eps       ncg     rms          rms(c)
DAV:   1    -0.182021845398E+03   -0.72828E-04   -0.66397E-03 11163   0.159E-01    0.861E-02
RMM:   2    -0.182040018373E+03   -0.18173E-01   -0.27791E-03 11057   0.918E-02    0.152E+00
RMM:   3    -0.182022239201E+03    0.17779E-01   -0.16085E-03 10755   0.679E-02    0.147E-01
RMM:   4    -0.182021839735E+03    0.39947E-03   -0.18399E-04  6287   0.301E-02    0.549E-02
RMM:   5    -0.182021816690E+03    0.23045E-04   -0.46439E-05  5871   0.139E-02
  19 F= -.18202182E+03 E0= -.18201325E+03  d E =0.408732E-04
quench:  g(F)=  0.000E+00 g(S)=  0.000E+00 dE (1.order)= 0.000E+00
 bond charge predicted
       N       E                     dE             d eps       ncg     rms          rms(c)
DAV:   1    -0.182021820209E+03    0.19527E-04   -0.32359E-03 11466   0.110E-01    0.286E-02
RMM:   2    -0.182022382171E+03   -0.56196E-03   -0.23149E-04  6349   0.301E-02    0.257E-01
RMM:   3    -0.182021905697E+03    0.47647E-03   -0.78732E-05  5906   0.182E-02    0.103E-01
RMM:   4    -0.182021826408E+03    0.79289E-04   -0.35107E-05  5631   0.124E-02
  20 F= -.18202183E+03 E0= -.18201327E+03  d E =-.971775E-05
quench:  g(F)=  0.000E+00 g(S)=  0.000E+00 dE (1.order)= 0.000E+00
 bond charge predicted
       N       E                     dE             d eps       ncg     rms          rms(c)
DAV:   1    -0.182021805635E+03    0.10006E-03   -0.80869E-03 11229   0.184E-01    0.234E-02
RMM:   2    -0.182021855628E+03   -0.49993E-04   -0.19704E-04  6046   0.291E-02
  21 F= -.18202186E+03 E0= -.18201327E+03  d E =-.292202E-04
quench:  g(F)=  0.000E+00 g(S)=  0.000E+00 dE (1.order)= 0.000E+00
 bond charge predicted
       N       E                     dE             d eps       ncg     rms          rms(c)
DAV:   1    -0.182021828670E+03   -0.23035E-04   -0.15392E-02 11145   0.261E-01    0.103E-01
RMM:   2    -0.182050350418E+03   -0.28522E-01   -0.38383E-03 11098   0.108E-01    0.190E+00
RMM:   3    -0.182022227697E+03    0.28123E-01   -0.25305E-03 10867   0.848E-02    0.769E-02
RMM:   4    -0.182021826198E+03    0.40150E-03   -0.17032E-04  6252   0.312E-02    0.585E-02
RMM:   5    -0.182021798713E+03    0.27485E-04   -0.48768E-05  5905   0.160E-02
  22 F= -.18202180E+03 E0= -.18201323E+03  d E =0.569150E-04
quench:  g(F)=  0.000E+00 g(S)=  0.000E+00 dE (1.order)= 0.000E+00
 bond charge predicted
       N       E                     dE             d eps       ncg     rms          rms(c)
DAV:   1    -0.182021750062E+03    0.76136E-04   -0.22521E-02 11292   0.299E-01    0.422E-02
RMM:   2    -0.182021951554E+03   -0.20149E-03   -0.67171E-04  7832   0.504E-02    0.147E-01
RMM:   3    -0.182021983931E+03   -0.32377E-04   -0.93758E-05  5898   0.210E-02
  23 F= -.18202198E+03 E0= -.18201341E+03  d E =-.185218E-03
quench:  g(F)=  0.000E+00 g(S)=  0.000E+00 dE (1.order)= 0.000E+00
 bond charge predicted
       N       E                     dE             d eps       ncg     rms          rms(c)
DAV:   1    -0.182021788036E+03    0.16352E-03   -0.91895E-03 11226   0.193E-01    0.564E-02
RMM:   2    -0.182025292123E+03   -0.35041E-02   -0.10382E-03 10372   0.624E-02    0.657E-01
RMM:   3    -0.182021987899E+03    0.33042E-02   -0.36141E-04  7535   0.334E-02    0.141E-01
RMM:   4    -0.182021817951E+03    0.16995E-03   -0.11906E-04  6001   0.231E-02    0.391E-02
RMM:   5    -0.182021805899E+03    0.12052E-04   -0.28524E-05  5739   0.111E-02
  24 F= -.18202181E+03 E0= -.18201325E+03  d E =0.178032E-03
quench:  g(F)=  0.000E+00 g(S)=  0.000E+00 dE (1.order)= 0.000E+00
 bond charge predicted
       N       E                     dE             d eps       ncg     rms          rms(c)
DAV:   1    -0.182021817802E+03    0.14892E-06   -0.34953E-03 11259   0.113E-01    0.318E-02
RMM:   2    -0.182021960055E+03   -0.14225E-03   -0.23517E-04  6388   0.319E-02    0.131E-01
RMM:   3    -0.182021826041E+03    0.13401E-03   -0.92822E-05  5641   0.225E-02    0.224E-02
RMM:   4    -0.182021843445E+03   -0.17404E-04   -0.10097E-05  4872   0.646E-03
  25 F= -.18202184E+03 E0= -.18201330E+03  d E =-.375465E-04
quench:  g(F)=  0.000E+00 g(S)=  0.000E+00 dE (1.order)= 0.000E+00
 bond charge predicted
       N       E                     dE             d eps       ncg     rms          rms(c)
DAV:   1    -0.182021804656E+03    0.21385E-04   -0.66451E-03 11277   0.167E-01    0.282E-02
RMM:   2    -0.182022299233E+03   -0.49458E-03   -0.23902E-04  6391   0.320E-02    0.249E-01
RMM:   3    -0.182021866450E+03    0.43278E-03   -0.72790E-05  5916   0.179E-02    0.791E-02
RMM:   4    -0.182021819482E+03    0.46969E-04   -0.25144E-05  5582   0.107E-02
  26 F= -.18202182E+03 E0= -.18201329E+03  d E =0.239634E-04
quench:  g(F)=  0.000E+00 g(S)=  0.000E+00 dE (1.order)= 0.000E+00
 bond charge predicted
       N       E                     dE             d eps       ncg     rms          rms(c)
DAV:   1    -0.182021778974E+03    0.87476E-04   -0.14562E-02 11139   0.245E-01    0.326E-02
RMM:   2    -0.182021862316E+03   -0.83342E-04   -0.36015E-04  6674   0.372E-02
  27 F= -.18202186E+03 E0= -.18201335E+03  d E =-.428345E-04
quench:  g(F)=  0.000E+00 g(S)=  0.000E+00 dE (1.order)= 0.000E+00
 bond charge predicted
       N       E                     dE             d eps       ncg     rms          rms(c)
DAV:   1    -0.182021846948E+03   -0.67974E-04   -0.18130E-02 11175   0.283E-01    0.135E-01
RMM:   2    -0.182070866680E+03   -0.49020E-01   -0.65236E-03 11094   0.140E-01    0.249E+00
RMM:   3    -0.182022574193E+03    0.48292E-01   -0.43732E-03 10945   0.111E-01    0.108E-01
RMM:   4    -0.182021838479E+03    0.73571E-03   -0.30430E-04  7148   0.407E-02    0.863E-02
RMM:   5    -0.182021806900E+03    0.31578E-04   -0.83094E-05  5975   0.201E-02
  28 F= -.18202181E+03 E0= -.18201329E+03  d E =0.554160E-04
quench:  g(F)=  0.000E+00 g(S)=  0.000E+00 dE (1.order)= 0.000E+00
 bond charge predicted
       N       E                     dE             d eps       ncg     rms          rms(c)
DAV:   1    -0.182021765111E+03    0.73368E-04   -0.11548E-02 11451   0.202E-01    0.393E-02
RMM:   2    -0.182022049070E+03   -0.28396E-03   -0.51222E-04  7076   0.430E-02    0.181E-01
RMM:   3    -0.182021943774E+03    0.10530E-03   -0.79062E-05  5893   0.188E-02    0.135E-01
RMM:   4    -0.182021807621E+03    0.13615E-03   -0.43598E-05  5749   0.133E-02    0.412E-02
RMM:   5    -0.182021802385E+03    0.52359E-05   -0.20670E-05  5597   0.972E-03
  29 F= -.18202180E+03 E0= -.18201329E+03  d E =0.451544E-05
quench:  g(F)=  0.000E+00 g(S)=  0.000E+00 dE (1.order)= 0.000E+00
 bond charge predicted
       N       E                     dE             d eps       ncg     rms          rms(c)
DAV:   1    -0.182021811689E+03   -0.40684E-05   -0.35128E-03 11301   0.106E-01    0.206E-02
RMM:   2    -0.182021859443E+03   -0.47754E-04   -0.16766E-04  5908   0.240E-02
  30 F= -.18202186E+03 E0= -.18201335E+03  d E =-.570582E-04
quench:  g(F)=  0.000E+00 g(S)=  0.000E+00 dE (1.order)= 0.000E+00
 bond charge predicted
       N       E                     dE             d eps       ncg     rms          rms(c)
DAV:   1    -0.182021876161E+03   -0.64472E-04   -0.42984E-03 11133   0.144E-01    0.883E-02
RMM:   2    -0.182044162675E+03   -0.22287E-01   -0.28186E-03 11037   0.905E-02    0.169E+00
RMM:   3    -0.182022178520E+03    0.21984E-01   -0.19604E-03 10813   0.746E-02    0.700E-02
RMM:   4    -0.182021856438E+03    0.32208E-03   -0.13910E-04  6178   0.280E-02    0.531E-02
RMM:   5    -0.182021838683E+03    0.17755E-04   -0.36447E-05  5817   0.136E-02
  31 F= -.18202184E+03 E0= -.18201332E+03  d E =0.207604E-04
quench:  g(F)=  0.000E+00 g(S)=  0.000E+00 dE (1.order)= 0.000E+00
 bond charge predicted
       N       E                     dE             d eps       ncg     rms          rms(c)
DAV:   1    -0.182021820588E+03    0.35850E-04   -0.79239E-03 11439   0.175E-01    0.289E-02
RMM:   2    -0.182022074244E+03   -0.25366E-03   -0.28137E-04  6475   0.329E-02    0.179E-01
RMM:   3    -0.182021898811E+03    0.17543E-03   -0.55690E-05  5852   0.160E-02    0.859E-02
RMM:   4    -0.182021843355E+03    0.55456E-04   -0.25373E-05  5629   0.104E-02
  32 F= -.18202184E+03 E0= -.18201332E+03  d E =-.467285E-05
quench:  g(F)=  0.000E+00 g(S)=  0.000E+00 dE (1.order)= 0.000E+00
 bond charge predicted
       N       E                     dE             d eps       ncg     rms          rms(c)
DAV:   1    -0.182021808479E+03    0.90332E-04   -0.90577E-03 11277   0.184E-01    0.295E-02
RMM:   2    -0.182021911328E+03   -0.10285E-03   -0.34455E-04  6496   0.349E-02    0.957E-02
RMM:   3    -0.182021922723E+03   -0.11395E-04   -0.52454E-05  5836   0.160E-02
  33 F= -.18202192E+03 E0= -.18201342E+03  d E =-.793680E-04
quench:  g(F)=  0.000E+00 g(S)=  0.000E+00 dE (1.order)= 0.000E+00
 bond charge predicted
       N       E                     dE             d eps       ncg     rms          rms(c)
DAV:   1    -0.182021836036E+03    0.75292E-04   -0.43336E-03 11061   0.131E-01    0.438E-02
RMM:   2    -0.182024388869E+03   -0.25528E-02   -0.60791E-04  9187   0.467E-02    0.569E-01
RMM:   3    -0.182021949266E+03    0.24396E-02   -0.25533E-04  6555   0.295E-02    0.101E-01
RMM:   4    -0.182021849596E+03    0.99670E-04   -0.65587E-05  5894   0.173E-02
  34 F= -.18202185E+03 E0= -.18201330E+03  d E =0.731275E-04
quench:  g(F)=  0.000E+00 g(S)=  0.000E+00 dE (1.order)= 0.000E+00
 bond charge predicted
       N       E                     dE             d eps       ncg     rms          rms(c)
DAV:   1    -0.182021837839E+03    0.11143E-03   -0.30916E-03 11214   0.110E-01    0.202E-02
RMM:   2    -0.182021878967E+03   -0.41128E-04   -0.12942E-04  5907   0.225E-02
  35 F= -.18202188E+03 E0= -.18201339E+03  d E =-.293715E-04
quench:  g(F)=  0.000E+00 g(S)=  0.000E+00 dE (1.order)= 0.000E+00
 bond charge predicted
       N       E                     dE             d eps       ncg     rms          rms(c)
DAV:   1    -0.182021868493E+03   -0.30654E-04   -0.47539E-03 11124   0.144E-01    0.774E-02
RMM:   2    -0.182038175719E+03   -0.16307E-01   -0.21511E-03 10976   0.795E-02    0.145E+00
RMM:   3    -0.182022092284E+03    0.16083E-01   -0.14507E-03 10731   0.643E-02    0.563E-02
RMM:   4    -0.182021853044E+03    0.23924E-03   -0.72991E-05  6042   0.216E-02    0.372E-02
RMM:   5    -0.182021848224E+03    0.48201E-05   -0.21639E-05  5760   0.100E-02
  36 F= -.18202185E+03 E0= -.18201331E+03  d E =0.307433E-04
quench:  g(F)=  0.000E+00 g(S)=  0.000E+00 dE (1.order)= 0.000E+00
 bond charge predicted
       N       E                     dE             d eps       ncg     rms          rms(c)
DAV:   1    -0.182021827876E+03    0.25168E-04   -0.74767E-03 11448   0.168E-01    0.251E-02
RMM:   2    -0.182021879856E+03   -0.51980E-04   -0.22230E-04  6070   0.284E-02
  37 F= -.18202188E+03 E0= -.18201335E+03  d E =-.316315E-04
quench:  g(F)=  0.000E+00 g(S)=  0.000E+00 dE (1.order)= 0.000E+00
 bond charge predicted
       N       E                     dE             d eps       ncg     rms          rms(c)
DAV:   1    -0.182021879180E+03   -0.51304E-04   -0.47572E-03 11265   0.139E-01    0.910E-02
RMM:   2    -0.182045161164E+03   -0.23282E-01   -0.30274E-03 11033   0.941E-02    0.173E+00
RMM:   3    -0.182022200995E+03    0.22960E-01   -0.20602E-03 10834   0.766E-02    0.644E-02
RMM:   4    -0.182021861678E+03    0.33932E-03   -0.11411E-04  6140   0.266E-02    0.509E-02
RMM:   5    -0.182021847583E+03    0.14095E-04   -0.33221E-05  5843   0.127E-02
  38 F= -.18202185E+03 E0= -.18201332E+03  d E =0.322725E-04
quench:  g(F)=  0.000E+00 g(S)=  0.000E+00 dE (1.order)= 0.000E+00
 bond charge predicted
       N       E                     dE             d eps       ncg     rms          rms(c)
DAV:   1    -0.182021844876E+03    0.16803E-04   -0.36230E-03 11424   0.116E-01    0.255E-02
RMM:   2    -0.182022038348E+03   -0.19347E-03   -0.17609E-04  6159   0.270E-02    0.158E-01
RMM:   3    -0.182021940771E+03    0.97577E-04   -0.50728E-05  5862   0.152E-02
  39 F= -.18202194E+03 E0= -.18201340E+03  d E =-.931876E-04
quench:  g(F)=  0.000E+00 g(S)=  0.000E+00 dE (1.order)= 0.000E+00
 bond charge predicted
       N       E                     dE             d eps       ncg     rms          rms(c)
DAV:   1    -0.182021846513E+03    0.19184E-03   -0.48889E-03 11253   0.146E-01    0.282E-02
RMM:   2    -0.182021975766E+03   -0.12925E-03   -0.22292E-04  6233   0.323E-02    0.122E-01
RMM:   3    -0.182021972320E+03    0.34463E-05   -0.58574E-05  5860   0.171E-02
  40 F= -.18202197E+03 E0= -.18201346E+03  d E =-.315492E-04
quench:  g(F)=  0.000E+00 g(S)=  0.000E+00 dE (1.order)= 0.000E+00
 bond charge predicted
       N       E                     dE             d eps       ncg     rms          rms(c)
DAV:   1    -0.182021843940E+03    0.13183E-03   -0.63229E-03 11160   0.167E-01    0.336E-02
RMM:   2    -0.182021994946E+03   -0.15101E-03   -0.31546E-04  6642   0.370E-02    0.133E-01
RMM:   3    -0.182021910604E+03    0.84343E-04   -0.80338E-05  5896   0.206E-02
  41 F= -.18202191E+03 E0= -.18201340E+03  d E =0.617165E-04
quench:  g(F)=  0.000E+00 g(S)=  0.000E+00 dE (1.order)= 0.000E+00
 bond charge predicted
       N       E                     dE             d eps       ncg     rms          rms(c)
DAV:   1    -0.182021856046E+03    0.13890E-03   -0.36042E-03 11070   0.116E-01    0.367E-02
RMM:   2    -0.182022612643E+03   -0.75660E-03   -0.35113E-04  6763   0.367E-02    0.313E-01
RMM:   3    -0.182021971744E+03    0.64090E-03   -0.11428E-04  5980   0.220E-02    0.113E-01
RMM:   4    -0.182021874930E+03    0.96814E-04   -0.40537E-05  5742   0.134E-02
  42 F= -.18202187E+03 E0= -.18201338E+03  d E =0.356739E-04
quench:  g(F)=  0.000E+00 g(S)=  0.000E+00 dE (1.order)= 0.000E+00
 bond charge predicted
       N       E                     dE             d eps       ncg     rms          rms(c)
DAV:   1    -0.182021851061E+03    0.12068E-03   -0.36562E-03 11088   0.121E-01    0.191E-02
RMM:   2    -0.182021880484E+03   -0.29424E-04   -0.12610E-04  5861   0.210E-02
  43 F= -.18202188E+03 E0= -.18201337E+03  d E =-.555463E-05
quench:  g(F)=  0.000E+00 g(S)=  0.000E+00 dE (1.order)= 0.000E+00
 bond charge predicted
       N       E                     dE             d eps       ncg     rms          rms(c)
DAV:   1    -0.182021886139E+03   -0.35078E-04   -0.46736E-03 11121   0.141E-01    0.787E-02
RMM:   2    -0.182038290515E+03   -0.16404E-01   -0.21950E-03 11025   0.807E-02    0.145E+00
RMM:   3    -0.182022105816E+03    0.16185E-01   -0.14583E-03 10733   0.645E-02    0.576E-02
RMM:   4    -0.182021867593E+03    0.23822E-03   -0.89358E-05  6061   0.229E-02    0.326E-02
RMM:   5    -0.182021861359E+03    0.62337E-05   -0.25821E-05  5882   0.110E-02
  44 F= -.18202186E+03 E0= -.18201337E+03  d E =0.191250E-04
quench:  g(F)=  0.000E+00 g(S)=  0.000E+00 dE (1.order)= 0.000E+00
 reached required accuracy - stopping structural energy minimisation
