 vasp.5.4.4.18Apr17-6-g9f103f2a35 (build Feb 06 2024 13:54:16) complex          
  
 POSCAR found type information on POSCAR  Pd N  O 
 02/POSCAR found :  3 types and      40 ions
 scaLAPACK will be used

 ----------------------------------------------------------------------------- 
|                                                                             |
|  ADVICE TO THIS USER RUNNING 'VASP/VAMP'   (HEAR YOUR MASTER'S VOICE ...):  |
|                                                                             |
|      You enforced a specific xc-type in the INCAR file,                     |
|      a different type was found on the POTCAR file                          |
|          I HOPE YOU KNOW, WHAT YOU ARE  DOING                               |
|                                                                             |
 ----------------------------------------------------------------------------- 

 LDA part: xc-table for Pade appr. of Perdew
 POSCAR found type information on POSCAR  Pd N  O 
 00/POSCAR found :  3 types and      40 ions
 POSCAR found type information on POSCAR  Pd N  O 
 06/POSCAR found :  3 types and      40 ions
 Jacobian:    21.0960049830057     
 POSCAR, INCAR and KPOINTS ok, starting setup
 FFT: planning ...
 WAVECAR not read
 entering main loop
       N       E                     dE             d eps       ncg     rms          rms(c)
  Solvation turned off during non-self-consistent phase (first NELMDL steps)
DAV:   1     0.267563832312E+04    0.26756E+04   -0.17927E+05 11088   0.149E+03
DAV:   2    -0.733501501712E+01   -0.26830E+04   -0.25115E+04 12276   0.322E+02
DAV:   3    -0.184020008081E+03   -0.17668E+03   -0.15892E+03 13356   0.730E+01
DAV:   4    -0.190934115728E+03   -0.69141E+01   -0.66885E+01 12510   0.143E+01
DAV:   5    -0.191165707036E+03   -0.23159E+00   -0.22868E+00 14100   0.268E+00    0.357E+01
 Begin Solvation calculations
  rms_SCF =    2.41191981359795      tol =   0.241191981359795     
 Begin minimization
 Creating dielectric and ionic cavities
  area:      166.663090917395     
  volume:    801.060936763852     
  Acav:     8.749812273163213E-002
  Solving linear dielectric/ionic screening model
        iter                  A_solv                     rms
   LPB:       -0.596569694490721E+03   0.339515107370266E+03
   LPB:    0  -0.153851140594883E+01   0.519356931981139E+01  -0.609458E+01   0.000000E+00   0.320392E+02  -0.195266E+03
   LPB:    1  -0.444461442011743E+00   0.213232741735588E+01   0.171670E-01   0.000000E+00   0.158567E+03  -0.447376E-14
   LPB:    2  -0.269830508805057E+00   0.231537592693111E+01   0.229115E-01   0.119598E+00   0.821062E+02   0.391468E-14
   LPB:    3  -0.204966288523451E+00   0.970695180399724E+00   0.164893E-01   0.516102E+00   0.124129E+03   0.172808E-13
   LPB:    4  -0.161536822431799E+00   0.475862992686784E+00   0.270641E-01   0.407932E+00   0.143526E+03   0.220481E-13
   LPB:    5  -0.140012621694723E+00   0.488849203077957E+00   0.300339E-01   0.446606E+00   0.677560E+02   0.239588E-13
   LPB:    6  -0.128456730584730E+00   0.434607039297780E+00   0.244945E-01   0.658294E+00   0.330042E+03   0.253999E-13
   LPB:    7  -0.120315219994495E+00   0.161403871306257E+00   0.293745E-01   0.587489E+00   0.523769E+02   0.282692E-13
  Finished solving LPB equations
  A_corr:   -3.281709726286311E-002
 End minimization
 Ecorr=   2200.86879961136     
 A_corr= -3.281709726286311E-002
 Ecorr_band=  -2200.90161670863     
 End Solvation calculations
RMM:   6    -0.182988435137E+03    0.81773E+01   -0.36010E+01 11158   0.125E+01    0.202E+01
 Begin Solvation calculations
  rms_SCF =    2.41191981359795      tol =   0.241191981359795     
 Begin minimization
 Creating dielectric and ionic cavities
  area:      157.952054522642     
  volume:    803.145764653240     
  Acav:     8.292482862438709E-002
  Solving linear dielectric/ionic screening model
        iter                  A_solv                     rms
   LPB:       -0.152801915005607E+02   0.704622472212758E+02
   LPB:    0  -0.150440143173021E+02   0.701684833709407E+02   0.121606E+00   0.000000E+00   0.319415E+02   0.388429E+01
   LPB:    1  -0.157037386969774E+01   0.638725300859629E+01   0.879463E-02   0.000000E+00   0.707609E+02   0.216722E-16
   LPB:    2  -0.551788555274790E+00   0.107853796379590E+01   0.153068E-01   0.434356E-01   0.141342E+03  -0.705001E-18
   LPB:    3  -0.415637055441088E+00   0.403745049993933E+00   0.227911E-01   0.897727E-01   0.236663E+03   0.447804E-14
   LPB:    4  -0.377879100855655E+00   0.220009839899741E+00   0.280890E-01   0.225017E+00   0.268722E+03   0.434756E-14
  Finished solving LPB equations
  A_corr:   -0.294954272231267     
 End minimization
 Ecorr=   2148.19249403116     
 A_corr= -0.294954272231267     
 Ecorr_band=  -2148.48744830339     
 End Solvation calculations
RMM:   7    -0.229954036808E+03   -0.46966E+02   -0.15950E+01 11122   0.699E+00    0.537E+01
 Begin Solvation calculations
  rms_SCF =    2.41191981359795      tol =   0.241191981359795     
 Begin minimization
 Creating dielectric and ionic cavities
  area:      153.209163589685     
  volume:    803.647443867798     
  Acav:     8.043481088458455E-002
  Solving linear dielectric/ionic screening model
        iter                  A_solv                     rms
   LPB:       -0.131192708911947E+02   0.658254074940447E+02
   LPB:    0  -0.130594974746999E+02   0.657503583855383E+02   0.612000E-01   0.000000E+00   0.319180E+02   0.195338E+01
   LPB:    1  -0.130225792197748E+01   0.618929926190908E+01   0.878074E-02   0.000000E+00   0.705447E+02  -0.287353E-16
   LPB:    2  -0.341365636229320E+00   0.121030070973156E+01   0.160922E-01   0.445949E-01   0.127513E+03  -0.145374E-14
   LPB:    3  -0.212534185316921E+00   0.364969905016034E+00   0.213313E-01   0.101145E+00   0.193185E+03   0.118883E-15
   LPB:    4  -0.183375264222562E+00   0.347227960110516E+00   0.255865E-01   0.188693E+00   0.394786E+03   0.680081E-14
   LPB:    5  -0.173760938638571E+00   0.245480415685426E+00   0.262597E-01   0.321269E+00   0.113153E+03   0.894824E-14
   LPB:    6  -0.168929442716012E+00   0.306239621619496E+00   0.268064E-01   0.492281E+00   0.304175E+03   0.630417E-14
   LPB:    7  -0.165643248671081E+00   0.126981784816659E+00   0.284175E-01   0.641600E+00   0.494239E+02   0.284137E-14
  Finished solving LPB equations
  A_corr:   -8.520843778649671E-002
 End minimization
 Ecorr=   2089.70313720657     
 A_corr= -8.520843778649671E-002
 Ecorr_band=  -2089.78834564436     
 End Solvation calculations
RMM:   8    -0.186581407357E+03    0.43373E+02   -0.11303E+01 11117   0.595E+00    0.240E+01
 Begin Solvation calculations
  rms_SCF =    2.41191981359795      tol =   0.241191981359795     
 Begin minimization
 Creating dielectric and ionic cavities
  area:      151.485955777989     
  volume:    799.393032613983     
  Acav:     7.953012678344400E-002
  Solving linear dielectric/ionic screening model
        iter                  A_solv                     rms
   LPB:       -0.486354233590460E+00   0.991636863127789E+01
   LPB:    0  -0.328281025573901E+00   0.596925156545268E+01  -0.992142E-01   0.000000E+00   0.321174E+02  -0.318650E+01
   LPB:    1  -0.204646457955616E+00   0.849802660427427E+00   0.958004E-02   0.000000E+00   0.610010E+02  -0.472053E-16
   LPB:    2  -0.190748664238209E+00   0.334929549360091E+00   0.154602E-01   0.696561E-01   0.834369E+02  -0.439927E-14
   LPB:    3  -0.187641354968370E+00   0.260247248287897E+00   0.196176E-01   0.176200E+00   0.146123E+03  -0.134529E-13
   LPB:    4  -0.184861769411174E+00   0.146617377388245E+00   0.360538E-01   0.486734E+00   0.482533E+02  -0.158302E-13
  Finished solving LPB equations
  A_corr:   -0.105331642627730     
 End minimization
 Ecorr=   2093.39104798021     
 A_corr= -0.105331642627730     
 Ecorr_band=  -2093.49637962284     
 End Solvation calculations
RMM:   9    -0.184821445542E+03    0.17600E+01   -0.88474E+00 11115   0.548E+00    0.177E+01
 Begin Solvation calculations
  rms_SCF =    2.41191981359795      tol =   0.241191981359795     
 Begin minimization
 Creating dielectric and ionic cavities
  area:      146.662457061292     
  volume:    798.514650498434     
  Acav:     7.699778995717811E-002
  Solving linear dielectric/ionic screening model
        iter                  A_solv                     rms
   LPB:       -0.234573372111133E+01   0.257272919094990E+02
   LPB:    0  -0.195456768662749E+01   0.237691944072514E+02   0.155972E+00   0.000000E+00   0.321586E+02   0.501585E+01
   LPB:    1  -0.384163442608489E+00   0.213500909373275E+01   0.880963E-02   0.000000E+00   0.713889E+02   0.800130E-16
   LPB:    2  -0.257812951651312E+00   0.415038206919688E+00   0.153961E-01   0.460376E-01   0.156734E+03   0.246001E-14
   LPB:    3  -0.238925381476086E+00   0.203728936334688E+00   0.228781E-01   0.100598E+00   0.219788E+03   0.254215E-14
   LPB:    4  -0.233204255221271E+00   0.336392984428253E+00   0.263700E-01   0.262794E+00   0.368315E+03   0.139372E-14
   LPB:    5  -0.229774172677995E+00   0.192051870484208E+00   0.275799E-01   0.573244E+00   0.585671E+02   0.160198E-14
  Finished solving LPB equations
  A_corr:   -0.152776382720817     
 End minimization
 Ecorr=   2036.17222493338     
 A_corr= -0.152776382720817     
 Ecorr_band=  -2036.32500131610     
 End Solvation calculations
RMM:  10    -0.188797552965E+03   -0.39761E+01   -0.61059E+00 11135   0.454E+00    0.213E+01
 Begin Solvation calculations
  rms_SCF =    2.41191981359795      tol =   0.241191981359795     
 Begin minimization
 Creating dielectric and ionic cavities
  area:      147.074467687289     
  volume:    791.861944450877     
  Acav:     7.721409553582675E-002
  Solving linear dielectric/ionic screening model
        iter                  A_solv                     rms
   LPB:       -0.602566879760444E+00   0.102524941435243E+02
   LPB:    0  -0.540538938754255E+00   0.858946139489883E+01  -0.618108E-01   0.000000E+00   0.324705E+02  -0.200703E+01
   LPB:    1  -0.303589323023269E+00   0.124547575541770E+01   0.952295E-02   0.000000E+00   0.643107E+02  -0.172046E-16
   LPB:    2  -0.263564960405810E+00   0.410456418666321E+00   0.172483E-01   0.932595E-01   0.100075E+03  -0.129597E-13
   LPB:    3  -0.255803206215727E+00   0.378243724213558E+00   0.210939E-01   0.158571E+00   0.196228E+03  -0.988102E-14
   LPB:    4  -0.251456392633928E+00   0.186112916631843E+00   0.264236E-01   0.447070E+00   0.761075E+02  -0.839880E-14
  Finished solving LPB equations
  A_corr:   -0.174242297098101     
 End minimization
 Ecorr=   2025.90069171616     
 A_corr= -0.174242297098101     
 Ecorr_band=  -2026.07493401326     
 End Solvation calculations
RMM:  11    -0.183582484306E+03    0.52151E+01   -0.30641E+00 11125   0.336E+00    0.127E+01
 Begin Solvation calculations
  rms_SCF =    2.41191981359795      tol =   0.241191981359795     
 Begin minimization
 Creating dielectric and ionic cavities
  area:      148.987114512658     
  volume:    790.292017786724     
  Acav:     7.821823511914569E-002
  Solving linear dielectric/ionic screening model
        iter                  A_solv                     rms
   LPB:       -0.258393915497384E+00   0.108052673150996E+01
   LPB:    0  -0.258393899524851E+00   0.108013415257914E+01  -0.313304E-04   0.000000E+00   0.325441E+02  -0.101962E-02
   LPB:    1  -0.252533217933151E+00   0.287047095983740E+00   0.111263E-01   0.000000E+00   0.773062E+02   0.948769E-19
   LPB:    2  -0.250045384879534E+00   0.122780497663549E+00   0.226601E-01   0.208431E+00   0.188600E+03  -0.349349E-14
   LPB:    3  -0.246449051626585E+00   0.163654814689461E+00   0.500515E-01   0.654460E+00   0.183075E+03  -0.552363E-14
   LPB:    4  -0.243541685285661E+00   0.111868143631773E+00   0.367749E-01   0.110029E+01   0.484125E+02  -0.824029E-14
  Finished solving LPB equations
  A_corr:   -0.165323450166515     
 End minimization
 Ecorr=   2013.46927435783     
 A_corr= -0.165323450166515     
 Ecorr_band=  -2013.63459780799     
 End Solvation calculations
RMM:  12    -0.182671925765E+03    0.91056E+00   -0.97460E-01 11156   0.188E+00    0.914E+00
 Begin Solvation calculations
  rms_SCF =    2.41191981359795      tol =   0.241191981359795     
 Begin minimization
 Creating dielectric and ionic cavities
  area:      147.657986475681     
  volume:    788.846684922818     
  Acav:     7.752044289973248E-002
  Solving linear dielectric/ionic screening model
        iter                  A_solv                     rms
   LPB:       -0.329081238983101E+00   0.517904584366073E+01
   LPB:    0  -0.323307925445943E+00   0.510522207215414E+01   0.188165E-01   0.000000E+00   0.326119E+02   0.613642E+00
   LPB:    1  -0.251017356034311E+00   0.545856328834878E+00   0.895050E-02   0.000000E+00   0.691986E+02   0.316600E-16
   LPB:    2  -0.242042918638692E+00   0.100485180167126E+00   0.168251E-01   0.660414E-01   0.138133E+03   0.163127E-15
   LPB:    3  -0.240625614139268E+00   0.451725891790594E-01   0.249689E-01   0.106417E+00   0.251935E+03   0.447417E-15
   LPB:    4  -0.239923909604163E+00   0.515716179608620E-01   0.348164E-01   0.355064E+00   0.336939E+03   0.297385E-15
  Finished solving LPB equations
  A_corr:   -0.162403466704431     
 End minimization
 Ecorr=   2002.54189901142     
 A_corr= -0.162403466704431     
 Ecorr_band=  -2002.70430247813     
 End Solvation calculations
RMM:  13    -0.182432262439E+03    0.23966E+00   -0.45115E-01 11111   0.124E+00    0.828E+00
 Begin Solvation calculations
  rms_SCF =    2.41191981359795      tol =   0.241191981359795     
 Begin minimization
 Creating dielectric and ionic cavities
  area:      147.406718066007     
  volume:    786.015647398416     
  Acav:     7.738852698465380E-002
  Solving linear dielectric/ionic screening model
        iter                  A_solv                     rms
   LPB:       -0.256712680467361E+00   0.165058698955907E+01
   LPB:    0  -0.256684233457913E+00   0.166525001832474E+01   0.131815E-02   0.000000E+00   0.327446E+02   0.431621E-01
   LPB:    1  -0.245509597905529E+00   0.211189780501619E+00   0.917798E-02   0.000000E+00   0.927187E+02  -0.256842E-17
   LPB:    2  -0.244381710329201E+00   0.699186905646347E-01   0.152029E-01   0.609332E-01   0.374944E+03  -0.117016E-15
   LPB:    3  -0.243751689092504E+00   0.117046540892073E+00   0.361757E-01   0.234746E+00   0.276511E+03  -0.239107E-15
   LPB:    4  -0.243201114497773E+00   0.916307854373222E-01   0.308857E-01   0.102357E+01   0.768792E+02   0.608442E-16
  Finished solving LPB equations
  A_corr:   -0.165812587513120     
 End minimization
 Ecorr=   1998.12873425616     
 A_corr= -0.165812587513120     
 Ecorr_band=  -1998.29454684368     
 End Solvation calculations
RMM:  14    -0.181987888039E+03    0.44437E+00   -0.37919E-01 11126   0.116E+00    0.448E+00
 Begin Solvation calculations
  rms_SCF =    2.41191981359795      tol =   0.241191981359795     
 Begin minimization
 Creating dielectric and ionic cavities
  area:      147.612433276839     
  volume:    783.927464337245     
  Acav:     7.749652747034035E-002
  Solving linear dielectric/ionic screening model
        iter                  A_solv                     rms
   LPB:       -0.260148582447812E+00   0.128533804707420E+01
   LPB:    0  -0.258911320432233E+00   0.126017250116214E+01   0.868016E-02   0.000000E+00   0.328425E+02   0.285078E+00
   LPB:    1  -0.250547458849956E+00   0.295225315252188E+00   0.973218E-02   0.000000E+00   0.110341E+03   0.997261E-17
   LPB:    2  -0.249366060597864E+00   0.577751751133324E-01   0.148556E-01   0.925355E-01   0.226555E+03  -0.143486E-14
   LPB:    3  -0.248855799077119E+00   0.569381723382351E-01   0.344533E-01   0.186233E+00   0.161939E+03  -0.168886E-14
   LPB:    4  -0.248409335182191E+00   0.811658547557899E-01   0.419334E-01   0.718892E+00   0.981580E+02  -0.160133E-14
  Finished solving LPB equations
  A_corr:   -0.170912807711851     
 End minimization
 Ecorr=   1991.37768572058     
 A_corr= -0.170912807711851     
 Ecorr_band=  -1991.54859852829     
 End Solvation calculations
RMM:  15    -0.181840186228E+03    0.14770E+00   -0.15858E-01 11124   0.746E-01    0.284E+00
 Begin Solvation calculations
  rms_SCF =    2.20808501210901      tol =   0.220808501210901     
 Begin minimization
 Creating dielectric and ionic cavities
  area:      147.955209368395     
  volume:    782.568421159844     
  Acav:     7.767648491840727E-002
  Solving linear dielectric/ionic screening model
        iter                  A_solv                     rms
   LPB:       -0.255214606160537E+00   0.710396628523239E+00
   LPB:    0  -0.254978051021168E+00   0.716563292505219E+00   0.379177E-02   0.000000E+00   0.329062E+02   0.124773E+00
   LPB:    1  -0.251859048292201E+00   0.198546096945188E+00   0.992957E-02   0.000000E+00   0.121573E+03  -0.444645E-17
   LPB:    2  -0.251381795995642E+00   0.336055337591720E-01   0.148542E-01   0.102286E+00   0.203449E+03  -0.134496E-15
   LPB:    3  -0.251102487138135E+00   0.610229010560841E-01   0.435535E-01   0.199601E+00   0.196649E+03  -0.145598E-15
   LPB:    4  -0.250775967781799E+00   0.807879513654263E-01   0.402281E-01   0.126566E+01   0.736801E+02  -0.197472E-15
  Finished solving LPB equations
  A_corr:   -0.173099482863391     
 End minimization
 Ecorr=   1987.38265917655     
 A_corr= -0.173099482863391     
 Ecorr_band=  -1987.55575865941     
 End Solvation calculations
RMM:  16    -0.181835066947E+03    0.51193E-02   -0.44467E-02 11138   0.392E-01    0.306E+00
 Begin Solvation calculations
  rms_SCF =    2.20808501210901      tol =   0.220808501210901     
 Begin minimization
 Creating dielectric and ionic cavities
  area:      148.309144281042     
  volume:    781.467859064915     
  Acav:     7.786230074754709E-002
  Solving linear dielectric/ionic screening model
        iter                  A_solv                     rms
   LPB:       -0.255117810345179E+00   0.382091996004623E+00
   LPB:    0  -0.254873442228539E+00   0.383100539444921E+00   0.385086E-02   0.000000E+00   0.329578E+02   0.126916E+00
   LPB:    1  -0.253129741214155E+00   0.203040414200115E+00   0.113293E-01   0.000000E+00   0.178827E+03  -0.126022E-17
   LPB:    2  -0.252856919556232E+00   0.296417700239358E-01   0.133136E-01   0.133143E+00   0.106873E+03   0.683138E-15
   LPB:    3  -0.252716500806261E+00   0.391577476976700E-01   0.364568E-01   0.187958E+00   0.171713E+03   0.771257E-15
   LPB:    4  -0.252542020394586E+00   0.639108685004076E-01   0.428447E-01   0.105731E+01   0.726301E+02   0.789195E-15
  Finished solving LPB equations
  A_corr:   -0.174679719647039     
 End minimization
 Ecorr=   1983.83301625040     
 A_corr= -0.174679719647039     
 Ecorr_band=  -1984.00769597004     
 End Solvation calculations
RMM:  17    -0.181844523815E+03   -0.94569E-02   -0.93785E-03 11151   0.182E-01    0.325E+00
 Begin Solvation calculations
  rms_SCF =    2.20808501210901      tol =   0.220808501210901     
 Begin minimization
 Creating dielectric and ionic cavities
  area:      148.509909532837     
  volume:    780.680669596336     
  Acav:     7.796770250473929E-002
  Solving linear dielectric/ionic screening model
        iter                  A_solv                     rms
   LPB:       -0.255072867775674E+00   0.179422704926952E+00
   LPB:    0  -0.254918141116735E+00   0.179693064106002E+00   0.306250E-02   0.000000E+00   0.329947E+02   0.101046E+00
   LPB:    1  -0.253935771203953E+00   0.740469516278615E-01   0.151940E-01   0.000000E+00   0.238863E+03   0.361517E-17
   LPB:    2  -0.253842656062728E+00   0.494265188348700E-01   0.176557E-01   0.815700E-01   0.958442E+02  -0.942695E-16
   LPB:    3  -0.253764852269175E+00   0.402254552836070E-01   0.307595E-01   0.479609E+00   0.130076E+03  -0.356423E-15
   LPB:    4  -0.253652387395997E+00   0.669873363612610E-01   0.365493E-01   0.121651E+01   0.842280E+02  -0.986967E-15
  Finished solving LPB equations
  A_corr:   -0.175684684891258     
 End minimization
 Ecorr=   1981.16180582972     
 A_corr= -0.175684684891258     
 Ecorr_band=  -1981.33749051461     
 End Solvation calculations
RMM:  18    -0.181837968660E+03    0.65552E-02   -0.28071E-03 11079   0.101E-01    0.306E+00
 Begin Solvation calculations
  rms_SCF =    2.20808501210901      tol =   0.220808501210901     
 Begin minimization
 Creating dielectric and ionic cavities
  area:      149.372149874663     
  volume:    777.098281779523     
  Acav:     7.842037868419788E-002
  Solving linear dielectric/ionic screening model
        iter                  A_solv                     rms
   LPB:       -0.295478332317313E+00   0.131501642854357E+01
   LPB:    0  -0.293682733063651E+00   0.148444524593994E+01   0.104063E-01   0.000000E+00   0.331626E+02   0.345099E+00
   LPB:    1  -0.265744457173761E+00   0.408522432658698E+00   0.143550E-01   0.000000E+00   0.109156E+03  -0.797919E-17
   LPB:    2  -0.262742681076316E+00   0.186904353042106E+00   0.139588E-01   0.110493E+00   0.173737E+03   0.754355E-15
   LPB:    3  -0.262011413656201E+00   0.127084457710692E+00   0.194264E-01   0.175046E+00   0.105431E+03  -0.515357E-15
   LPB:    4  -0.261702732689994E+00   0.934032229771621E-01   0.198222E-01   0.413689E+00   0.212439E+03  -0.972839E-15
  Finished solving LPB equations
  A_corr:   -0.183282354005797     
 End minimization
 Ecorr=   1972.24052037043     
 A_corr= -0.183282354005797     
 Ecorr_band=  -1972.42380272443     
 End Solvation calculations
RMM:  19    -0.181791983137E+03    0.45986E-01   -0.25286E-02 11117   0.291E-01    0.159E+00
 Begin Solvation calculations
  rms_SCF =    1.46659205142307      tol =   0.146659205142307     
 Begin minimization
 Creating dielectric and ionic cavities
  area:      150.033901505741     
  volume:    774.452704253099     
  Acav:     7.876779829051378E-002
  Solving linear dielectric/ionic screening model
        iter                  A_solv                     rms
   LPB:       -0.291120217314840E+00   0.101521013805015E+01
   LPB:    0  -0.290246421219775E+00   0.113566524822827E+01   0.724578E-02   0.000000E+00   0.332867E+02   0.241188E+00
   LPB:    1  -0.272279764672891E+00   0.318827274058919E+00   0.143711E-01   0.000000E+00   0.121232E+03  -0.809679E-17
   LPB:    2  -0.270251329971651E+00   0.158583813230277E+00   0.150943E-01   0.107491E+00   0.150892E+03   0.279902E-14
   LPB:    3  -0.269513610404583E+00   0.136511091042949E+00   0.233351E-01   0.235253E+00   0.955776E+02   0.215212E-14
   LPB:    4  -0.269099483266418E+00   0.123322695099886E+00   0.227437E-01   0.575958E+00   0.225972E+03   0.213538E-14
  Finished solving LPB equations
  A_corr:   -0.190331684975905     
 End minimization
 Ecorr=   1965.86483196862     
 A_corr= -0.190331684975905     
 Ecorr_band=  -1966.05516365360     
 End Solvation calculations
RMM:  20    -0.181773437862E+03    0.18545E-01   -0.20536E-02 11127   0.267E-01    0.834E-01
 Begin Solvation calculations
  rms_SCF =   0.267602223126209      tol =   2.676022231262087E-002
 Begin minimization
 Creating dielectric and ionic cavities
  area:      150.186717105545     
  volume:    773.898960505508     
  Acav:     7.884802648041106E-002
  Solving linear dielectric/ionic screening model
        iter                  A_solv                     rms
   LPB:       -0.272750057528708E+00   0.318079065969012E+00
   LPB:    0  -0.272686195740857E+00   0.329441615177804E+00   0.195808E-02   0.000000E+00   0.333126E+02   0.652289E-01
   LPB:    1  -0.271229121663821E+00   0.812158059152289E-01   0.148390E-01   0.000000E+00   0.118698E+03   0.120135E-17
   LPB:    2  -0.271027172328754E+00   0.846322468031395E-01   0.177839E-01   0.115648E+00   0.205971E+03   0.376633E-15
   LPB:    3  -0.270751547216182E+00   0.108376912046271E+00   0.373320E-01   0.650163E+00   0.599451E+02   0.314839E-15
   LPB:    4  -0.270448798856071E+00   0.729600898404086E-01   0.282805E-01   0.144997E+01   0.151719E+03   0.118096E-15
   LPB:    5  -0.270308946685612E+00   0.490927776410100E-01   0.208864E-01   0.625477E+00   0.150995E+03  -0.809560E-16
   LPB:    6  -0.270194045402752E+00   0.206988305504170E-01   0.352898E-01   0.486261E+00   0.121330E+03  -0.815575E-15
  Finished solving LPB equations
  A_corr:   -0.191346018922340     
 End minimization
 Ecorr=   1963.44185480582     
 A_corr= -0.191346018922340     
 Ecorr_band=  -1963.63320082475     
 End Solvation calculations
RMM:  21    -0.181770223772E+03    0.32141E-02   -0.50313E-03 11109   0.134E-01    0.655E-01
 Begin Solvation calculations
  rms_SCF =   0.267602223126209      tol =   2.676022231262087E-002
 Begin minimization
 Creating dielectric and ionic cavities
  area:      150.363046827059     
  volume:    773.395247685016     
  Acav:     7.894059958420598E-002
  Solving linear dielectric/ionic screening model
        iter                  A_solv                     rms
   LPB:       -0.274549694039514E+00   0.424837248018717E+00
   LPB:    0  -0.274508773163787E+00   0.441693591691125E+00   0.156686E-02   0.000000E+00   0.333362E+02   0.522331E-01
   LPB:    1  -0.272376023295546E+00   0.103696112737877E+00   0.146243E-01   0.000000E+00   0.984897E+02  -0.147322E-17
   LPB:    2  -0.272141206906399E+00   0.572962757437109E-01   0.139069E-01   0.115780E+00   0.237082E+03   0.521749E-16
   LPB:    3  -0.272086447355828E+00   0.305192193269962E-01   0.170113E-01   0.190644E+00   0.117858E+03  -0.104042E-15
   LPB:    4  -0.272056163537842E+00   0.317254712593260E-01   0.254565E-01   0.369563E+00   0.185866E+03  -0.260682E-15
   LPB:    5  -0.272020227237748E+00   0.304372415323944E-01   0.344456E-01   0.876978E+00   0.129806E+03  -0.354067E-15
   LPB:    6  -0.271955879872246E+00   0.136536185965923E-01   0.491154E-01   0.125578E+01   0.669411E+02  -0.623642E-15
  Finished solving LPB equations
  A_corr:   -0.193015280288040     
 End minimization
 Ecorr=   1961.29325682287     
 A_corr= -0.193015280288040     
 Ecorr_band=  -1961.48627210316     
 End Solvation calculations
RMM:  22    -0.181768083480E+03    0.21403E-02   -0.14237E-03 11032   0.721E-02    0.502E-01
 Begin Solvation calculations
  rms_SCF =   0.267602223126209      tol =   2.676022231262087E-002
 Begin minimization
 Creating dielectric and ionic cavities
  area:      150.456588022946     
  volume:    773.164618798307     
  Acav:     7.898970871204666E-002
  Solving linear dielectric/ionic screening model
        iter                  A_solv                     rms
   LPB:       -0.274070163154843E+00   0.330684976469916E+00
   LPB:    0  -0.274070048355910E+00   0.329566634504491E+00  -0.829765E-04   0.000000E+00   0.333471E+02  -0.276702E-02
   LPB:    1  -0.273043992209952E+00   0.709648140292351E-01   0.140918E-01   0.000000E+00   0.929069E+02   0.168323E-18
   LPB:    2  -0.272940813266404E+00   0.385903537631202E-01   0.134162E-01   0.105623E+00   0.238800E+03  -0.611462E-15
   LPB:    3  -0.272919217795709E+00   0.171191414558074E-01   0.161413E-01   0.173965E+00   0.112561E+03  -0.823736E-15
   LPB:    4  -0.272906513683177E+00   0.223983810851093E-01   0.281395E-01   0.337446E+00   0.166894E+03  -0.861631E-15
  Finished solving LPB equations
  A_corr:   -0.193916804971130     
 End minimization
 Ecorr=   1960.71130732910     
 A_corr= -0.193916804971130     
 Ecorr_band=  -1960.90522413407     
 End Solvation calculations
RMM:  23    -0.181767561468E+03    0.52201E-03   -0.65837E-04 10064   0.476E-02    0.481E-01
 Begin Solvation calculations
  rms_SCF =   0.267602223126209      tol =   2.676022231262087E-002
 Begin minimization
 Creating dielectric and ionic cavities
  area:      150.711914232028     
  volume:    772.589926819969     
  Acav:     7.912375497181484E-002
  Solving linear dielectric/ionic screening model
        iter                  A_solv                     rms
   LPB:       -0.283634674387543E+00   0.908533280146366E+00
   LPB:    0  -0.283631016724848E+00   0.914176836868486E+00   0.468180E-03   0.000000E+00   0.333740E+02   0.156250E-01
   LPB:    1  -0.276810568104701E+00   0.210597859368893E+00   0.138533E-01   0.000000E+00   0.830577E+02   0.673358E-18
   LPB:    2  -0.276099319403792E+00   0.995074065951419E-01   0.126991E-01   0.113760E+00   0.229877E+03   0.123815E-14
   LPB:    3  -0.275922481006122E+00   0.457235316012842E-01   0.178366E-01   0.177017E+00   0.119065E+03   0.124716E-14
   LPB:    4  -0.275846142398831E+00   0.434473857232427E-01   0.224219E-01   0.343404E+00   0.215735E+03   0.121473E-14
   LPB:    5  -0.275801360174146E+00   0.234650583472726E-01   0.248041E-01   0.530287E+00   0.845522E+02   0.122987E-14
  Finished solving LPB equations
  A_corr:   -0.196677605202331     
 End minimization
 Ecorr=   1959.48075329170     
 A_corr= -0.196677605202331     
 Ecorr_band=  -1959.67743089690     
 End Solvation calculations
RMM:  24    -0.181766395333E+03    0.11661E-02   -0.92200E-04 10906   0.531E-02    0.356E-01
 Begin Solvation calculations
  rms_SCF =   0.267602223126209      tol =   2.676022231262087E-002
 Begin minimization
 Creating dielectric and ionic cavities
  area:      150.966857512924     
  volume:    772.095639006104     
  Acav:     7.925760019428503E-002
  Solving linear dielectric/ionic screening model
        iter                  A_solv                     rms
   LPB:       -0.286857379768230E+00   0.854731210389831E+00
   LPB:    0  -0.286856309347041E+00   0.858620666035265E+00   0.253185E-03   0.000000E+00   0.333972E+02   0.845565E-02
   LPB:    1  -0.279981558728132E+00   0.187373948588926E+00   0.140873E-01   0.000000E+00   0.904220E+02   0.489816E-18
   LPB:    2  -0.279321259716218E+00   0.933687572085212E-01   0.133757E-01   0.101157E+00   0.198355E+03   0.240460E-15
   LPB:    3  -0.279164282521317E+00   0.529436122855245E-01   0.181650E-01   0.175056E+00   0.105565E+03   0.148909E-15
   LPB:    4  -0.279082120872937E+00   0.525273562492137E-01   0.226601E-01   0.419571E+00   0.212473E+03  -0.506316E-16
   LPB:    5  -0.279022144850603E+00   0.275556536368974E-01   0.257479E-01   0.642435E+00   0.738803E+02  -0.139448E-15
   LPB:    6  -0.278975750142723E+00   0.101236773992963E-01   0.333087E-01   0.597964E+00   0.177978E+03  -0.656184E-16
  Finished solving LPB equations
  A_corr:   -0.199718149948438     
 End minimization
 Ecorr=   1957.95841673332     
 A_corr= -0.199718149948438     
 Ecorr_band=  -1958.15813488327     
 End Solvation calculations
RMM:  25    -0.181766028452E+03    0.36688E-03   -0.81100E-04 10742   0.531E-02    0.238E-01
 Begin Solvation calculations
  rms_SCF =   0.267602223126209      tol =   2.676022231262087E-002
 Begin minimization
 Creating dielectric and ionic cavities
  area:      151.223155080125     
  volume:    771.678912430355     
  Acav:     7.939215641706572E-002
  Solving linear dielectric/ionic screening model
        iter                  A_solv                     rms
   LPB:       -0.289289277653170E+00   0.749869638948724E+00
   LPB:    0  -0.289281350848043E+00   0.759530171438798E+00   0.688783E-03   0.000000E+00   0.334167E+02   0.230169E-01
   LPB:    1  -0.283198557221596E+00   0.151651375610158E+00   0.142506E-01   0.000000E+00   0.100379E+03   0.103957E-17
   LPB:    2  -0.282659071851461E+00   0.801168646614843E-01   0.141541E-01   0.892952E-01   0.192759E+03   0.432383E-15
   LPB:    3  -0.282549143367821E+00   0.419795892441301E-01   0.172510E-01   0.167185E+00   0.101708E+03   0.420310E-15
   LPB:    4  -0.282498217118395E+00   0.463686475138657E-01   0.223393E-01   0.357748E+00   0.241954E+03   0.170541E-15
   LPB:    5  -0.282457775241132E+00   0.279320298623493E-01   0.255509E-01   0.694308E+00   0.669943E+02   0.669353E-16
   LPB:    6  -0.282415901388080E+00   0.102173373047238E-01   0.354791E-01   0.745667E+00   0.130260E+03   0.221895E-16
  Finished solving LPB equations
  A_corr:   -0.203023744971014     
 End minimization
 Ecorr=   1956.40819380880     
 A_corr= -0.203023744971014     
 Ecorr_band=  -1956.61121755377     
 End Solvation calculations
RMM:  26    -0.181766855316E+03   -0.82686E-03   -0.46774E-04  8482   0.389E-02    0.294E-01
 Begin Solvation calculations
  rms_SCF =   0.267602223126209      tol =   2.676022231262087E-002
 Begin minimization
 Creating dielectric and ionic cavities
  area:      151.386235518710     
  volume:    771.475808204897     
  Acav:     7.947777364732299E-002
  Solving linear dielectric/ionic screening model
        iter                  A_solv                     rms
   LPB:       -0.288692436649895E+00   0.598526874561197E+00
   LPB:    0  -0.288692414350978E+00   0.598039931139400E+00  -0.365269E-04   0.000000E+00   0.334262E+02  -0.122096E-02
   LPB:    1  -0.285343425886932E+00   0.113890218241941E+00   0.141123E-01   0.000000E+00   0.916850E+02  -0.858371E-19
   LPB:    2  -0.285052820429000E+00   0.651050111788891E-01   0.135986E-01   0.900519E-01   0.226335E+03  -0.801719E-15
   LPB:    3  -0.284993357130732E+00   0.288384603873339E-01   0.161687E-01   0.172094E+00   0.101951E+03  -0.108341E-14
   LPB:    4  -0.284964047047205E+00   0.334248001999881E-01   0.240158E-01   0.331853E+00   0.210092E+03  -0.127211E-14
   LPB:    5  -0.284937409121361E+00   0.230763664419174E-01   0.291415E-01   0.748978E+00   0.631270E+02  -0.136493E-14
  Finished solving LPB equations
  A_corr:   -0.205459635474038     
 End minimization
 Ecorr=   1955.64438210015     
 A_corr= -0.205459635474038     
 Ecorr_band=  -1955.84984173563     
 End Solvation calculations
RMM:  27    -0.181767511560E+03   -0.65624E-03   -0.25103E-04  6677   0.298E-02    0.326E-01
 Begin Solvation calculations
  rms_SCF =   0.267602223126209      tol =   2.676022231262087E-002
 Begin minimization
 Creating dielectric and ionic cavities
  area:      151.496477726308     
  volume:    771.351757663353     
  Acav:     7.953565080631148E-002
  Solving linear dielectric/ionic screening model
        iter                  A_solv                     rms
   LPB:       -0.288862654432858E+00   0.497323397849609E+00
   LPB:    0  -0.288861848944624E+00   0.494076975624994E+00  -0.219514E-03   0.000000E+00   0.334320E+02  -0.733882E-02
   LPB:    1  -0.287025095065447E+00   0.104089785653696E+00   0.136758E-01   0.000000E+00   0.777502E+02  -0.338849E-18
   LPB:    2  -0.286851632610814E+00   0.481550585267076E-01   0.124612E-01   0.103645E+00   0.231666E+03   0.309135E-15
   LPB:    3  -0.286811016931459E+00   0.240637067234152E-01   0.181260E-01   0.160971E+00   0.108065E+03   0.522837E-15
   LPB:    4  -0.286783717655909E+00   0.305983823789201E-01   0.280213E-01   0.434781E+00   0.147968E+03   0.630080E-15
   LPB:    5  -0.286756899325818E+00   0.202326219455600E-01   0.306578E-01   0.897898E+00   0.617206E+02   0.710449E-15
  Finished solving LPB equations
  A_corr:   -0.207221248519507     
 End minimization
 Ecorr=   1954.99765375426     
 A_corr= -0.207221248519507     
 Ecorr_band=  -1955.20487500278     
 End Solvation calculations
RMM:  28    -0.181767888864E+03   -0.37730E-03   -0.12914E-04  6280   0.201E-02    0.317E-01
 Begin Solvation calculations
  rms_SCF =   0.267602223126209      tol =   2.676022231262087E-002
 Begin minimization
 Creating dielectric and ionic cavities
  area:      151.705476792698     
  volume:    771.158646742847     
  Acav:     7.964537531616650E-002
  Solving linear dielectric/ionic screening model
        iter                  A_solv                     rms
   LPB:       -0.299917237366282E+00   0.111812474566311E+01
   LPB:    0  -0.299909328429059E+00   0.110945159469981E+01  -0.687755E-03   0.000000E+00   0.334411E+02  -0.229993E-01
   LPB:    1  -0.291840618160184E+00   0.239645996975531E+00   0.133006E-01   0.000000E+00   0.724124E+02   0.309562E-18
   LPB:    2  -0.291025805343898E+00   0.950068731219177E-01   0.119535E-01   0.112365E+00   0.254696E+03   0.938081E-15
   LPB:    3  -0.290860722521685E+00   0.364682446404995E-01   0.170476E-01   0.142061E+00   0.133060E+03   0.148479E-14
   LPB:    4  -0.290794790120574E+00   0.411151359799005E-01   0.238147E-01   0.285901E+00   0.179537E+03   0.152364E-14
   LPB:    5  -0.290752275370077E+00   0.242083340907223E-01   0.265138E-01   0.579180E+00   0.747525E+02   0.143265E-14
  Finished solving LPB equations
  A_corr:   -0.211106900053911     
 End minimization
 Ecorr=   1953.79182724927     
 A_corr= -0.211106900053911     
 Ecorr_band=  -1954.00293414933     
 End Solvation calculations
RMM:  29    -0.181768027802E+03   -0.13894E-03   -0.34012E-04  7470   0.263E-02    0.146E-01
 Begin Solvation calculations
  rms_SCF =   0.129907839595881      tol =   1.299078395958810E-002
 Begin minimization
 Creating dielectric and ionic cavities
  area:      151.787115731950     
  volume:    771.163181196629     
  Acav:     7.968823575927364E-002
  Solving linear dielectric/ionic screening model
        iter                  A_solv                     rms
   LPB:       -0.295275197409896E+00   0.594550522945477E+00
   LPB:    0  -0.295262003593783E+00   0.582297949345709E+00  -0.888303E-03   0.000000E+00   0.334409E+02  -0.297057E-01
   LPB:    1  -0.293028201254905E+00   0.118737334558615E+00   0.133505E-01   0.000000E+00   0.721675E+02  -0.664386E-18
   LPB:    2  -0.292819681460164E+00   0.528152163247616E-01   0.120624E-01   0.103316E+00   0.250047E+03   0.447275E-15
   LPB:    3  -0.292767924746538E+00   0.233984249373776E-01   0.186619E-01   0.160434E+00   0.109514E+03   0.377921E-15
   LPB:    4  -0.292730242791805E+00   0.347112799111016E-01   0.315857E-01   0.430162E+00   0.128738E+03   0.356647E-15
   LPB:    5  -0.292695423848189E+00   0.235370278654613E-01   0.294549E-01   0.990868E+00   0.621831E+02   0.444097E-15
   LPB:    6  -0.292667223363413E+00   0.878042855612878E-02   0.319521E-01   0.746619E+00   0.137105E+03   0.455233E-16
  Finished solving LPB equations
  A_corr:   -0.212978987604139     
 End minimization
 Ecorr=   1953.18146132875     
 A_corr= -0.212978987604139     
 Ecorr_band=  -1953.39444031635     
 End Solvation calculations
RMM:  30    -0.181768667328E+03   -0.63953E-03   -0.14792E-04  6319   0.227E-02    0.227E-01
 Begin Solvation calculations
  rms_SCF =   0.129907839595881      tol =   1.299078395958810E-002
 Begin minimization
 Creating dielectric and ionic cavities
  area:      151.925601742611     
  volume:    771.195787067078     
  Acav:     7.976094091487071E-002
  Solving linear dielectric/ionic screening model
        iter                  A_solv                     rms
   LPB:       -0.306174091052946E+00   0.124634712765529E+01
   LPB:    0  -0.306119536120951E+00   0.122719720405801E+01  -0.180635E-02   0.000000E+00   0.334394E+02  -0.604033E-01
   LPB:    1  -0.297745459762211E+00   0.255768775179485E+00   0.127352E-01   0.000000E+00   0.677224E+02   0.165582E-17
   LPB:    2  -0.296872511545206E+00   0.884040362327546E-01   0.116355E-01   0.114096E+00   0.268808E+03   0.129273E-14
   LPB:    3  -0.296712169844143E+00   0.253837422192649E-01   0.167995E-01   0.127218E+00   0.151176E+03   0.145641E-14
   LPB:    4  -0.296665400210158E+00   0.308353323323753E-01   0.239464E-01   0.204631E+00   0.194328E+03   0.153155E-14
   LPB:    5  -0.296639540518701E+00   0.218058989161752E-01   0.259966E-01   0.509311E+00   0.801896E+02   0.150749E-14
   LPB:    6  -0.296615699499069E+00   0.996592871806077E-02   0.340167E-01   0.704574E+00   0.111281E+03   0.193050E-14
  Finished solving LPB equations
  A_corr:   -0.216854758584198     
 End minimization
 Ecorr=   1952.29923486220     
 A_corr= -0.216854758584198     
 Ecorr_band=  -1952.51608962078     
 End Solvation calculations
RMM:  31    -0.181769078279E+03   -0.41095E-03   -0.31306E-04  7206   0.252E-02    0.123E-01
 Begin Solvation calculations
  rms_SCF =   0.129907839595881      tol =   1.299078395958810E-002
 Begin minimization
 Creating dielectric and ionic cavities
  area:      151.981742047660     
  volume:    771.253636860002     
  Acav:     7.979041457502152E-002
  Solving linear dielectric/ionic screening model
        iter                  A_solv                     rms
   LPB:       -0.301295518411647E+00   0.675347167171963E+00
   LPB:    0  -0.301269417844951E+00   0.662536111556422E+00  -0.124948E-02   0.000000E+00   0.334366E+02  -0.417784E-01
   LPB:    1  -0.298984620711307E+00   0.134674028943798E+00   0.124587E-01   0.000000E+00   0.663778E+02   0.328575E-17
   LPB:    2  -0.298744094929803E+00   0.454867110910689E-01   0.115789E-01   0.113271E+00   0.265853E+03  -0.163184E-15
   LPB:    3  -0.298699097680434E+00   0.125355726722193E-01   0.174495E-01   0.124139E+00   0.142138E+03  -0.161608E-15
   LPB:    4  -0.298680104255594E+00   0.204756998735749E-01   0.310784E-01   0.236997E+00   0.150914E+03  -0.729340E-16
   LPB:    5  -0.298662630153434E+00   0.210397361521856E-01   0.331689E-01   0.862023E+00   0.662544E+02  -0.249761E-16
   LPB:    6  -0.298644507224625E+00   0.961185828811596E-02   0.324434E-01   0.106032E+01   0.808077E+02  -0.573731E-16
  Finished solving LPB equations
  A_corr:   -0.218854092649604     
 End minimization
 Ecorr=   1951.87501061329     
 A_corr= -0.218854092649604     
 Ecorr_band=  -1952.09386470594     
 End Solvation calculations
RMM:  32    -0.181769317323E+03   -0.23904E-03   -0.14498E-04  6457   0.190E-02    0.123E-01
 Begin Solvation calculations
  rms_SCF =   0.129907839595881      tol =   1.299078395958810E-002
 Begin minimization
 Creating dielectric and ionic cavities
  area:      152.014322758814     
  volume:    771.322573260499     
  Acav:     7.980751944837730E-002
  Solving linear dielectric/ionic screening model
        iter                  A_solv                     rms
   LPB:       -0.302803373793737E+00   0.690217800851576E+00
   LPB:    0  -0.302764989907912E+00   0.675106933741732E+00  -0.151530E-02   0.000000E+00   0.334334E+02  -0.506617E-01
   LPB:    1  -0.300761595651845E+00   0.128339036768348E+00   0.116533E-01   0.000000E+00   0.641146E+02  -0.276695E-17
   LPB:    2  -0.300534759167589E+00   0.352307910388327E-01   0.115720E-01   0.114021E+00   0.261808E+03  -0.362148E-15
   LPB:    3  -0.300501385924992E+00   0.870942894636934E-02   0.173133E-01   0.983364E-01   0.163588E+03  -0.399092E-15
   LPB:    4  -0.300491658458589E+00   0.125045784210901E-01   0.285170E-01   0.176962E+00   0.164378E+03  -0.363359E-15
  Finished solving LPB equations
  A_corr:   -0.220684139010212     
 End minimization
 Ecorr=   1951.56279425375     
 A_corr= -0.220684139010212     
 Ecorr_band=  -1951.78347839276     
 End Solvation calculations
RMM:  33    -0.181769370656E+03   -0.53334E-04   -0.14429E-04  6484   0.167E-02
 Begin Solvation calculations
  rms_SCF =   0.129907839595881      tol =   1.299078395958810E-002
 Begin minimization
 Creating dielectric and ionic cavities
  area:      152.024370469681     
  volume:    771.379777693142     
  Acav:     7.981279449658232E-002
  Solving linear dielectric/ionic screening model
        iter                  A_solv                     rms
   LPB:       -0.302431658681026E+00   0.438895415308881E+00
   LPB:    0  -0.302411608939410E+00   0.428605219715861E+00  -0.109521E-02   0.000000E+00   0.334307E+02  -0.366136E-01
   LPB:    1  -0.301668321074989E+00   0.767110748295677E-01   0.112262E-01   0.000000E+00   0.636943E+02   0.286952E-17
   LPB:    2  -0.301585244345265E+00   0.220945611537274E-01   0.116437E-01   0.107762E+00   0.242068E+03  -0.590100E-16
   LPB:    3  -0.301568781503487E+00   0.627600765955567E-02   0.217561E-01   0.106056E+00   0.114483E+03  -0.692398E-16
   LPB:    4  -0.301557456516073E+00   0.101005566706123E-01   0.400196E-01   0.373973E+00   0.113975E+03  -0.961420E-16
  Finished solving LPB equations
  A_corr:   -0.221744662019490     
 End minimization
 Ecorr=   1951.34299978193     
 A_corr= -0.221744662019490     
 Ecorr_band=  -1951.56474444395     
 End Solvation calculations
   1 F= -.18176937E+03 E0= -.18175654E+03  d E =-.181769E+03
quench:  g(F)=  0.000E+00 g(S)=  0.000E+00 dE (1.order)= 0.000E+00
 bond charge predicted
       N       E                     dE             d eps       ncg     rms          rms(c)
 Begin Solvation calculations
  rms_SCF =   0.129907839595881      tol =   1.299078395958810E-002
 Begin minimization
 Creating dielectric and ionic cavities
  area:      152.081688594792     
  volume:    771.409515358600     
  Acav:     7.984288651226557E-002
  Solving linear dielectric/ionic screening model
        iter                  A_solv                     rms
   LPB:       -0.307322658071107E+00   0.116446430053003E-01
   LPB:    0  -0.307322657952044E+00   0.115593683344240E-01   0.266895E-05   0.000000E+00   0.334293E+02   0.892212E-04
   LPB:    1  -0.302351383392456E+00   0.480671058173443E-02   0.155389E-01   0.000000E+00   0.251890E+06  -0.404220E-20
   LPB:    2  -0.301849381456609E+00   0.880184418410947E-02   0.277420E-01   0.565616E-01   0.532012E+05   0.141800E-16
   LPB:    3  -0.301681627087959E+00   0.169218236528670E-01   0.327800E-01   0.282811E+00   0.384741E+04   0.166918E-17
   LPB:    4  -0.301610757638078E+00   0.358659051244622E-01   0.319821E-01   0.432999E+00   0.497602E+03   0.604582E-16
   LPB:    5  -0.301578937803062E+00   0.314061015170069E-01   0.215079E-01   0.667649E+00   0.149708E+03   0.736743E-17
   LPB:    6  -0.301554146287358E+00   0.221435938814605E-01   0.247474E-01   0.677133E+00   0.381800E+03   0.849182E-16
   LPB:    7  -0.301539826861679E+00   0.224913923299885E-01   0.245399E-01   0.582477E+00   0.145153E+03   0.952786E-16
   LPB:    8  -0.301528277148309E+00   0.883921194323826E-02   0.240045E-01   0.824566E+00   0.247385E+03   0.116574E-15
  Finished solving LPB equations
  A_corr:   -0.221685390636043     
 End minimization
 Ecorr=   1951.37836071832     
 A_corr= -0.221685390636043     
 Ecorr_band=  -1951.60004610895     
 End Solvation calculations
DAV:   1    -0.181772691408E+03   -0.33741E-02   -0.40819E-01 11505   0.108E+00    0.342E-01
 Begin Solvation calculations
  rms_SCF =   0.129907839595881      tol =   1.299078395958810E-002
 Begin minimization
 Creating dielectric and ionic cavities
  area:      151.939749183016     
  volume:    771.316614773687     
  Acav:     7.976836832108349E-002
  Solving linear dielectric/ionic screening model
        iter                  A_solv                     rms
   LPB:       -0.341418742185203E+00   0.340140130426561E+01
   LPB:    0  -0.341013334868828E+00   0.337330195864783E+01  -0.492457E-02   0.000000E+00   0.334337E+02  -0.164647E+00
   LPB:    1  -0.311168114572969E+00   0.353046097296643E+00   0.864362E-02   0.000000E+00   0.699582E+02  -0.119091E-16
   LPB:    2  -0.308107794649517E+00   0.559309604981058E-01   0.159550E-01   0.555510E-01   0.124309E+03  -0.347526E-15
   LPB:    3  -0.307777023558444E+00   0.210421892136619E-01   0.211323E-01   0.816036E-01   0.252808E+03   0.180827E-15
   LPB:    4  -0.307678472923069E+00   0.122744492658705E-01   0.272210E-01   0.231300E+00   0.343890E+03   0.339335E-16
  Finished solving LPB equations
  A_corr:   -0.227910104601986     
 End minimization
 Ecorr=   1950.41295628674     
 A_corr= -0.227910104601986     
 Ecorr_band=  -1950.64086639134     
 End Solvation calculations
RMM:   2    -0.181956931278E+03   -0.18424E+00   -0.43458E-02 11186   0.386E-01    0.516E+00
 Begin Solvation calculations
  rms_SCF =   0.129907839595881      tol =   1.299078395958810E-002
 Begin minimization
 Creating dielectric and ionic cavities
  area:      152.123999562287     
  volume:    771.348496887872     
  Acav:     7.986509977020070E-002
  Solving linear dielectric/ionic screening model
        iter                  A_solv                     rms
   LPB:       -0.330863005045512E+00   0.306348398441573E+01
   LPB:    0  -0.330817115063892E+00   0.305937793225885E+01   0.165688E-02   0.000000E+00   0.334322E+02   0.553932E-01
   LPB:    1  -0.306525172143853E+00   0.290072942385488E+00   0.851834E-02   0.000000E+00   0.714663E+02   0.971664E-18
   LPB:    2  -0.304436003646093E+00   0.446309359790238E-01   0.156389E-01   0.468447E-01   0.133553E+03  -0.504059E-16
   LPB:    3  -0.304233363276187E+00   0.136483696255995E-01   0.199255E-01   0.761287E-01   0.285027E+03  -0.385219E-15
   LPB:    4  -0.304194023107168E+00   0.558720699564586E-02   0.241506E-01   0.160174E+00   0.693540E+03  -0.619147E-15
  Finished solving LPB equations
  A_corr:   -0.224328923336967     
 End minimization
 Ecorr=   1951.05650227005     
 A_corr= -0.224328923336967     
 Ecorr_band=  -1951.28083119339     
 End Solvation calculations
RMM:   3    -0.181777723091E+03    0.17921E+00   -0.17000E-02 11165   0.241E-01    0.287E-01
 Begin Solvation calculations
  rms_SCF =   7.244887455548951E-002 tol =   7.244887455548951E-003
 Begin minimization
 Creating dielectric and ionic cavities
  area:      152.025557336015     
  volume:    771.331439083769     
  Acav:     7.981341760140788E-002
  Solving linear dielectric/ionic screening model
        iter                  A_solv                     rms
   LPB:       -0.304708460595028E+00   0.128464026323158E+00
   LPB:    0  -0.304683405215079E+00   0.849089422173418E-01  -0.122427E-02   0.000000E+00   0.334330E+02  -0.409311E-01
   LPB:    1  -0.304632526702756E+00   0.271364326309765E-01   0.113309E-01   0.000000E+00   0.966582E+02  -0.312864E-17
   LPB:    2  -0.304621835330380E+00   0.936738582861029E-02   0.153604E-01   0.155010E+00   0.190702E+03   0.183123E-15
   LPB:    3  -0.304613683004364E+00   0.689612166061055E-02   0.347011E-01   0.337526E+00   0.551884E+03   0.174414E-15
   LPB:    4  -0.304609789105022E+00   0.834620247843787E-02   0.264087E-01   0.627623E+00   0.199384E+03   0.237969E-15
   LPB:    5  -0.304607265049752E+00   0.635173563076815E-02   0.262959E-01   0.650990E+00   0.196895E+03   0.205267E-15
  Finished solving LPB equations
  A_corr:   -0.224793847448344     
 End minimization
 Ecorr=   1951.09174823117     
 A_corr= -0.224793847448344     
 Ecorr_band=  -1951.31654207861     
 End Solvation calculations
RMM:   4    -0.181774189733E+03    0.35334E-02   -0.26808E-03 11131   0.105E-01    0.280E-01
 Begin Solvation calculations
  rms_SCF =   7.244887455548951E-002 tol =   7.244887455548951E-003
 Begin minimization
 Creating dielectric and ionic cavities
  area:      152.004263299132     
  volume:    771.366356072440     
  Acav:     7.980223823204410E-002
  Solving linear dielectric/ionic screening model
        iter                  A_solv                     rms
   LPB:       -0.305817287553857E+00   0.129603607661011E+00
   LPB:    0  -0.305809880061366E+00   0.110429379752259E+00  -0.665692E-03   0.000000E+00   0.334314E+02  -0.222550E-01
   LPB:    1  -0.305710591108935E+00   0.427419795864974E-01   0.139975E-01   0.000000E+00   0.736039E+02  -0.284256E-18
   LPB:    2  -0.305694050555640E+00   0.906409551377910E-02   0.119153E-01   0.195702E+00   0.176068E+03  -0.132325E-15
   LPB:    3  -0.305689436957965E+00   0.403776949354851E-02   0.249118E-01   0.133411E+00   0.238600E+03  -0.207954E-15
   LPB:    4  -0.305687001968629E+00   0.338962283937210E-02   0.307596E-01   0.427446E+00   0.169876E+03  -0.226699E-15
  Finished solving LPB equations
  A_corr:   -0.225884763736585     
 End minimization
 Ecorr=   1950.68790166320     
 A_corr= -0.225884763736585     
 Ecorr_band=  -1950.91378642694     
 End Solvation calculations
RMM:   5    -0.181773813831E+03    0.37590E-03   -0.79397E-04 10468   0.535E-02    0.208E-01
 Begin Solvation calculations
  rms_SCF =   7.244887455548951E-002 tol =   7.244887455548951E-003
 Begin minimization
 Creating dielectric and ionic cavities
  area:      151.995547750187     
  volume:    771.356240609760     
  Acav:     7.979766256884828E-002
  Solving linear dielectric/ionic screening model
        iter                  A_solv                     rms
   LPB:       -0.307143712485136E+00   0.214185735062348E+00
   LPB:    0  -0.307079745364257E+00   0.139443070180175E+00  -0.195620E-02   0.000000E+00   0.334318E+02  -0.653994E-01
   LPB:    1  -0.306958180115119E+00   0.436079690562827E-01   0.128278E-01   0.000000E+00   0.634780E+02   0.144972E-17
   LPB:    2  -0.306937268370118E+00   0.988963797937783E-02   0.123023E-01   0.179368E+00   0.187142E+03  -0.312164E-15
   LPB:    3  -0.306932313511504E+00   0.880502726442644E-02   0.247075E-01   0.117978E+00   0.208285E+03  -0.367289E-15
   LPB:    4  -0.306929434978759E+00   0.648929929085549E-02   0.266762E-01   0.538079E+00   0.776664E+02  -0.379074E-15
  Finished solving LPB equations
  A_corr:   -0.227131772409911     
 End minimization
 Ecorr=   1950.56082133322     
 A_corr= -0.227131772409911     
 Ecorr_band=  -1950.78795310563     
 End Solvation calculations
RMM:   6    -0.181773908979E+03   -0.95148E-04   -0.41612E-04  8131   0.405E-02
 Begin Solvation calculations
  rms_SCF =   7.244887455548951E-002 tol =   7.244887455548951E-003
 Begin minimization
 Creating dielectric and ionic cavities
  area:      151.988375903423     
  volume:    771.398324430720     
  Acav:     7.979389734929704E-002
  Solving linear dielectric/ionic screening model
        iter                  A_solv                     rms
   LPB:       -0.308804501864531E+00   0.192825057996629E+00
   LPB:    0  -0.308779007492445E+00   0.155005115058427E+00  -0.123501E-02   0.000000E+00   0.334299E+02  -0.412862E-01
   LPB:    1  -0.308577283313214E+00   0.582583128679069E-01   0.138384E-01   0.000000E+00   0.773551E+02  -0.141020E-17
   LPB:    2  -0.308547729386711E+00   0.131177743083037E-01   0.116626E-01   0.173839E+00   0.162485E+03  -0.642513E-15
   LPB:    3  -0.308538923679014E+00   0.514860261730615E-02   0.252807E-01   0.137454E+00   0.194049E+03  -0.746374E-15
   LPB:    4  -0.308534056866199E+00   0.300408279502747E-02   0.316877E-01   0.440938E+00   0.176119E+03  -0.781669E-15
  Finished solving LPB equations
  A_corr:   -0.228740159516902     
 End minimization
 Ecorr=   1950.06668354166     
 A_corr= -0.228740159516902     
 Ecorr_band=  -1950.29542370118     
 End Solvation calculations
   2 F= -.18177391E+03 E0= -.18176109E+03  d E =-.453832E-02
quench:  g(F)=  0.000E+00 g(S)=  0.000E+00 dE (1.order)= 0.000E+00
 bond charge predicted
       N       E                     dE             d eps       ncg     rms          rms(c)
 Begin Solvation calculations
  rms_SCF =   7.244887455548951E-002 tol =   7.244887455548951E-003
 Begin minimization
 Creating dielectric and ionic cavities
  area:      151.994358580549     
  volume:    771.387447320082     
  Acav:     7.979703825478833E-002
  Solving linear dielectric/ionic screening model
        iter                  A_solv                     rms
   LPB:       -0.310261265605252E+00   0.505383729262008E-02
   LPB:    0  -0.310261265556662E+00   0.508395834603914E-02  -0.170497E-05   0.000000E+00   0.334304E+02  -0.569979E-04
   LPB:    1  -0.308819185391487E+00   0.264626896267578E-02   0.156499E-01   0.000000E+00   0.412135E+06   0.319842E-20
   LPB:    2  -0.308673944264422E+00   0.325232061116224E-02   0.272093E-01   0.579289E-01   0.448061E+05  -0.207838E-17
   LPB:    3  -0.308625901796720E+00   0.749822056815371E-02   0.328019E-01   0.274381E+00   0.946030E+04   0.185535E-17
   LPB:    4  -0.308605286913573E+00   0.159302392637366E-01   0.334463E-01   0.420829E+00   0.579999E+03   0.255531E-16
   LPB:    5  -0.308596413370982E+00   0.188656266279077E-01   0.230922E-01   0.623448E+00   0.191298E+03   0.626049E-16
   LPB:    6  -0.308589718067980E+00   0.108874429676496E-01   0.224940E-01   0.774587E+00   0.254167E+03   0.924913E-16
   LPB:    7  -0.308585408421534E+00   0.115163931076962E-01   0.268346E-01   0.539565E+00   0.160956E+03   0.136173E-15
   LPB:    8  -0.308582414380904E+00   0.590875186076111E-02   0.230627E-01   0.808351E+00   0.243937E+03   0.244362E-15
  Finished solving LPB equations
  A_corr:   -0.228785376126116     
 End minimization
 Ecorr=   1949.95435579717     
 A_corr= -0.228785376126116     
 Ecorr_band=  -1950.18314117330     
 End Solvation calculations
DAV:   1    -0.181774652693E+03   -0.83886E-03   -0.17268E-01 11379   0.805E-01    0.164E-01
 Begin Solvation calculations
  rms_SCF =   7.244887455548951E-002 tol =   7.244887455548951E-003
 Begin minimization
 Creating dielectric and ionic cavities
  area:      152.009845107101     
  volume:    771.297204494097     
  Acav:     7.980516868122776E-002
  Solving linear dielectric/ionic screening model
        iter                  A_solv                     rms
   LPB:       -0.312904182266492E+00   0.683454143771650E+00
   LPB:    0  -0.312508101899545E+00   0.552328120193253E+00  -0.486753E-02   0.000000E+00   0.334346E+02  -0.162744E+00
   LPB:    1  -0.311552841898434E+00   0.855297556067269E-01   0.958978E-02   0.000000E+00   0.632950E+02   0.264516E-18
   LPB:    2  -0.311390400882762E+00   0.192356946747563E-01   0.154654E-01   0.105444E+00   0.119996E+03  -0.136830E-14
   LPB:    3  -0.311370876925219E+00   0.156287879695696E-01   0.195215E-01   0.952185E-01   0.258573E+03  -0.153349E-14
   LPB:    4  -0.311363321668272E+00   0.863122738800898E-02   0.221658E-01   0.340809E+00   0.108652E+03  -0.158265E-14
   LPB:    5  -0.311359556199403E+00   0.503264211205859E-02   0.263304E-01   0.419561E+00   0.253401E+03  -0.154639E-14
  Finished solving LPB equations
  A_corr:   -0.231554387518176     
 End minimization
 Ecorr=   1950.05208321312     
 A_corr= -0.231554387518176     
 Ecorr_band=  -1950.28363760064     
 End Solvation calculations
RMM:   2    -0.181782585586E+03   -0.79329E-02   -0.84846E-03 11155   0.170E-01    0.995E-01
 Begin Solvation calculations
  rms_SCF =   7.244887455548951E-002 tol =   7.244887455548951E-003
 Begin minimization
 Creating dielectric and ionic cavities
  area:      152.027006377452     
  volume:    771.339320245167     
  Acav:     7.981417834816207E-002
  Solving linear dielectric/ionic screening model
        iter                  A_solv                     rms
   LPB:       -0.312186622709389E+00   0.765371610936470E+00
   LPB:    0  -0.312157045648120E+00   0.758330702862362E+00   0.133017E-02   0.000000E+00   0.334326E+02   0.444711E-01
   LPB:    1  -0.310664982669569E+00   0.726190456106006E-01   0.852524E-02   0.000000E+00   0.712380E+02  -0.335499E-17
   LPB:    2  -0.310535421944454E+00   0.103434508126675E-01   0.156748E-01   0.472271E-01   0.131042E+03  -0.554829E-16
   LPB:    3  -0.310520915664072E+00   0.356885090524564E-02   0.213323E-01   0.822711E-01   0.319680E+03  -0.631090E-16
   LPB:    4  -0.310517173679354E+00   0.336137470855484E-02   0.263766E-01   0.208624E+00   0.646890E+03  -0.520813E-16
  Finished solving LPB equations
  A_corr:   -0.230702995331192     
 End minimization
 Ecorr=   1949.94413946304     
 A_corr= -0.230702995331192     
 Ecorr_band=  -1950.17484245837     
 End Solvation calculations
RMM:   3    -0.181776279258E+03    0.63063E-02   -0.13638E-03 11024   0.696E-02    0.430E-01
 Begin Solvation calculations
  rms_SCF =   7.244887455548951E-002 tol =   7.244887455548951E-003
 Begin minimization
 Creating dielectric and ionic cavities
  area:      152.019686975797     
  volume:    771.392608612222     
  Acav:     7.981033566229366E-002
  Solving linear dielectric/ionic screening model
        iter                  A_solv                     rms
   LPB:       -0.310970907850350E+00   0.231619384444861E+00
   LPB:    0  -0.310952202357724E+00   0.221405047753354E+00   0.105787E-02   0.000000E+00   0.334301E+02   0.353646E-01
   LPB:    1  -0.310820069535099E+00   0.218280181106265E-01   0.864500E-02   0.000000E+00   0.720298E+02  -0.307566E-17
   LPB:    2  -0.310807532365907E+00   0.699913118280574E-02   0.156944E-01   0.522647E-01   0.146622E+03   0.714924E-17
   LPB:    3  -0.310805922441197E+00   0.328960383740013E-02   0.193484E-01   0.104161E+00   0.956082E+02   0.148005E-16
   LPB:    4  -0.310805258222777E+00   0.365510318574874E-02   0.284420E-01   0.280666E+00   0.364299E+03   0.136617E-16
  Finished solving LPB equations
  A_corr:   -0.230994922560483     
 End minimization
 Ecorr=   1949.48646514233     
 A_corr= -0.230994922560483     
 Ecorr_band=  -1949.71746006490     
 End Solvation calculations
RMM:   4    -0.181775115020E+03    0.11642E-02   -0.86095E-04 10839   0.554E-02    0.151E-01
 Begin Solvation calculations
  rms_SCF =   7.244887455548951E-002 tol =   7.244887455548951E-003
 Begin minimization
 Creating dielectric and ionic cavities
  area:      152.036826138206     
  volume:    771.393598612339     
  Acav:     7.981933372255831E-002
  Solving linear dielectric/ionic screening model
        iter                  A_solv                     rms
   LPB:       -0.311649731153659E+00   0.162795984009270E+00
   LPB:    0  -0.311610641768822E+00   0.957719966179569E-01  -0.152924E-02   0.000000E+00   0.334301E+02  -0.511226E-01
   LPB:    1  -0.311561106900565E+00   0.270653722965959E-01   0.106567E-01   0.000000E+00   0.715775E+02  -0.107913E-17
   LPB:    2  -0.311554368924376E+00   0.527864340743959E-02   0.132255E-01   0.109604E+00   0.977393E+02  -0.100672E-16
   LPB:    3  -0.311552754727310E+00   0.564588752939137E-02   0.221788E-01   0.142858E+00   0.372116E+03   0.209705E-16
   LPB:    4  -0.311551794768720E+00   0.356863966540084E-02   0.252709E-01   0.521929E+00   0.646077E+02   0.200746E-16
  Finished solving LPB equations
  A_corr:   -0.231732461046161     
 End minimization
 Ecorr=   1949.39270678359     
 A_corr= -0.231732461046161     
 Ecorr_band=  -1949.62443924464     
 End Solvation calculations
RMM:   5    -0.181775228609E+03   -0.11359E-03   -0.30943E-04  6950   0.348E-02    0.189E-01
 Begin Solvation calculations
  rms_SCF =   7.244887455548951E-002 tol =   7.244887455548951E-003
 Begin minimization
 Creating dielectric and ionic cavities
  area:      152.042925997198     
  volume:    771.419322063393     
  Acav:     7.982253614852912E-002
  Solving linear dielectric/ionic screening model
        iter                  A_solv                     rms
   LPB:       -0.312149661289771E+00   0.724791841148640E-01
   LPB:    0  -0.312148321270457E+00   0.657661997190265E-01  -0.283145E-03   0.000000E+00   0.334289E+02  -0.946524E-02
   LPB:    1  -0.312124702982427E+00   0.198796158876590E-01   0.122716E-01   0.000000E+00   0.660712E+02   0.104074E-18
   LPB:    2  -0.312120298928549E+00   0.401585995555207E-02   0.127602E-01   0.179328E+00   0.140278E+03   0.100731E-15
   LPB:    3  -0.312119068356566E+00   0.201538570931736E-02   0.273641E-01   0.130296E+00   0.160975E+03   0.146556E-15
   LPB:    4  -0.312118065318695E+00   0.126199133452792E-02   0.387386E-01   0.575769E+00   0.113612E+03   0.165362E-15
  Finished solving LPB equations
  A_corr:   -0.232295529170166     
 End minimization
 Ecorr=   1949.11678078390     
 A_corr= -0.232295529170166     
 Ecorr_band=  -1949.34907631307     
 End Solvation calculations
RMM:   6    -0.181775084084E+03    0.14453E-03   -0.15582E-04  6123   0.281E-02    0.134E-01
 Begin Solvation calculations
  rms_SCF =   7.244887455548951E-002 tol =   7.244887455548951E-003
 Begin minimization
 Creating dielectric and ionic cavities
  area:      152.060627207668     
  volume:    771.439340440457     
  Acav:     7.983182928402556E-002
  Solving linear dielectric/ionic screening model
        iter                  A_solv                     rms
   LPB:       -0.313068650997494E+00   0.123032385256900E+00
   LPB:    0  -0.313051941788769E+00   0.813911061996961E-01  -0.999858E-03   0.000000E+00   0.334279E+02  -0.334232E-01
   LPB:    1  -0.313003452051912E+00   0.230849377210427E-01   0.139057E-01   0.000000E+00   0.575665E+02   0.157209E-17
   LPB:    2  -0.312997530315122E+00   0.760463294375472E-02   0.117919E-01   0.144015E+00   0.211163E+03  -0.183436E-15
   LPB:    3  -0.312995986530896E+00   0.526070980556248E-02   0.210746E-01   0.145869E+00   0.156175E+03  -0.207642E-15
   LPB:    4  -0.312995011900846E+00   0.388797157313285E-02   0.288476E-01   0.461215E+00   0.590526E+02  -0.214433E-15
  Finished solving LPB equations
  A_corr:   -0.233163182616820     
 End minimization
 Ecorr=   1948.86056262377     
 A_corr= -0.233163182616820     
 Ecorr_band=  -1949.09372580638     
 End Solvation calculations
RMM:   7    -0.181775051347E+03    0.32737E-04   -0.10164E-04  6083   0.206E-02
 Begin Solvation calculations
  rms_SCF =   7.244887455548951E-002 tol =   7.244887455548951E-003
 Begin minimization
 Creating dielectric and ionic cavities
  area:      152.081459542847     
  volume:    771.465619833768     
  Acav:     7.984276625999490E-002
  Solving linear dielectric/ionic screening model
        iter                  A_solv                     rms
   LPB:       -0.314043654338568E+00   0.115746016760590E+00
   LPB:    0  -0.314026385465656E+00   0.661452045185112E-01  -0.101648E-02   0.000000E+00   0.334267E+02  -0.339777E-01
   LPB:    1  -0.313971304845403E+00   0.103380630164446E-01   0.154575E-01   0.000000E+00   0.685230E+02  -0.245483E-17
   LPB:    2  -0.313966869258552E+00   0.829222668974099E-02   0.170178E-01   0.731453E-01   0.303647E+03   0.863286E-16
   LPB:    3  -0.313965238246140E+00   0.608192977779895E-02   0.226374E-01   0.276429E+00   0.646416E+02   0.598505E-16
   LPB:    4  -0.313964040820902E+00   0.560888353003013E-02   0.268291E-01   0.619458E+00   0.113593E+03  -0.385624E-17
  Finished solving LPB equations
  A_corr:   -0.234121274560907     
 End minimization
 Ecorr=   1948.52929050382     
 A_corr= -0.234121274560907     
 Ecorr_band=  -1948.76341177838     
 End Solvation calculations
   3 F= -.18177505E+03 E0= -.18176217E+03  d E =-.114237E-02
quench:  g(F)=  0.000E+00 g(S)=  0.000E+00 dE (1.order)= 0.000E+00
 bond charge predicted
       N       E                     dE             d eps       ncg     rms          rms(c)
 Begin Solvation calculations
  rms_SCF =   7.244887455548951E-002 tol =   7.244887455548951E-003
 Begin minimization
 Creating dielectric and ionic cavities
  area:      152.126416136763     
  volume:    771.482813431379     
  Acav:     7.986636847180066E-002
  Solving linear dielectric/ionic screening model
        iter                  A_solv                     rms
   LPB:       -0.315834670069928E+00   0.725555352714694E-02
   LPB:    0  -0.315834670050430E+00   0.725242286199047E-02   0.108012E-05   0.000000E+00   0.334259E+02   0.361039E-04
   LPB:    1  -0.314198909665534E+00   0.586517855238699E-02   0.154614E-01   0.000000E+00   0.260105E+06  -0.196459E-20
   LPB:    2  -0.314034898432844E+00   0.132736171569034E-01   0.274599E-01   0.564552E-01   0.141206E+05  -0.172227E-18
   LPB:    3  -0.313983874401444E+00   0.314800293963826E-01   0.298557E-01   0.286136E+00   0.826782E+03   0.531567E-18
   LPB:    4  -0.313966228512734E+00   0.282297514725808E-01   0.183532E-01   0.562578E+00   0.168516E+03   0.408434E-17
   LPB:    5  -0.313951198966645E+00   0.597422859762341E-02   0.235053E-01   0.665042E+00   0.378618E+03   0.547484E-17
  Finished solving LPB equations
  A_corr:   -0.234084830494845     
 End minimization
 Ecorr=   1948.47909544240     
 A_corr= -0.234084830494845     
 Ecorr_band=  -1948.71318027290     
 End Solvation calculations
DAV:   1    -0.181775424140E+03   -0.34006E-03   -0.23602E-01 11439   0.962E-01    0.169E-01
 Begin Solvation calculations
  rms_SCF =   7.244887455548951E-002 tol =   7.244887455548951E-003
 Begin minimization
 Creating dielectric and ionic cavities
  area:      152.131348723610     
  volume:    771.424816563667     
  Acav:     7.986895807989523E-002
  Solving linear dielectric/ionic screening model
        iter                  A_solv                     rms
   LPB:       -0.318315362880727E+00   0.105039138411976E+01
   LPB:    0  -0.318204803107772E+00   0.102790619458902E+01  -0.257190E-02   0.000000E+00   0.334286E+02  -0.859751E-01
   LPB:    1  -0.315339168169069E+00   0.869560598479905E-01   0.852847E-02   0.000000E+00   0.741445E+02   0.304381E-17
   LPB:    2  -0.315130885525048E+00   0.160278099939975E-01   0.144563E-01   0.428793E-01   0.172354E+03   0.149918E-15
   LPB:    3  -0.315105092104010E+00   0.142637911081888E-01   0.236214E-01   0.757890E-01   0.255270E+03   0.325491E-15
   LPB:    4  -0.315096272254828E+00   0.106310942993529E-01   0.248124E-01   0.325529E+00   0.123543E+03   0.305730E-15
   LPB:    5  -0.315090778953071E+00   0.703624390093963E-02   0.261630E-01   0.590681E+00   0.417602E+03   0.248374E-15
  Finished solving LPB equations
  A_corr:   -0.235221820873176     
 End minimization
 Ecorr=   1948.57430686369     
 A_corr= -0.235221820873176     
 Ecorr_band=  -1948.80952868456     
 End Solvation calculations
RMM:   2    -0.181792395194E+03   -0.16971E-01   -0.96984E-03 11258   0.184E-01    0.156E+00
 Begin Solvation calculations
  rms_SCF =   7.244887455548951E-002 tol =   7.244887455548951E-003
 Begin minimization
 Creating dielectric and ionic cavities
  area:      152.133524887541     
  volume:    771.428915588805     
  Acav:     7.987010056595913E-002
  Solving linear dielectric/ionic screening model
        iter                  A_solv                     rms
   LPB:       -0.318518759764247E+00   0.924885191205719E+00
   LPB:    0  -0.318517902648602E+00   0.924427024355986E+00  -0.226452E-03   0.000000E+00   0.334284E+02  -0.756994E-02
   LPB:    1  -0.316302943833748E+00   0.891568967810776E-01   0.852575E-02   0.000000E+00   0.712483E+02   0.191321E-18
   LPB:    2  -0.316110784784354E+00   0.150327019028817E-01   0.156851E-01   0.471564E-01   0.129434E+03  -0.199760E-15
   LPB:    3  -0.316088437829246E+00   0.504412688666464E-02   0.216027E-01   0.844377E-01   0.218873E+03  -0.233004E-15
   LPB:    4  -0.316082006348873E+00   0.281719237048353E-02   0.279063E-01   0.222792E+00   0.460463E+03  -0.367653E-15
  Finished solving LPB equations
  A_corr:   -0.236211905782914     
 End minimization
 Ecorr=   1948.21394453968     
 A_corr= -0.236211905782914     
 Ecorr_band=  -1948.45015644546     
 End Solvation calculations
RMM:   3    -0.181776564829E+03    0.15830E-01   -0.19706E-03 11093   0.832E-02    0.237E-01
 Begin Solvation calculations
  rms_SCF =   7.244887455548951E-002 tol =   7.244887455548951E-003
 Begin minimization
 Creating dielectric and ionic cavities
  area:      152.125574865661     
  volume:    771.452287464999     
  Acav:     7.986592680447210E-002
  Solving linear dielectric/ionic screening model
        iter                  A_solv                     rms
   LPB:       -0.316190275879469E+00   0.136330691900888E+00
   LPB:    0  -0.316189210375385E+00   0.135812985621304E+00   0.252489E-03   0.000000E+00   0.334273E+02   0.844002E-02
   LPB:    1  -0.316136799323901E+00   0.110654437123882E-01   0.860203E-02   0.000000E+00   0.767961E+02  -0.278236E-18
   LPB:    2  -0.316131691177373E+00   0.258300534305883E-02   0.163733E-01   0.512042E-01   0.217730E+03  -0.439683E-17
   LPB:    3  -0.316129931720254E+00   0.264881681096246E-02   0.323414E-01   0.174378E+00   0.707246E+03  -0.822852E-17
   LPB:    4  -0.316127969522726E+00   0.346041691841291E-02   0.542388E-01   0.664987E+00   0.202494E+03  -0.978186E-17
  Finished solving LPB equations
  A_corr:   -0.236262042718254     
 End minimization
 Ecorr=   1947.99522990020     
 A_corr= -0.236262042718254     
 Ecorr_band=  -1948.23149194292     
 End Solvation calculations
RMM:   4    -0.181776097952E+03    0.46688E-03   -0.88800E-04 10894   0.580E-02    0.216E-01
 Begin Solvation calculations
  rms_SCF =   7.244887455548951E-002 tol =   7.244887455548951E-003
 Begin minimization
 Creating dielectric and ionic cavities
  area:      152.133106519802     
  volume:    771.451412565727     
  Acav:     7.986988092289625E-002
  Solving linear dielectric/ionic screening model
        iter                  A_solv                     rms
   LPB:       -0.317169332470725E+00   0.140658135415627E+00
   LPB:    0  -0.317139368742639E+00   0.747588355625973E-01  -0.133894E-02   0.000000E+00   0.334274E+02  -0.447573E-01
   LPB:    1  -0.317084600956546E+00   0.182785030535574E-01   0.145421E-01   0.000000E+00   0.615879E+02   0.240607E-17
   LPB:    2  -0.317078461069717E+00   0.976246594234304E-02   0.135772E-01   0.120075E+00   0.281354E+03   0.158922E-15
   LPB:    3  -0.317076718880156E+00   0.722357212597127E-02   0.198202E-01   0.194374E+00   0.101061E+03   0.113658E-15
   LPB:    4  -0.317075796729943E+00   0.423698863940869E-02   0.222740E-01   0.470995E+00   0.937070E+02   0.102361E-15
  Finished solving LPB equations
  A_corr:   -0.237205915807047     
 End minimization
 Ecorr=   1947.83921636482     
 A_corr= -0.237205915807047     
 Ecorr_band=  -1948.07642228062     
 End Solvation calculations
RMM:   5    -0.181775891551E+03    0.20640E-03   -0.25461E-04  6444   0.330E-02    0.133E-01
 Begin Solvation calculations
  rms_SCF =   7.244887455548951E-002 tol =   7.244887455548951E-003
 Begin minimization
 Creating dielectric and ionic cavities
  area:      152.134649080923     
  volume:    771.471202797763     
  Acav:     7.987069076748438E-002
  Solving linear dielectric/ionic screening model
        iter                  A_solv                     rms
   LPB:       -0.317805300262079E+00   0.586842711286378E-01
   LPB:    0  -0.317802729707733E+00   0.417954737720246E-01  -0.392178E-03   0.000000E+00   0.334264E+02  -0.131091E-01
   LPB:    1  -0.317776987476801E+00   0.106429174599747E-01   0.160641E-01   0.000000E+00   0.830491E+02  -0.504473E-19
   LPB:    2  -0.317774781670885E+00   0.880549308288531E-02   0.140078E-01   0.982675E-01   0.229473E+03  -0.173008E-15
   LPB:    3  -0.317773469703044E+00   0.495920341261926E-02   0.225671E-01   0.369190E+00   0.899766E+02  -0.188744E-15
   LPB:    4  -0.317772336282461E+00   0.388557642883741E-02   0.349858E-01   0.557252E+00   0.746039E+02  -0.202004E-15
  Finished solving LPB equations
  A_corr:   -0.237901645514977     
 End minimization
 Ecorr=   1947.52957053939     
 A_corr= -0.237901645514977     
 Ecorr_band=  -1947.76747218490     
 End Solvation calculations
RMM:   6    -0.181775807276E+03    0.84275E-04   -0.14758E-04  6030   0.276E-02
 Begin Solvation calculations
  rms_SCF =   7.244887455548951E-002 tol =   7.244887455548951E-003
 Begin minimization
 Creating dielectric and ionic cavities
  area:      152.150297938130     
  volume:    771.472539503558     
  Acav:     7.987890641751844E-002
  Solving linear dielectric/ionic screening model
        iter                  A_solv                     rms
   LPB:       -0.319123305235535E+00   0.165281200279918E+00
   LPB:    0  -0.319078690705454E+00   0.806569027066251E-01  -0.163384E-02   0.000000E+00   0.334264E+02  -0.546132E-01
   LPB:    1  -0.319000101731281E+00   0.241500058435265E-01   0.148290E-01   0.000000E+00   0.679490E+02  -0.538488E-18
   LPB:    2  -0.318993372181621E+00   0.762895931180969E-02   0.139510E-01   0.910190E-01   0.131493E+03  -0.863674E-17
   LPB:    3  -0.318991381086737E+00   0.563810360932795E-02   0.215545E-01   0.191502E+00   0.168564E+03  -0.582903E-16
   LPB:    4  -0.318990279122644E+00   0.691865709072566E-02   0.237472E-01   0.502344E+00   0.699668E+02  -0.619231E-16
  Finished solving LPB equations
  A_corr:   -0.239111372705125     
 End minimization
 Ecorr=   1947.32818185424     
 A_corr= -0.239111372705125     
 Ecorr_band=  -1947.56729322694     
 End Solvation calculations
   4 F= -.18177581E+03 E0= -.18176297E+03  d E =-.755930E-03
quench:  g(F)=  0.000E+00 g(S)=  0.000E+00 dE (1.order)= 0.000E+00
 bond charge predicted
       N       E                     dE             d eps       ncg     rms          rms(c)
 Begin Solvation calculations
  rms_SCF =   7.244887455548951E-002 tol =   7.244887455548951E-003
 Begin minimization
 Creating dielectric and ionic cavities
  area:      152.157498117184     
  volume:    771.473837786052     
  Acav:     7.988268651152154E-002
  Solving linear dielectric/ionic screening model
        iter                  A_solv                     rms
   LPB:       -0.319633969301967E+00   0.743643914745208E-02
   LPB:    0  -0.319633969301154E+00   0.744059330837615E-02  -0.220646E-06   0.000000E+00   0.334263E+02  -0.737540E-05
   LPB:    1  -0.319041760886300E+00   0.641113822570724E-02   0.154664E-01   0.000000E+00   0.820193E+05   0.427567E-21
   LPB:    2  -0.318985490405491E+00   0.133597510716862E-01   0.266925E-01   0.550560E-01   0.386791E+04  -0.483937E-17
   LPB:    3  -0.318969855836917E+00   0.256985041277184E-01   0.255274E-01   0.290529E+00   0.344171E+03  -0.196249E-16
   LPB:    4  -0.318962691320263E+00   0.110361464725360E-01   0.166479E-01   0.702663E+00   0.160065E+03  -0.148357E-16
   LPB:    5  -0.318957032837459E+00   0.478042125096932E-02   0.294694E-01   0.446171E+00   0.598429E+03  -0.761075E-16
  Finished solving LPB equations
  A_corr:   -0.239074346325938     
 End minimization
 Ecorr=   1947.25581755523     
 A_corr= -0.239074346325938     
 Ecorr_band=  -1947.49489190155     
 End Solvation calculations
DAV:   1    -0.181775995891E+03   -0.10434E-03   -0.56498E-02 11460   0.412E-01    0.133E-01
 Begin Solvation calculations
  rms_SCF =   7.244887455548951E-002 tol =   7.244887455548951E-003
 Begin minimization
 Creating dielectric and ionic cavities
  area:      152.178494771577     
  volume:    771.568184104723     
  Acav:     7.989370975507774E-002
  Solving linear dielectric/ionic screening model
        iter                  A_solv                     rms
   LPB:       -0.321158735250210E+00   0.664710582696713E+00
   LPB:    0  -0.321133722663989E+00   0.661177459792998E+00   0.122343E-02   0.000000E+00   0.334219E+02   0.408893E-01
   LPB:    1  -0.319974161235045E+00   0.671273026295047E-01   0.871455E-02   0.000000E+00   0.698530E+02   0.394572E-18
   LPB:    2  -0.319858517372644E+00   0.140612724284041E-01   0.153423E-01   0.566480E-01   0.143890E+03   0.242215E-16
   LPB:    3  -0.319844651507822E+00   0.750147459200863E-02   0.215800E-01   0.852439E-01   0.157960E+03   0.168081E-16
   LPB:    4  -0.319840090712091E+00   0.720199661834293E-02   0.264875E-01   0.267981E+00   0.274042E+03   0.680721E-16
  Finished solving LPB equations
  A_corr:   -0.239946380957013     
 End minimization
 Ecorr=   1946.54842115316     
 A_corr= -0.239946380957013     
 Ecorr_band=  -1946.78836753411     
 End Solvation calculations
RMM:   2    -0.181784529813E+03   -0.85339E-02   -0.55182E-03 11163   0.139E-01    0.109E+00
 Begin Solvation calculations
  rms_SCF =   7.244887455548951E-002 tol =   7.244887455548951E-003
 Begin minimization
 Creating dielectric and ionic cavities
  area:      152.202494189360     
  volume:    771.545072011479     
  Acav:     7.990630944941418E-002
  Solving linear dielectric/ionic screening model
        iter                  A_solv                     rms
   LPB:       -0.320817087861438E+00   0.774560662214833E+00
   LPB:    0  -0.320811781627124E+00   0.773634752627883E+00  -0.563489E-03   0.000000E+00   0.334230E+02  -0.188335E-01
   LPB:    1  -0.319257290218452E+00   0.723388205235758E-01   0.850809E-02   0.000000E+00   0.717582E+02   0.171040E-18
   LPB:    2  -0.319127102226013E+00   0.137081843843667E-01   0.155891E-01   0.457083E-01   0.135860E+03  -0.640948E-17
   LPB:    3  -0.319113882311915E+00   0.667313780482449E-02   0.201146E-01   0.786985E-01   0.196219E+03  -0.872233E-17
   LPB:    4  -0.319110839686110E+00   0.464210639405455E-02   0.240486E-01   0.192505E+00   0.252822E+03  -0.944897E-16
  Finished solving LPB equations
  A_corr:   -0.239204530236696     
 End minimization
 Ecorr=   1946.83998786778     
 A_corr= -0.239204530236696     
 Ecorr_band=  -1947.07919239802     
 End Solvation calculations
RMM:   3    -0.181777742454E+03    0.67874E-02   -0.14028E-03 10995   0.695E-02    0.442E-01
 Begin Solvation calculations
[...]
   LPB:    7  -0.336225806714319E+00   0.165029733378679E-02   0.291016E-01   0.561467E+00   0.529041E+03   0.211508E-16
   LPB:    8  -0.336225661717505E+00   0.194347079281599E-02   0.276258E-01   0.595767E+00   0.188694E+03   0.380889E-16
   LPB:    9  -0.336225558432579E+00   0.819003338178389E-03   0.245444E-01   0.801752E+00   0.223374E+03   0.545558E-16
   LPB:   10  -0.336225476163764E+00   0.224724314500089E-03   0.365057E-01   0.535537E+00   0.100759E+04   0.641716E-16
  Finished solving LPB equations
  A_corr:   -0.256025473535653     
 End minimization
 Ecorr=   1942.30132874547     
 A_corr= -0.256025473535653     
 Ecorr_band=  -1942.55735421901     
 End Solvation calculations
DAV:   1    -0.181776207768E+03    0.11587E-03   -0.60331E-03 11088   0.150E-01    0.308E-02
 Begin Solvation calculations
  rms_SCF =   3.416947965478824E-003 tol =   3.416947965478824E-004
 Begin minimization
 Creating dielectric and ionic cavities
  area:      152.764599339679     
  volume:    772.035333152502     
  Acav:     8.020141465333169E-002
  Solving linear dielectric/ionic screening model
        iter                  A_solv                     rms
   LPB:       -0.336233635230742E+00   0.248429950775289E-01
   LPB:    0  -0.336232931032694E+00   0.196890258351200E-01   0.205347E-03   0.000000E+00   0.334000E+02   0.685860E-02
   LPB:    1  -0.336231441636424E+00   0.306936252005138E-02   0.984994E-02   0.000000E+00   0.762575E+02  -0.101020E-18
   LPB:    2  -0.336231149189983E+00   0.127695521021851E-02   0.166380E-01   0.116244E+00   0.384761E+03  -0.210323E-16
   LPB:    3  -0.336231067162362E+00   0.115030937280510E-02   0.226655E-01   0.205897E+00   0.175784E+03  -0.246925E-16
   LPB:    4  -0.336231027057056E+00   0.744333078071726E-03   0.242773E-01   0.456464E+00   0.180909E+03  -0.184985E-16
   LPB:    5  -0.336230997029033E+00   0.335834377544646E-03   0.301025E-01   0.603840E+00   0.397236E+03  -0.140560E-16
  Finished solving LPB equations
  A_corr:   -0.256029582375701     
 End minimization
 Ecorr=   1942.24930408592     
 A_corr= -0.256029582375701     
 Ecorr_band=  -1942.50533366830     
 End Solvation calculations
RMM:   2    -0.181776286906E+03   -0.79137E-04   -0.25651E-04  6282   0.309E-02
 Begin Solvation calculations
  rms_SCF =   3.416947965478824E-003 tol =   3.416947965478824E-004
 Begin minimization
 Creating dielectric and ionic cavities
  area:      152.767041498871     
  volume:    772.027889376940     
  Acav:     8.020269678690735E-002
  Solving linear dielectric/ionic screening model
        iter                  A_solv                     rms
   LPB:       -0.336227964238940E+00   0.659442886515930E-01
   LPB:    0  -0.336227060015343E+00   0.637119032933917E-01  -0.232690E-03   0.000000E+00   0.334003E+02  -0.777192E-02
   LPB:    1  -0.336216388933241E+00   0.567650161533897E-02   0.850042E-02   0.000000E+00   0.724590E+02  -0.248699E-18
   LPB:    2  -0.336215603596291E+00   0.147201821182386E-02   0.149275E-01   0.419083E-01   0.146502E+03  -0.166957E-16
   LPB:    3  -0.336215506862618E+00   0.903653268265084E-03   0.211850E-01   0.867923E-01   0.120467E+03  -0.154340E-16
   LPB:    4  -0.336215476749550E+00   0.588404677757267E-03   0.231109E-01   0.285357E+00   0.176253E+03  -0.120462E-16
   LPB:    5  -0.336215459646038E+00   0.326380931261574E-03   0.256110E-01   0.512531E+00   0.291177E+03  -0.347492E-17
  Finished solving LPB equations
  A_corr:   -0.256012762859130     
 End minimization
 Ecorr=   1942.31294133992     
 A_corr= -0.256012762859130     
 Ecorr_band=  -1942.56895410278     
 End Solvation calculations
  59 F= -.18177629E+03 E0= -.18176315E+03  d E =-.396020E-04
quench:  g(F)=  0.000E+00 g(S)=  0.000E+00 dE (1.order)= 0.000E+00
 bond charge predicted
       N       E                     dE             d eps       ncg     rms          rms(c)
 Begin Solvation calculations
  rms_SCF =   3.416947965478824E-003 tol =   3.416947965478824E-004
 Begin minimization
 Creating dielectric and ionic cavities
  area:      152.774948859206     
  volume:    772.041238090834     
  Acav:     8.020684815108341E-002
  Solving linear dielectric/ionic screening model
        iter                  A_solv                     rms
   LPB:       -0.336361210022248E+00   0.155567680287609E-02
   LPB:    0  -0.336361209994493E+00   0.158705280171227E-02   0.128918E-05   0.000000E+00   0.333997E+02   0.430584E-04
   LPB:    1  -0.336208868766108E+00   0.601842658411331E-03   0.150646E-01   0.000000E+00   0.430279E+06  -0.313126E-20
   LPB:    2  -0.336196007767284E+00   0.750432421498523E-03   0.267203E-01   0.475964E-01   0.862475E+05   0.243083E-17
   LPB:    3  -0.336191852213134E+00   0.144635029170736E-02   0.327945E-01   0.263266E+00   0.118298E+05   0.691690E-18
   LPB:    4  -0.336190040097754E+00   0.309084300344260E-02   0.349207E-01   0.409519E+00   0.140315E+04   0.476587E-17
   LPB:    5  -0.336189212929612E+00   0.466887445072934E-02   0.288715E-01   0.552105E+00   0.230934E+03   0.306203E-18
   LPB:    6  -0.336188708022839E+00   0.273791943173367E-02   0.225991E-01   0.779823E+00   0.188746E+03   0.530946E-16
   LPB:    7  -0.336188335581553E+00   0.315307699052453E-02   0.296783E-01   0.561693E+00   0.411643E+03   0.104491E-15
   LPB:    8  -0.336188135634544E+00   0.276064915596663E-02   0.210910E-01   0.755438E+00   0.162477E+03   0.162458E-15
   LPB:    9  -0.336187945567326E+00   0.714906987001941E-03   0.262596E-01   0.763486E+00   0.385911E+03   0.196396E-15
   LPB:   10  -0.336187808221240E+00   0.175859388520981E-03   0.387273E-01   0.489982E+00   0.325004E+04   0.245660E-15
  Finished solving LPB equations
  A_corr:   -0.255980960070157     
 End minimization
 Ecorr=   1942.30834994170     
 A_corr= -0.255980960070157     
 Ecorr_band=  -1942.56433090177     
 End Solvation calculations
DAV:   1    -0.181776176047E+03    0.31722E-04   -0.96833E-03 11247   0.207E-01    0.838E-02
 Begin Solvation calculations
  rms_SCF =   3.416947965478824E-003 tol =   3.416947965478824E-004
 Begin minimization
 Creating dielectric and ionic cavities
  area:      152.749874550625     
  volume:    772.042293177655     
  Acav:     8.019368413907796E-002
  Solving linear dielectric/ionic screening model
        iter                  A_solv                     rms
   LPB:       -0.339060129851731E+00   0.779355372001921E+00
   LPB:    0  -0.339059008614255E+00   0.778771833342798E+00  -0.259115E-03   0.000000E+00   0.333997E+02  -0.865436E-02
   LPB:    1  -0.337484886178810E+00   0.766004748170766E-01   0.854712E-02   0.000000E+00   0.709849E+02  -0.496658E-18
   LPB:    2  -0.337342807234392E+00   0.127099663087504E-01   0.158187E-01   0.487686E-01   0.126840E+03  -0.669960E-17
   LPB:    3  -0.337327950805135E+00   0.504704394931145E-02   0.210757E-01   0.784828E-01   0.217283E+03  -0.103992E-15
   LPB:    4  -0.337323855757038E+00   0.260125901380456E-02   0.268676E-01   0.216220E+00   0.349353E+03  -0.116513E-15
   LPB:    5  -0.337322387695160E+00   0.251440793509324E-02   0.279084E-01   0.345127E+00   0.334182E+03  -0.754304E-16
   LPB:    6  -0.337321743646412E+00   0.294026225012523E-02   0.271256E-01   0.451367E+00   0.228604E+03  -0.484836E-16
   LPB:    7  -0.337321424733293E+00   0.213575771099151E-02   0.238628E-01   0.562874E+00   0.144678E+03  -0.342046E-16
   LPB:    8  -0.337321214953484E+00   0.779381549237981E-03   0.282421E-01   0.555798E+00   0.196244E+03  -0.300944E-16
   LPB:    9  -0.337321086324790E+00   0.319121396644711E-03   0.353881E-01   0.489343E+00   0.423213E+03  -0.438290E-16
  Finished solving LPB equations
  A_corr:   -0.257127402185712     
 End minimization
 Ecorr=   1942.01290101611     
 A_corr= -0.257127402185712     
 Ecorr_band=  -1942.27002841830     
 End Solvation calculations
RMM:   2    -0.181786708417E+03   -0.10532E-01   -0.17571E-03 11097   0.804E-02    0.125E+00
 Begin Solvation calculations
  rms_SCF =   3.416947965478824E-003 tol =   3.416947965478824E-004
 Begin minimization
 Creating dielectric and ionic cavities
  area:      152.777101190524     
  volume:    772.042545660472     
  Acav:     8.020797812502502E-002
  Solving linear dielectric/ionic screening model
        iter                  A_solv                     rms
   LPB:       -0.338077216585198E+00   0.764642239910127E+00
   LPB:    0  -0.338076260870035E+00   0.764204199305929E+00   0.239226E-03   0.000000E+00   0.333997E+02   0.799006E-02
   LPB:    1  -0.336562472788569E+00   0.732091595371635E-01   0.852375E-02   0.000000E+00   0.713045E+02   0.427115E-18
   LPB:    2  -0.336433478299750E+00   0.121128970216986E-01   0.155857E-01   0.466026E-01   0.130748E+03  -0.836905E-16
   LPB:    3  -0.336420160302905E+00   0.461520891558336E-02   0.210506E-01   0.764417E-01   0.216760E+03  -0.752854E-16
   LPB:    4  -0.336416555100545E+00   0.249022356664700E-02   0.270908E-01   0.210345E+00   0.347940E+03  -0.938383E-16
   LPB:    5  -0.336415216962698E+00   0.245845898798477E-02   0.278168E-01   0.361481E+00   0.346788E+03  -0.110047E-15
   LPB:    6  -0.336414646862258E+00   0.279584914655051E-02   0.264304E-01   0.448389E+00   0.228524E+03  -0.121442E-15
   LPB:    7  -0.336414379258093E+00   0.185999028328538E-02   0.232076E-01   0.534582E+00   0.146140E+03  -0.123449E-15
   LPB:    8  -0.336414210416701E+00   0.661690408709577E-03   0.281636E-01   0.519910E+00   0.240468E+03  -0.158555E-15
   LPB:    9  -0.336414111597852E+00   0.255583222524055E-03   0.350631E-01   0.470109E+00   0.512513E+03  -0.183016E-15
  Finished solving LPB equations
  A_corr:   -0.256206133472827     
 End minimization
 Ecorr=   1942.23379401276     
 A_corr= -0.256206133472827     
 Ecorr_band=  -1942.49000014624     
 End Solvation calculations
RMM:   3    -0.181776392807E+03    0.10316E-01   -0.10369E-03 10724   0.599E-02    0.791E-02
 Begin Solvation calculations
  rms_SCF =   3.416947965478824E-003 tol =   3.416947965478824E-004
 Begin minimization
 Creating dielectric and ionic cavities
  area:      152.769731829804     
  volume:    772.028763225454     
  Acav:     8.020410921064684E-002
  Solving linear dielectric/ionic screening model
        iter                  A_solv                     rms
   LPB:       -0.336532463167460E+00   0.401335752874249E-01
   LPB:    0  -0.336529617590862E+00   0.249503697581285E-01  -0.412786E-03   0.000000E+00   0.334003E+02  -0.137872E-01
   LPB:    1  -0.336527229838115E+00   0.372396280704945E-02   0.982714E-02   0.000000E+00   0.696646E+02  -0.163663E-19
   LPB:    2  -0.336526892139734E+00   0.149085706717492E-02   0.146180E-01   0.950775E-01   0.197362E+03   0.189362E-16
   LPB:    3  -0.336526820383929E+00   0.119045903402801E-02   0.203117E-01   0.152922E+00   0.153575E+03   0.199193E-16
   LPB:    4  -0.336526777043410E+00   0.676371007968020E-03   0.265814E-01   0.461536E+00   0.152056E+03   0.193293E-16
   LPB:    5  -0.336526744372666E+00   0.269965090307942E-03   0.297029E-01   0.674596E+00   0.884669E+03   0.137801E-16
  Finished solving LPB equations
  A_corr:   -0.256322635162019     
 End minimization
 Ecorr=   1942.30040542562     
 A_corr= -0.256322635162019     
 Ecorr_band=  -1942.55672806078     
 End Solvation calculations
RMM:   4    -0.181776182910E+03    0.20990E-03   -0.10070E-04  6096   0.232E-02    0.560E-02
 Begin Solvation calculations
  rms_SCF =   3.416947965478824E-003 tol =   3.416947965478824E-004
 Begin minimization
 Creating dielectric and ionic cavities
  area:      152.767875218336     
  volume:    772.037519493976     
  Acav:     8.020313448962649E-002
  Solving linear dielectric/ionic screening model
        iter                  A_solv                     rms
   LPB:       -0.336646482933186E+00   0.102553677752695E-01
   LPB:    0  -0.336646160029555E+00   0.704866396554062E-02   0.139053E-03   0.000000E+00   0.333999E+02   0.464434E-02
   LPB:    1  -0.336645118395075E+00   0.359454354422826E-02   0.153500E-01   0.000000E+00   0.177951E+03   0.293154E-18
   LPB:    2  -0.336645000062572E+00   0.132257074886863E-02   0.125731E-01   0.138693E+00   0.986212E+02  -0.468776E-17
   LPB:    3  -0.336644960698627E+00   0.101007667565741E-02   0.212565E-01   0.196763E+00   0.983034E+02   0.703817E-17
   LPB:    4  -0.336644939178694E+00   0.699315731353137E-03   0.235049E-01   0.494397E+00   0.220614E+03   0.964883E-17
   LPB:    5  -0.336644921796751E+00   0.290538062955673E-03   0.288963E-01   0.657013E+00   0.127253E+03   0.861926E-17
  Finished solving LPB equations
  A_corr:   -0.256441787307124     
 End minimization
 Ecorr=   1942.21214900664     
 A_corr= -0.256441787307124     
 Ecorr_band=  -1942.46859079395     
 End Solvation calculations
RMM:   5    -0.181776165015E+03    0.17896E-04   -0.28599E-05  5808   0.122E-02
 Begin Solvation calculations
  rms_SCF =   3.416947965478824E-003 tol =   3.416947965478824E-004
 Begin minimization
 Creating dielectric and ionic cavities
  area:      152.768820560518     
  volume:    772.034845604909     
  Acav:     8.020363079427213E-002
  Solving linear dielectric/ionic screening model
        iter                  A_solv                     rms
   LPB:       -0.336730985103910E+00   0.157380411317366E-01
   LPB:    0  -0.336730554466506E+00   0.861187135761790E-02  -0.160582E-03   0.000000E+00   0.334000E+02  -0.536345E-02
   LPB:    1  -0.336730037229072E+00   0.301700641942092E-02   0.114954E-01   0.000000E+00   0.810706E+02  -0.426494E-18
   LPB:    2  -0.336729962027475E+00   0.549884892624279E-03   0.128637E-01   0.129927E+00   0.126087E+03   0.159326E-16
   LPB:    3  -0.336729944927879E+00   0.559667498272888E-03   0.215784E-01   0.135552E+00   0.354521E+03   0.179509E-16
   LPB:    4  -0.336729933449069E+00   0.469132995418156E-03   0.274825E-01   0.527077E+00   0.874953E+02   0.171487E-16
   LPB:    5  -0.336729921333269E+00   0.277135618888960E-03   0.344254E-01   0.842621E+00   0.277925E+03   0.132884E-16
  Finished solving LPB equations
  A_corr:   -0.256526290538997     
 End minimization
 Ecorr=   1942.21463131806     
 A_corr= -0.256526290538997     
 Ecorr_band=  -1942.47115760860     
 End Solvation calculations
  60 F= -.18177617E+03 E0= -.18176303E+03  d E =0.121891E-03
quench:  g(F)=  0.000E+00 g(S)=  0.000E+00 dE (1.order)= 0.000E+00
 bond charge predicted
       N       E                     dE             d eps       ncg     rms          rms(c)
 Begin Solvation calculations
  rms_SCF =   3.416947965478824E-003 tol =   3.416947965478824E-004
 Begin minimization
 Creating dielectric and ionic cavities
  area:      152.769699167108     
  volume:    772.038516413753     
  Acav:     8.020409206273187E-002
  Solving linear dielectric/ionic screening model
        iter                  A_solv                     rms
   LPB:       -0.336817546819868E+00   0.956683754774875E-03
   LPB:    0  -0.336817546818446E+00   0.958876254934106E-03   0.291714E-06   0.000000E+00   0.333998E+02   0.974319E-05
   LPB:    1  -0.336732038924572E+00   0.273710878814093E-03   0.154075E-01   0.000000E+00   0.764116E+06  -0.188727E-21
   LPB:    2  -0.336723720004236E+00   0.220715538261152E-03   0.268507E-01   0.558261E-01   0.289521E+06  -0.664919E-20
   LPB:    3  -0.336721133468243E+00   0.336020637153551E-03   0.325927E-01   0.256146E+00   0.727946E+05  -0.342571E-18
   LPB:    4  -0.336720001529089E+00   0.800765000816163E-03   0.358843E-01   0.397485E+00   0.166468E+05  -0.877516E-18
   LPB:    5  -0.336719441593563E+00   0.171525630495991E-02   0.364070E-01   0.487566E+00   0.118256E+04   0.361065E-17
   LPB:    6  -0.336719172063380E+00   0.260094099728971E-02   0.291876E-01   0.600421E+00   0.251869E+03   0.100862E-16
   LPB:    7  -0.336719004927188E+00   0.149169350926889E-02   0.230288E-01   0.785941E+00   0.173638E+03   0.349545E-16
   LPB:    8  -0.336718879047628E+00   0.170824902265617E-02   0.303924E-01   0.570679E+00   0.486680E+03   0.491916E-16
   LPB:    9  -0.336718817326675E+00   0.163938795522084E-02   0.209152E-01   0.712494E+00   0.173926E+03   0.556014E-16
   LPB:   10  -0.336718758667190E+00   0.463059728823210E-03   0.255258E-01   0.778730E+00   0.323054E+03   0.560666E-16
   LPB:   11  -0.336718715319328E+00   0.136715047981184E-03   0.377861E-01   0.499202E+00   0.316358E+04   0.587641E-16
  Finished solving LPB equations
  A_corr:   -0.256514623256597     
 End minimization
 Ecorr=   1942.20615440738     
 A_corr= -0.256514623256597     
 Ecorr_band=  -1942.46266903063     
 End Solvation calculations
DAV:   1    -0.181776137248E+03    0.45662E-04   -0.55292E-03 11280   0.127E-01    0.288E-02
 Begin Solvation calculations
  rms_SCF =   3.416947965478824E-003 tol =   3.416947965478824E-004
 Begin minimization
 Creating dielectric and ionic cavities
  area:      152.778227912992     
  volume:    772.049265350189     
  Acav:     8.020856965432098E-002
  Solving linear dielectric/ionic screening model
        iter                  A_solv                     rms
   LPB:       -0.336652960110938E+00   0.342272363008963E-01
   LPB:    0  -0.336652236606129E+00   0.303385697729798E-01   0.208145E-03   0.000000E+00   0.333993E+02   0.695192E-02
   LPB:    1  -0.336649053411900E+00   0.421823072059041E-02   0.930865E-02   0.000000E+00   0.780760E+02   0.277981E-19
   LPB:    2  -0.336648382925750E+00   0.996152118977349E-03   0.183869E-01   0.106636E+00   0.233490E+03  -0.133608E-16
   LPB:    3  -0.336648250892196E+00   0.105333018042789E-02   0.257076E-01   0.140845E+00   0.518266E+03  -0.151417E-16
   LPB:    4  -0.336648195900404E+00   0.867818802917739E-03   0.225199E-01   0.475453E+00   0.241879E+03  -0.143482E-16
   LPB:    5  -0.336648163317703E+00   0.598965825690103E-03   0.275297E-01   0.484679E+00   0.190511E+03  -0.130377E-16
   LPB:    6  -0.336648142194181E+00   0.312927774858359E-03   0.302086E-01   0.590814E+00   0.285539E+03  -0.270354E-16
  Finished solving LPB equations
  A_corr:   -0.256439572539860     
 End minimization
 Ecorr=   1942.17620502996     
 A_corr= -0.256439572539860     
 Ecorr_band=  -1942.43264460250     
 End Solvation calculations
RMM:   2    -0.181776211921E+03   -0.74673E-04   -0.29421E-04  6389   0.305E-02
 Begin Solvation calculations
  rms_SCF =   3.416947965478824E-003 tol =   3.416947965478824E-004
 Begin minimization
 Creating dielectric and ionic cavities
  area:      152.777330405611     
  volume:    772.044393520185     
  Acav:     8.020809846294595E-002
  Solving linear dielectric/ionic screening model
        iter                  A_solv                     rms
   LPB:       -0.336791027494846E+00   0.802724358407416E-01
   LPB:    0  -0.336790379565484E+00   0.786302038583269E-01  -0.196974E-03   0.000000E+00   0.333996E+02  -0.657884E-02
   LPB:    1  -0.336774274196955E+00   0.785359613619178E-02   0.857069E-02   0.000000E+00   0.704754E+02  -0.358072E-18
   LPB:    2  -0.336772785466993E+00   0.110675687688214E-02   0.158127E-01   0.501019E-01   0.123979E+03  -0.127583E-16
   LPB:    3  -0.336772625075092E+00   0.549768637578067E-03   0.214099E-01   0.795717E-01   0.313653E+03  -0.143784E-16
   LPB:    4  -0.336772576839368E+00   0.655073694140152E-03   0.262229E-01   0.245539E+00   0.249887E+03  -0.166153E-16
   LPB:    5  -0.336772557768957E+00   0.582208718406794E-03   0.244522E-01   0.423989E+00   0.141996E+03  -0.180467E-16
   LPB:    6  -0.336772546224453E+00   0.305156246250780E-03   0.265468E-01   0.557597E+00   0.160979E+03  -0.174664E-16
  Finished solving LPB equations
  A_corr:   -0.256564447761507     
 End minimization
 Ecorr=   1942.18053407561     
 A_corr= -0.256564447761507     
 Ecorr_band=  -1942.43709852337     
 End Solvation calculations
  61 F= -.18177621E+03 E0= -.18176309E+03  d E =-.469061E-04
quench:  g(F)=  0.000E+00 g(S)=  0.000E+00 dE (1.order)= 0.000E+00
 reached required accuracy - stopping structural energy minimisation
