 vasp.5.4.4.18Apr17-6-g9f103f2a35 (build Feb 06 2024 13:54:16) complex          
  
 POSCAR found type information on POSCAR  Rh N  O 
 02/POSCAR found :  3 types and      40 ions
 scaLAPACK will be used

 ----------------------------------------------------------------------------- 
|                                                                             |
|  ADVICE TO THIS USER RUNNING 'VASP/VAMP'   (HEAR YOUR MASTER'S VOICE ...):  |
|                                                                             |
|      You enforced a specific xc-type in the INCAR file,                     |
|      a different type was found on the POTCAR file                          |
|          I HOPE YOU KNOW, WHAT YOU ARE  DOING                               |
|                                                                             |
 ----------------------------------------------------------------------------- 

 LDA part: xc-table for Pade appr. of Perdew
 POSCAR found type information on POSCAR  Rh N  O 
 00/POSCAR found :  3 types and      40 ions
 POSCAR found type information on POSCAR  Rh N  O 
 06/POSCAR found :  3 types and      40 ions
 Jacobian:    20.6739712607859     
 POSCAR, INCAR and KPOINTS ok, starting setup
 FFT: planning ...
 WAVECAR not read
 entering main loop
       N       E                     dE             d eps       ncg     rms          rms(c)
  Solvation turned off during non-self-consistent phase (first NELMDL steps)
DAV:   1     0.639796785593E+04    0.63980E+04   -0.35974E+05 19647   0.166E+03
DAV:   2    -0.142556113890E+02   -0.64122E+04   -0.62181E+04 17619   0.493E+02
DAV:   3    -0.259448483022E+03   -0.24519E+03   -0.22817E+03 17910   0.952E+01
DAV:   4    -0.265994097005E+03   -0.65456E+01   -0.64311E+01 18018   0.143E+01
DAV:   5    -0.266247568605E+03   -0.25347E+00   -0.25300E+00 20469   0.249E+00    0.495E+01
 Begin Solvation calculations
  rms_SCF =    2.39703989409367      tol =   0.239703989409367     
 Begin minimization
 Creating dielectric and ionic cavities
  area:      168.843359815367     
  volume:    752.777645913417     
  Acav:     8.864276390306761E-002
  Solving linear dielectric/ionic screening model
        iter                  A_solv                     rms
   LPB:       -0.710179395642074E+03   0.374505966824688E+03
   LPB:    0  -0.163253452037530E+01   0.601778769187105E+01  -0.684906E+01   0.000000E+00   0.302090E+02  -0.206903E+03
   LPB:    1  -0.469213143947286E+00   0.341441788458449E+01   0.165321E-01   0.000000E+00   0.141648E+03  -0.336443E-15
   LPB:    2  -0.296461567141591E+00   0.239332152281553E+01   0.157888E-01   0.155490E+00   0.995546E+02  -0.370614E-13
   LPB:    3  -0.200502190431166E+00   0.646640977232902E+00   0.207575E-01   0.422513E+00   0.107704E+03  -0.432088E-13
   LPB:    4  -0.155688173003341E+00   0.231311956863069E+00   0.316135E-01   0.306640E+00   0.119650E+03  -0.442198E-13
  Finished solving LPB equations
  A_corr:   -6.704540910027343E-002
 End minimization
 Ecorr=   3688.95197995345     
 A_corr= -6.704540910027343E-002
 Ecorr_band=  -3689.01902536255     
 End Solvation calculations
RMM:   6    -0.252210244852E+03    0.14037E+02   -0.64737E+01 16305   0.163E+01    0.253E+01
 Begin Solvation calculations
  rms_SCF =    2.39703989409367      tol =   0.239703989409367     
 Begin minimization
 Creating dielectric and ionic cavities
  area:      157.253447058197     
  volume:    764.796144323403     
  Acav:     8.255805970555356E-002
  Solving linear dielectric/ionic screening model
        iter                  A_solv                     rms
   LPB:       -0.543557277019383E+02   0.135147883373315E+03
   LPB:    0  -0.517127382507908E+02   0.132019787871680E+03   0.422263E+00   0.000000E+00   0.296456E+02   0.125182E+02
   LPB:    1  -0.508227363154427E+01   0.123696211655582E+02   0.895095E-02   0.000000E+00   0.665859E+02   0.751047E-15
   LPB:    2  -0.149621671462658E+01   0.213499788498357E+01   0.158911E-01   0.433175E-01   0.121736E+03   0.951219E-14
   LPB:    3  -0.991395432719180E+00   0.792194969440330E+00   0.223818E-01   0.999491E-01   0.216891E+03   0.172719E-13
   LPB:    4  -0.857647243697009E+00   0.995819549437267E+00   0.270214E-01   0.219451E+00   0.260036E+03   0.195763E-13
   LPB:    5  -0.808195134764048E+00   0.721360632990299E+00   0.258275E-01   0.386833E+00   0.899541E+02   0.195096E-13
   LPB:    6  -0.782839340308762E+00   0.577983261753302E+00   0.262403E-01   0.504668E+00   0.223132E+03   0.285897E-13
   LPB:    7  -0.767195420051571E+00   0.198216388743034E+00   0.283363E-01   0.571340E+00   0.867219E+02   0.270859E-13
  Finished solving LPB equations
  A_corr:   -0.684637360346018     
 End minimization
 Ecorr=   3519.89818600284     
 A_corr= -0.684637360346018     
 Ecorr_band=  -3520.58282336319     
 End Solvation calculations
RMM:   7    -0.427600689527E+03   -0.17539E+03   -0.73935E+01 16839   0.112E+01    0.926E+01
 Begin Solvation calculations
  rms_SCF =    2.39703989409367      tol =   0.239703989409367     
 Begin minimization
 Creating dielectric and ionic cavities
  area:      153.361719388978     
  volume:    767.488981829919     
  Acav:     8.051490267921355E-002
  Solving linear dielectric/ionic screening model
        iter                  A_solv                     rms
   LPB:       -0.339782965577390E+02   0.107302550872300E+03
   LPB:    0  -0.338672509907554E+02   0.107206212157835E+03   0.867386E-01   0.000000E+00   0.295194E+02   0.256047E+01
   LPB:    1  -0.305861310180835E+01   0.100415304207076E+02   0.896600E-02   0.000000E+00   0.666898E+02   0.132948E-15
   LPB:    2  -0.684199360532048E+00   0.200583968074243E+01   0.160440E-01   0.430696E-01   0.120631E+03   0.218950E-14
   LPB:    3  -0.325056010890748E+00   0.708253615722801E+00   0.229960E-01   0.105529E+00   0.160015E+03   0.651912E-14
   LPB:    4  -0.223038330665027E+00   0.589751767722613E+00   0.276505E-01   0.236242E+00   0.274806E+03   0.102282E-14
   LPB:    5  -0.187023338502087E+00   0.457674511688731E+00   0.265197E-01   0.368080E+00   0.145640E+03  -0.130042E-14
   LPB:    6  -0.171955639683070E+00   0.490385317662054E+00   0.249526E-01   0.444647E+00   0.294487E+03  -0.564613E-14
   LPB:    7  -0.164295170097148E+00   0.191546632011664E+00   0.252910E-01   0.501601E+00   0.698092E+02  -0.632968E-14
  Finished solving LPB equations
  A_corr:   -8.378026741793446E-002
 End minimization
 Ecorr=   3412.42556402956     
 A_corr= -8.378026741793446E-002
 Ecorr_band=  -3412.50934429697     
 End Solvation calculations
RMM:   8    -0.285842992972E+03    0.14176E+03   -0.21597E+01 16278   0.669E+00    0.508E+01
 Begin Solvation calculations
  rms_SCF =    2.39703989409367      tol =   0.239703989409367     
 Begin minimization
 Creating dielectric and ionic cavities
  area:      153.217900789715     
  volume:    758.372832581367     
  Acav:     8.043939791460060E-002
  Solving linear dielectric/ionic screening model
        iter                  A_solv                     rms
   LPB:       -0.165458729271251E+01   0.219967762447617E+02
   LPB:    0  -0.475099689512177E+00   0.740652706193547E+01  -0.280664E+00   0.000000E+00   0.299467E+02  -0.840498E+01
   LPB:    1  -0.205666216795395E+00   0.609561218295553E+00   0.104367E-01   0.000000E+00   0.512450E+02   0.484729E-15
   LPB:    2  -0.192801090340484E+00   0.215625214650835E+00   0.173457E-01   0.287299E-01   0.109039E+03   0.175853E-16
   LPB:    3  -0.187828456896268E+00   0.359889184799092E+00   0.307966E-01   0.217701E+00   0.827851E+02   0.533758E-15
   LPB:    4  -0.183293142275505E+00   0.504166035824584E+00   0.287198E-01   0.978005E+00   0.435568E+02   0.551502E-15
   LPB:    5  -0.179036316832539E+00   0.168125211382528E+00   0.245304E-01   0.109890E+01   0.614705E+02   0.183303E-15
  Finished solving LPB equations
  A_corr:   -9.859691891793869E-002
 End minimization
 Ecorr=   3462.93871665266     
 A_corr= -9.859691891793869E-002
 Ecorr_band=  -3463.03731357157     
 End Solvation calculations
RMM:   9    -0.256568719205E+03    0.29274E+02   -0.17689E+01 16293   0.679E+00    0.292E+01
 Begin Solvation calculations
  rms_SCF =    2.39703989409367      tol =   0.239703989409367     
 Begin minimization
 Creating dielectric and ionic cavities
  area:      146.387362705174     
  volume:    754.088315006473     
  Acav:     7.685336542021635E-002
  Solving linear dielectric/ionic screening model
        iter                  A_solv                     rms
   LPB:       -0.131534705018321E+01   0.195236604477240E+02
   LPB:    0  -0.131299196900449E+01   0.194282952863406E+02  -0.124995E-01   0.000000E+00   0.301476E+02  -0.376829E+00
   LPB:    1  -0.303857966920264E+00   0.197869086069991E+01   0.882373E-02   0.000000E+00   0.676726E+02  -0.195797E-16
   LPB:    2  -0.211235527055965E+00   0.337101158824425E+00   0.174737E-01   0.463485E-01   0.949321E+02   0.121695E-13
   LPB:    3  -0.197198213968545E+00   0.256629617306623E+00   0.224499E-01   0.117961E+00   0.275804E+03   0.200299E-13
   LPB:    4  -0.191994270081727E+00   0.196641268458387E+00   0.276124E-01   0.301410E+00   0.976864E+02   0.212049E-13
  Finished solving LPB equations
  A_corr:   -0.115140904661510     
 End minimization
 Ecorr=   3424.91572416390     
 A_corr= -0.115140904661510     
 Ecorr_band=  -3425.03086506857     
 End Solvation calculations
RMM:  10    -0.253918167757E+03    0.26506E+01   -0.92405E+00 16305   0.486E+00    0.252E+01
 Begin Solvation calculations
  rms_SCF =    2.39703989409367      tol =   0.239703989409367     
 Begin minimization
 Creating dielectric and ionic cavities
  area:      139.689592223745     
  volume:    751.341541861946     
  Acav:     7.333703591746621E-002
  Solving linear dielectric/ionic screening model
        iter                  A_solv                     rms
   LPB:       -0.390348942608108E+00   0.691581117190661E+01
   LPB:    0  -0.366708547087124E+00   0.670761344466862E+01   0.395176E-01   0.000000E+00   0.302764E+02   0.119645E+01
   LPB:    1  -0.233323123565380E+00   0.679559981489439E+00   0.927378E-02   0.000000E+00   0.687398E+02   0.103582E-15
   LPB:    2  -0.217711064093432E+00   0.148136762777219E+00   0.161894E-01   0.670467E-01   0.180032E+03   0.278522E-15
   LPB:    3  -0.212909980176063E+00   0.116182212271566E+00   0.306048E-01   0.162675E+00   0.256474E+03  -0.213860E-14
   LPB:    4  -0.209375209109601E+00   0.123852652784759E+00   0.439290E-01   0.512932E+00   0.107671E+03  -0.323071E-14
  Finished solving LPB equations
  A_corr:   -0.136038173192135     
 End minimization
 Ecorr=   3383.24672317851     
 A_corr= -0.136038173192135     
 Ecorr_band=  -3383.38276135170     
 End Solvation calculations
RMM:  11    -0.251006541997E+03    0.29116E+01   -0.35920E+00 16308   0.310E+00    0.151E+01
 Begin Solvation calculations
  rms_SCF =    2.39703989409367      tol =   0.239703989409367     
 Begin minimization
 Creating dielectric and ionic cavities
  area:      138.600777401072     
  volume:    747.547342115565     
  Acav:     7.276540813556277E-002
  Solving linear dielectric/ionic screening model
        iter                  A_solv                     rms
   LPB:       -0.284272527762475E+00   0.194395794430933E+01
   LPB:    0  -0.275395135138307E+00   0.216181059723829E+01   0.241454E-01   0.000000E+00   0.304543E+02   0.735329E+00
   LPB:    1  -0.242632824810695E+00   0.836232607268149E+00   0.116690E-01   0.000000E+00   0.877610E+02   0.403268E-16
   LPB:    2  -0.235622817552049E+00   0.180326252600073E+00   0.156203E-01   0.159840E+00   0.117160E+03   0.317382E-14
   LPB:    3  -0.231832916601797E+00   0.225326315763345E+00   0.319073E-01   0.264674E+00   0.179893E+03   0.144695E-14
   LPB:    4  -0.229049953395645E+00   0.256953073851242E+00   0.330775E-01   0.708332E+00   0.504940E+02   0.995142E-15
   LPB:    5  -0.226085384949570E+00   0.181677678982914E+00   0.316091E-01   0.111474E+01   0.166415E+03   0.218787E-14
  Finished solving LPB equations
  A_corr:   -0.153319976814007     
 End minimization
 Ecorr=   3339.62807416356     
 A_corr= -0.153319976814007     
 Ecorr_band=  -3339.78139414038     
 End Solvation calculations
RMM:  12    -0.249797028780E+03    0.12095E+01   -0.11676E+00 16327   0.177E+00    0.897E+00
 Begin Solvation calculations
  rms_SCF =    2.39703989409367      tol =   0.239703989409367     
 Begin minimization
 Creating dielectric and ionic cavities
  area:      138.499548337003     
  volume:    744.609069763565     
  Acav:     7.271226287692653E-002
  Solving linear dielectric/ionic screening model
        iter                  A_solv                     rms
   LPB:       -0.254698167258902E+00   0.149057904348887E+01
   LPB:    0  -0.250668353094131E+00   0.150882699821707E+01   0.162313E-01   0.000000E+00   0.305920E+02   0.496548E+00
   LPB:    1  -0.238538027518436E+00   0.392267457867798E+00   0.102682E-01   0.000000E+00   0.945342E+02  -0.799596E-17
   LPB:    2  -0.235893759324362E+00   0.111242307096773E+00   0.179303E-01   0.124836E+00   0.198148E+03   0.130255E-14
   LPB:    3  -0.234616755518232E+00   0.149228821501903E+00   0.305268E-01   0.283656E+00   0.292244E+03   0.152613E-14
   LPB:    4  -0.233526973780333E+00   0.133079075668333E+00   0.322499E-01   0.807793E+00   0.789537E+02   0.110264E-14
  Finished solving LPB equations
  A_corr:   -0.160814710903407     
 End minimization
 Ecorr=   3320.15748185763     
 A_corr= -0.160814710903407     
 Ecorr_band=  -3320.31829656853     
 End Solvation calculations
RMM:  13    -0.249238335498E+03    0.55869E+00   -0.43144E-01 16294   0.113E+00    0.323E+00
 Begin Solvation calculations
  rms_SCF =    2.39703989409367      tol =   0.239703989409367     
 Begin minimization
 Creating dielectric and ionic cavities
  area:      138.510070101387     
  volume:    742.811688133038     
  Acav:     7.271778680322825E-002
  Solving linear dielectric/ionic screening model
        iter                  A_solv                     rms
   LPB:       -0.239536764974443E+00   0.601136985901094E+00
   LPB:    0  -0.239436654723277E+00   0.617261523676405E+00   0.255478E-02   0.000000E+00   0.306763E+02   0.783710E-01
   LPB:    1  -0.235411297933439E+00   0.238568105294132E+00   0.151535E-01   0.000000E+00   0.896294E+02   0.307905E-17
   LPB:    2  -0.234564703718582E+00   0.123191876370376E+00   0.148973E-01   0.213933E+00   0.232661E+03  -0.344654E-15
   LPB:    3  -0.233819671256801E+00   0.102153317831469E+00   0.347099E-01   0.377705E+00   0.108236E+03  -0.387516E-15
   LPB:    4  -0.233049657410779E+00   0.101900686984296E+00   0.410735E-01   0.873403E+00   0.815098E+02  -0.943533E-15
  Finished solving LPB equations
  A_corr:   -0.160331870607550     
 End minimization
 Ecorr=   3312.30662660885     
 A_corr= -0.160331870607550     
 Ecorr_band=  -3312.46695847946     
 End Solvation calculations
RMM:  14    -0.249207741202E+03    0.30594E-01   -0.44077E-02 16317   0.376E-01    0.277E+00
 Begin Solvation calculations
  rms_SCF =    2.39703989409367      tol =   0.239703989409367     
 Begin minimization
 Creating dielectric and ionic cavities
  area:      138.639200087057     
  volume:    742.123271566140     
  Acav:     7.278558004570478E-002
  Solving linear dielectric/ionic screening model
        iter                  A_solv                     rms
   LPB:       -0.235136415975640E+00   0.494221169160328E+00
   LPB:    0  -0.235136205300731E+00   0.493230427318213E+00  -0.117136E-03   0.000000E+00   0.307085E+02  -0.359709E-02
   LPB:    1  -0.233810582698441E+00   0.150866736950509E+00   0.124210E-01   0.000000E+00   0.695810E+02   0.122366E-18
   LPB:    2  -0.233462884685235E+00   0.328873150781317E-01   0.153136E-01   0.212746E+00   0.245547E+03   0.582575E-15
   LPB:    3  -0.233054965761254E+00   0.336279225892352E-01   0.688579E-01   0.260913E+00   0.116955E+03   0.617558E-15
   LPB:    4  -0.232506747440072E+00   0.555081094464255E-01   0.492979E-01   0.187718E+01   0.547895E+02   0.141745E-15
  Finished solving LPB equations
  A_corr:   -0.159721167394368     
 End minimization
 Ecorr=   3305.66882811576     
 A_corr= -0.159721167394368     
 Ecorr_band=  -3305.82854928315     
 End Solvation calculations
RMM:  15    -0.249187057476E+03    0.20684E-01   -0.11023E-02 16314   0.177E-01    0.237E+00
 Begin Solvation calculations
  rms_SCF =    2.39703989409367      tol =   0.239703989409367     
 Begin minimization
 Creating dielectric and ionic cavities
  area:      139.804981012426     
  volume:    736.745060510246     
  Acav:     7.339761503152363E-002
  Solving linear dielectric/ionic screening model
        iter                  A_solv                     rms
   LPB:       -0.287148840496584E+00   0.107173076851896E+01
   LPB:    0  -0.285882560951064E+00   0.136206111388323E+01   0.904429E-02   0.000000E+00   0.309607E+02   0.280017E+00
   LPB:    1  -0.250990136621837E+00   0.647350131674963E+00   0.141911E-01   0.000000E+00   0.141737E+03  -0.226972E-16
   LPB:    2  -0.246707550692750E+00   0.165950212798632E+00   0.149748E-01   0.116313E+00   0.897392E+02   0.962911E-14
   LPB:    3  -0.245542925779168E+00   0.131548659178523E+00   0.216938E-01   0.187718E+00   0.259334E+03   0.818691E-14
   LPB:    4  -0.245062046597139E+00   0.129555992392425E+00   0.203246E-01   0.440720E+00   0.126401E+03   0.816101E-14
  Finished solving LPB equations
  A_corr:   -0.171664431565615     
 End minimization
 Ecorr=   3289.62206880991     
 A_corr= -0.171664431565615     
 Ecorr_band=  -3289.79373324148     
 End Solvation calculations
RMM:  16    -0.249235908550E+03   -0.48851E-01   -0.60789E-02 16292   0.424E-01    0.317E+00
 Begin Solvation calculations
  rms_SCF =    2.39703989409367      tol =   0.239703989409367     
 Begin minimization
 Creating dielectric and ionic cavities
  area:      140.684000531646     
  volume:    733.391208502195     
  Acav:     7.385910027911406E-002
  Solving linear dielectric/ionic screening model
        iter                  A_solv                     rms
   LPB:       -0.276912389607772E+00   0.707884513046979E+00
   LPB:    0  -0.275926485487564E+00   0.930819665691113E+00   0.796026E-02   0.000000E+00   0.311179E+02   0.247707E+00
   LPB:    1  -0.259141416219295E+00   0.523399703380905E+00   0.137125E-01   0.000000E+00   0.160638E+03   0.113321E-16
   LPB:    2  -0.256895226992566E+00   0.158203247190444E+00   0.148071E-01   0.123928E+00   0.783629E+02  -0.106870E-14
   LPB:    3  -0.255920944331874E+00   0.141802584623845E+00   0.243919E-01   0.263308E+00   0.240062E+03  -0.174825E-14
   LPB:    4  -0.255238859848126E+00   0.138348394919703E+00   0.243387E-01   0.701619E+00   0.984444E+02  -0.163471E-14
  Finished solving LPB equations
  A_corr:   -0.181379759569012     
 End minimization
 Ecorr=   3276.79780263319     
 A_corr= -0.181379759569012     
 Ecorr_band=  -3276.97918239276     
 End Solvation calculations
RMM:  17    -0.249187728019E+03    0.48181E-01   -0.45951E-02 16299   0.370E-01    0.209E+00
 Begin Solvation calculations
  rms_SCF =    2.39703989409367      tol =   0.239703989409367     
 Begin minimization
 Creating dielectric and ionic cavities
  area:      141.045992256642     
  volume:    732.268507453165     
  Acav:     7.404914593473726E-002
  Solving linear dielectric/ionic screening model
        iter                  A_solv                     rms
   LPB:       -0.264336005649839E+00   0.491581575907311E+00
   LPB:    0  -0.264073379696118E+00   0.547010479619498E+00   0.410499E-02   0.000000E+00   0.311705E+02   0.127955E+00
   LPB:    1  -0.260171303074076E+00   0.132221372204384E+00   0.148265E-01   0.000000E+00   0.106645E+03  -0.633743E-17
   LPB:    2  -0.259684327682062E+00   0.112259833174461E+00   0.169742E-01   0.109009E+00   0.196284E+03  -0.879454E-15
   LPB:    3  -0.259184362749896E+00   0.157026617093063E+00   0.360818E-01   0.482984E+00   0.575812E+02  -0.111567E-14
   LPB:    4  -0.258580199822347E+00   0.129624724457131E+00   0.305021E-01   0.142946E+01   0.107517E+03  -0.176184E-14
  Finished solving LPB equations
  A_corr:   -0.184531053887609     
 End minimization
 Ecorr=   3268.75106334297     
 A_corr= -0.184531053887609     
 Ecorr_band=  -3268.93559439685     
 End Solvation calculations
RMM:  18    -0.249171485107E+03    0.16243E-01   -0.14006E-02 16318   0.196E-01    0.149E+00
 Begin Solvation calculations
  rms_SCF =    2.17549035453872      tol =   0.217549035453872     
 Begin minimization
 Creating dielectric and ionic cavities
  area:      141.513007145757     
  volume:    730.881873173182     
  Acav:     7.429432875152255E-002
  Solving linear dielectric/ionic screening model
        iter                  A_solv                     rms
   LPB:       -0.271381353884302E+00   0.592905560456678E+00
   LPB:    0  -0.270663910490960E+00   0.652952075922691E+00   0.677773E-02   0.000000E+00   0.312356E+02   0.211706E+00
   LPB:    1  -0.264917706441255E+00   0.159792150855283E+00   0.144722E-01   0.000000E+00   0.116602E+03  -0.807116E-17
   LPB:    2  -0.264387036890363E+00   0.952938186379511E-01   0.144274E-01   0.926379E-01   0.193614E+03   0.147888E-14
   LPB:    3  -0.264139071194593E+00   0.961672027031804E-01   0.265776E-01   0.253653E+00   0.747802E+02   0.155607E-14
   LPB:    4  -0.263854025338611E+00   0.107449720940690E+00   0.328731E-01   0.929391E+00   0.119808E+03   0.145882E-14
  Finished solving LPB equations
  A_corr:   -0.189559696587088     
 End minimization
 Ecorr=   3260.38202045919     
 A_corr= -0.189559696587088     
 Ecorr_band=  -3260.57158015577     
 End Solvation calculations
RMM:  19    -0.249155502711E+03    0.15982E-01   -0.82849E-03 16311   0.153E-01    0.690E-01
 Begin Solvation calculations
  rms_SCF =    1.22125997289620      tol =   0.122125997289620     
 Begin minimization
 Creating dielectric and ionic cavities
  area:      141.706849211052     
  volume:    730.342068604457     
  Acav:     7.439609583580208E-002
  Solving linear dielectric/ionic screening model
        iter                  A_solv                     rms
   LPB:       -0.268007780645319E+00   0.399284751025206E+00
   LPB:    0  -0.267936525025807E+00   0.413666572143609E+00   0.213513E-02   0.000000E+00   0.312609E+02   0.667460E-01
   LPB:    1  -0.266095893164184E+00   0.960438712016182E-01   0.143513E-01   0.000000E+00   0.101486E+03   0.885639E-18
   LPB:    2  -0.265908271724414E+00   0.696201898729422E-01   0.144806E-01   0.101023E+00   0.227441E+03  -0.254704E-15
   LPB:    3  -0.265746087982998E+00   0.796834774865941E-01   0.337680E-01   0.370687E+00   0.648933E+02  -0.325087E-15
   LPB:    4  -0.265466374119865E+00   0.871544510567293E-01   0.405647E-01   0.143570E+01   0.796526E+02  -0.642790E-15
  Finished solving LPB equations
  A_corr:   -0.191070278284063     
 End minimization
 Ecorr=   3256.14328677538     
 A_corr= -0.191070278284063     
 Ecorr_band=  -3256.33435705366     
 End Solvation calculations
RMM:  20    -0.249155717145E+03   -0.21443E-03   -0.27760E-03 14613   0.835E-02    0.797E-01
 Begin Solvation calculations
  rms_SCF =    1.22125997289620      tol =   0.122125997289620     
 Begin minimization
 Creating dielectric and ionic cavities
  area:      142.037513252132     
  volume:    729.420241001841     
  Acav:     7.456969445736907E-002
  Solving linear dielectric/ionic screening model
        iter                  A_solv                     rms
   LPB:       -0.275955528804311E+00   0.788293336431585E+00
   LPB:    0  -0.275876738946725E+00   0.813020982182873E+00   0.224362E-02   0.000000E+00   0.313041E+02   0.702345E-01
   LPB:    1  -0.269887273548522E+00   0.189982975225574E+00   0.139758E-01   0.000000E+00   0.896201E+02  -0.200355E-17
   LPB:    2  -0.269319585676272E+00   0.940024321417720E-01   0.127556E-01   0.103847E+00   0.221308E+03   0.398989E-15
   LPB:    3  -0.269156803600941E+00   0.541786048441188E-01   0.201160E-01   0.181827E+00   0.961875E+02   0.104844E-14
   LPB:    4  -0.269037476185958E+00   0.597570315238379E-01   0.289424E-01   0.509494E+00   0.132634E+03   0.123383E-14
  Finished solving LPB equations
  A_corr:   -0.194467781728589     
 End minimization
 Ecorr=   3252.15210685477     
 A_corr= -0.194467781728589     
 Ecorr_band=  -3252.34657463650     
 End Solvation calculations
RMM:  21    -0.249150705543E+03    0.50116E-02   -0.18851E-03 13872   0.639E-02    0.395E-01
 Begin Solvation calculations
  rms_SCF =   0.613381442349873      tol =   6.133814423498728E-002
 Begin minimization
 Creating dielectric and ionic cavities
  area:      142.193143913752     
  volume:    729.037544245855     
  Acav:     7.465140055471974E-002
  Solving linear dielectric/ionic screening model
        iter                  A_solv                     rms
   LPB:       -0.272052140184892E+00   0.280921667309642E+00
   LPB:    0  -0.272033060813928E+00   0.290988623194702E+00   0.110375E-02   0.000000E+00   0.313220E+02   0.345718E-01
   LPB:    1  -0.270839119991819E+00   0.639381499518621E-01   0.146984E-01   0.000000E+00   0.127313E+03   0.142929E-17
   LPB:    2  -0.270712273846135E+00   0.461294789209538E-01   0.183083E-01   0.852934E-01   0.132533E+03   0.204202E-15
   LPB:    3  -0.270598214492871E+00   0.563841391189351E-01   0.375654E-01   0.438242E+00   0.597995E+02   0.495249E-15
   LPB:    4  -0.270451478325459E+00   0.570125477379244E-01   0.372439E-01   0.129759E+01   0.156362E+03   0.558841E-15
  Finished solving LPB equations
  A_corr:   -0.195800077770739     
 End minimization
 Ecorr=   3250.32457167165     
 A_corr= -0.195800077770739     
 Ecorr_band=  -3250.52037174942     
 End Solvation calculations
RMM:  22    -0.249151340586E+03   -0.63504E-03   -0.11358E-03 13692   0.548E-02    0.535E-01
 Begin Solvation calculations
  rms_SCF =   0.613381442349873      tol =   6.133814423498728E-002
 Begin minimization
 Creating dielectric and ionic cavities
  area:      142.737611745250     
  volume:    727.794551780165     
  Acav:     7.493724616625644E-002
  Solving linear dielectric/ionic screening model
        iter                  A_solv                     rms
   LPB:       -0.297278826603024E+00   0.137479447435933E+01
   LPB:    0  -0.297180638401842E+00   0.141460009751852E+01   0.250159E-02   0.000000E+00   0.313803E+02   0.785006E-01
   LPB:    1  -0.279624179317255E+00   0.322179140991031E+00   0.138555E-01   0.000000E+00   0.862274E+02   0.814299E-18
   LPB:    2  -0.277852180585858E+00   0.146254466932386E+00   0.132333E-01   0.105677E+00   0.192727E+03   0.121412E-14
   LPB:    3  -0.277479470064652E+00   0.834611520974219E-01   0.179475E-01   0.155085E+00   0.104031E+03   0.118814E-14
   LPB:    4  -0.277301845586663E+00   0.736534777214294E-01   0.218595E-01   0.391286E+00   0.177325E+03   0.995213E-15
   LPB:    5  -0.277160927713562E+00   0.433231076355327E-01   0.283391E-01   0.611953E+00   0.872367E+02   0.930317E-15
  Finished solving LPB equations
  A_corr:   -0.202223681547306     
 End minimization
 Ecorr=   3244.84600678615     
 A_corr= -0.202223681547306     
 Ecorr_band=  -3245.04823046770     
 End Solvation calculations
RMM:  23    -0.249149699439E+03    0.16411E-02   -0.14894E-03 13573   0.468E-02    0.314E-01
 Begin Solvation calculations
  rms_SCF =   0.322581194361612      tol =   3.225811943616115E-002
 Begin minimization
 Creating dielectric and ionic cavities
  area:      142.894527054864     
  volume:    727.518015741061     
  Acav:     7.501962670380381E-002
  Solving linear dielectric/ionic screening model
        iter                  A_solv                     rms
   LPB:       -0.281591331576567E+00   0.454759538788623E+00
   LPB:    0  -0.281586144593920E+00   0.465467077370432E+00   0.574850E-03   0.000000E+00   0.313933E+02   0.180464E-01
   LPB:    1  -0.279496832362892E+00   0.106636198283243E+00   0.141605E-01   0.000000E+00   0.892527E+02  -0.132701E-17
   LPB:    2  -0.279283927420769E+00   0.459588706753009E-01   0.144366E-01   0.999526E-01   0.147032E+03  -0.317765E-15
   LPB:    3  -0.279197232052300E+00   0.520109509243658E-01   0.292346E-01   0.201085E+00   0.785895E+02  -0.257177E-15
   LPB:    4  -0.279089802680812E+00   0.760421705834730E-01   0.333544E-01   0.108610E+01   0.132547E+03  -0.396699E-15
   LPB:    5  -0.278981054087388E+00   0.470235407739973E-01   0.249759E-01   0.135186E+01   0.629972E+02  -0.472056E-15
   LPB:    6  -0.278905432056785E+00   0.126236996576138E-01   0.295399E-01   0.587945E+00   0.138416E+03  -0.362129E-15
  Finished solving LPB equations
  A_corr:   -0.203885805352981     
 End minimization
 Ecorr=   3242.03125814258     
 A_corr= -0.203885805352981     
 Ecorr_band=  -3242.23514394793     
 End Solvation calculations
RMM:  24    -0.249150616806E+03   -0.91737E-03   -0.67090E-04 12888   0.396E-02    0.456E-01
 Begin Solvation calculations
  rms_SCF =   0.322581194361612      tol =   3.225811943616115E-002
 Begin minimization
 Creating dielectric and ionic cavities
  area:      143.108659514220     
  volume:    727.170299604315     
  Acav:     7.513204624496528E-002
  Solving linear dielectric/ionic screening model
        iter                  A_solv                     rms
   LPB:       -0.288524712795006E+00   0.879209954071754E+00
   LPB:    0  -0.288524434367773E+00   0.880886934924173E+00   0.133150E-03   0.000000E+00   0.314096E+02   0.418217E-02
   LPB:    1  -0.282866371188378E+00   0.187778265270510E+00   0.136333E-01   0.000000E+00   0.763752E+02  -0.399419E-18
   LPB:    2  -0.282292033109515E+00   0.851592143657294E-01   0.127058E-01   0.108918E+00   0.235085E+03  -0.204154E-15
   LPB:    3  -0.282182691479173E+00   0.327933639680392E-01   0.159330E-01   0.151818E+00   0.123317E+03  -0.245260E-15
   LPB:    4  -0.282145512072725E+00   0.316882270478349E-01   0.217966E-01   0.248557E+00   0.177853E+03  -0.783915E-16
  Finished solving LPB equations
  A_corr:   -0.207013465827760     
 End minimization
 Ecorr=   3239.80501732058     
 A_corr= -0.207013465827760     
 Ecorr_band=  -3240.01203078641     
 End Solvation calculations
RMM:  25    -0.249149926840E+03    0.68997E-03   -0.51508E-04 12230   0.286E-02    0.279E-01
 Begin Solvation calculations
  rms_SCF =   0.228265991582628      tol =   2.282659915826276E-002
 Begin minimization
 Creating dielectric and ionic cavities
  area:      143.192365985228     
  volume:    727.092491595398     
  Acav:     7.517599214224489E-002
  Solving linear dielectric/ionic screening model
        iter                  A_solv                     rms
   LPB:       -0.284993731054199E+00   0.433202788343314E+00
   LPB:    0  -0.284992948832313E+00   0.431186445010943E+00  -0.223164E-03   0.000000E+00   0.314132E+02  -0.701029E-02
   LPB:    1  -0.283663932282446E+00   0.856099406298229E-01   0.137880E-01   0.000000E+00   0.745403E+02  -0.613875E-19
   LPB:    2  -0.283536928212562E+00   0.506020755812398E-01   0.132422E-01   0.995010E-01   0.225859E+03   0.173296E-16
   LPB:    3  -0.283488217790965E+00   0.250590665355281E-01   0.210198E-01   0.241622E+00   0.874098E+02  -0.525372E-16
   LPB:    4  -0.283449853023649E+00   0.309470035402312E-01   0.313127E-01   0.528712E+00   0.154889E+03   0.716145E-16
   LPB:    5  -0.283418249114343E+00   0.283237844743425E-01   0.291952E-01   0.883521E+00   0.718878E+02   0.151433E-15
   LPB:    6  -0.283384499175446E+00   0.123034219842446E-01   0.359447E-01   0.867378E+00   0.948265E+02   0.483103E-15
  Finished solving LPB equations
  A_corr:   -0.208208507033201     
 End minimization
 Ecorr=   3239.05901948632     
 A_corr= -0.208208507033201     
 Ecorr_band=  -3239.26722799335     
 End Solvation calculations
RMM:  26    -0.249150330063E+03   -0.40322E-03   -0.18321E-04  9941   0.228E-02    0.287E-01
 Begin Solvation calculations
  rms_SCF =   0.228265991582628      tol =   2.282659915826276E-002
 Begin minimization
 Creating dielectric and ionic cavities
  area:      143.367407029642     
  volume:    726.985461174922     
  Acav:     7.526788869056183E-002
  Solving linear dielectric/ionic screening model
        iter                  A_solv                     rms
   LPB:       -0.295919158103150E+00   0.116817136382325E+01
   LPB:    0  -0.295895792465494E+00   0.115493447353177E+01  -0.121959E-02   0.000000E+00   0.314182E+02  -0.383173E-01
   LPB:    1  -0.287765590470381E+00   0.240205601103690E+00   0.132372E-01   0.000000E+00   0.685753E+02  -0.709943E-18
   LPB:    2  -0.286939129410632E+00   0.976137172365813E-01   0.121704E-01   0.110563E+00   0.248927E+03   0.210236E-15
   LPB:    3  -0.286775361997058E+00   0.313882191700795E-01   0.165145E-01   0.146032E+00   0.132736E+03   0.159357E-15
   LPB:    4  -0.286725192243366E+00   0.344860889481970E-01   0.227029E-01   0.222842E+00   0.192565E+03   0.213887E-15
   LPB:    5  -0.286696892193816E+00   0.218975771952983E-01   0.258380E-01   0.495643E+00   0.753034E+02   0.188656E-15
  Finished solving LPB equations
  A_corr:   -0.211429003503254     
 End minimization
 Ecorr=   3238.05896169848     
 A_corr= -0.211429003503254     
 Ecorr_band=  -3238.27039070198     
 End Solvation calculations
RMM:  27    -0.249150866407E+03   -0.53634E-03   -0.40341E-04 11575   0.253E-02    0.202E-01
 Begin Solvation calculations
  rms_SCF =   0.124905178232260      tol =   1.249051782322596E-002
 Begin minimization
 Creating dielectric and ionic cavities
  area:      143.547962927918     
  volume:    726.926971755600     
  Acav:     7.536268053715688E-002
  Solving linear dielectric/ionic screening model
        iter                  A_solv                     rms
   LPB:       -0.301368222137310E+00   0.126971049499807E+01
   LPB:    0  -0.301334769588582E+00   0.125235637230304E+01  -0.145922E-02   0.000000E+00   0.314210E+02  -0.458500E-01
   LPB:    1  -0.291887765329372E+00   0.257285805163684E+00   0.132050E-01   0.000000E+00   0.678153E+02   0.907874E-18
   LPB:    2  -0.290943211118507E+00   0.106164098027752E+00   0.121594E-01   0.108582E+00   0.240990E+03  -0.718000E-15
   LPB:    3  -0.290737021189845E+00   0.402975390819320E-01   0.176861E-01   0.150079E+00   0.120079E+03  -0.949637E-15
   LPB:    4  -0.290648308407957E+00   0.483453332517214E-01   0.251483E-01   0.302580E+00   0.169962E+03  -0.864796E-15
   LPB:    5  -0.290592275065066E+00   0.287680351114339E-01   0.260157E-01   0.610568E+00   0.712745E+02  -0.773899E-15
   LPB:    6  -0.290548585133523E+00   0.117626361497028E-01   0.328182E-01   0.618095E+00   0.143702E+03  -0.735450E-15
  Finished solving LPB equations
  A_corr:   -0.215185904596367     
 End minimization
 Ecorr=   3236.61349702939     
 A_corr= -0.215185904596367     
 Ecorr_band=  -3236.82868293398     
 End Solvation calculations
RMM:  28    -0.249151675963E+03   -0.80956E-03   -0.37288E-04 11235   0.244E-02    0.150E-01
 Begin Solvation calculations
  rms_SCF =   6.335972518782566E-002 tol =   6.335972518782566E-003
 Begin minimization
 Creating dielectric and ionic cavities
  area:      143.623878353592     
  volume:    726.915064717801     
  Acav:     7.540253613563555E-002
  Solving linear dielectric/ionic screening model
        iter                  A_solv                     rms
   LPB:       -0.294532462100048E+00   0.585379328744512E+00
   LPB:    0  -0.294522706976277E+00   0.577088807494981E+00  -0.787985E-03   0.000000E+00   0.314215E+02  -0.247597E-01
   LPB:    1  -0.292682016467046E+00   0.118302910553382E+00   0.129243E-01   0.000000E+00   0.653140E+02  -0.384772E-18
   LPB:    2  -0.292487820721400E+00   0.458591752225846E-01   0.120559E-01   0.113101E+00   0.250277E+03  -0.736719E-16
   LPB:    3  -0.292446941355008E+00   0.149889557146941E-01   0.176317E-01   0.143936E+00   0.126999E+03   0.569618E-17
   LPB:    4  -0.292424002431259E+00   0.264107421729320E-01   0.336499E-01   0.294023E+00   0.134396E+03   0.734179E-16
   LPB:    5  -0.292396927023062E+00   0.263222544275604E-01   0.359580E-01   0.110456E+01   0.538454E+02  -0.322397E-16
   LPB:    6  -0.292368102818529E+00   0.102530173986740E-01   0.331728E-01   0.115397E+01   0.738311E+02  -0.187010E-15
   LPB:    7  -0.292351433941692E+00   0.403791182680026E-02   0.308459E-01   0.621920E+00   0.202164E+03  -0.100402E-15
  Finished solving LPB equations
  A_corr:   -0.216948897806057     
 End minimization
 Ecorr=   3235.97891712930     
 A_corr= -0.216948897806057     
 Ecorr_band=  -3236.19586602711     
 End Solvation calculations
RMM:  29    -0.249151927921E+03   -0.25196E-03   -0.12263E-04  9469   0.157E-02    0.118E-01
 Begin Solvation calculations
  rms_SCF =   6.335972518782566E-002 tol =   6.335972518782566E-003
 Begin minimization
 Creating dielectric and ionic cavities
  area:      143.738344434074     
  volume:    726.928520681488     
  Acav:     7.546263082788876E-002
  Solving linear dielectric/ionic screening model
        iter                  A_solv                     rms
   LPB:       -0.302351109362561E+00   0.109368944665346E+01
   LPB:    0  -0.302300630517640E+00   0.107374982808654E+01  -0.179251E-02   0.000000E+00   0.314209E+02  -0.563221E-01
   LPB:    1  -0.296585443460217E+00   0.216198800354063E+00   0.125058E-01   0.000000E+00   0.624224E+02   0.103845E-17
   LPB:    2  -0.295961369521412E+00   0.696886301824068E-01   0.118173E-01   0.115558E+00   0.255257E+03   0.186886E-14
   LPB:    3  -0.295850367454534E+00   0.218205069323075E-01   0.172888E-01   0.121577E+00   0.153177E+03   0.201050E-14
   LPB:    4  -0.295822254329766E+00   0.231165317183506E-01   0.220786E-01   0.198322E+00   0.186867E+03   0.209535E-14
   LPB:    5  -0.295809711606670E+00   0.139016145833464E-01   0.237662E-01   0.414471E+00   0.875235E+02   0.212241E-14
   LPB:    6  -0.295799922266567E+00   0.646522989517076E-02   0.330865E-01   0.560622E+00   0.121035E+03   0.213693E-14
   LPB:    7  -0.295790708786738E+00   0.359612850511653E-02   0.406017E-01   0.766968E+00   0.119015E+03   0.220583E-14
  Finished solving LPB equations
  A_corr:   -0.220328077958850     
 End minimization
 Ecorr=   3234.97974760372     
 A_corr= -0.220328077958850     
 Ecorr_band=  -3235.20007568168     
 End Solvation calculations
RMM:  30    -0.249152402901E+03   -0.47498E-03   -0.23716E-04 10295   0.165E-02    0.166E-01
 Begin Solvation calculations
  rms_SCF =   6.335972518782566E-002 tol =   6.335972518782566E-003
 Begin minimization
 Creating dielectric and ionic cavities
  area:      143.749809239219     
  volume:    726.972581597271     
  Acav:     7.546864985058989E-002
  Solving linear dielectric/ionic screening model
        iter                  A_solv                     rms
   LPB:       -0.296845453611723E+00   0.276157546834481E+00
   LPB:    0  -0.296838358703031E+00   0.269043480318812E+00  -0.672037E-03   0.000000E+00   0.314188E+02  -0.211146E-01
   LPB:    1  -0.296520623784899E+00   0.505835462186898E-01   0.119147E-01   0.000000E+00   0.611108E+02   0.137079E-17
   LPB:    2  -0.296486112284112E+00   0.153613713854253E-01   0.117441E-01   0.110196E+00   0.252652E+03   0.302641E-16
   LPB:    3  -0.296479342753134E+00   0.472087129922271E-02   0.193483E-01   0.119061E+00   0.140516E+03   0.321617E-16
   LPB:    4  -0.296476171454360E+00   0.851840062832455E-02   0.343288E-01   0.264036E+00   0.133658E+03   0.398602E-16
   LPB:    5  -0.296471254732898E+00   0.128289365715820E-01   0.462265E-01   0.115135E+01   0.636398E+02   0.518625E-16
   LPB:    6  -0.296464038951225E+00   0.683812460759852E-02   0.371323E-01   0.182704E+01   0.468197E+02   0.198723E-15
   LPB:    7  -0.296459870028122E+00   0.221573011980990E-02   0.269096E-01   0.797232E+00   0.110506E+03   0.690092E-15
  Finished solving LPB equations
  A_corr:   -0.220991220177532     
 End minimization
 Ecorr=   3234.70680867045     
 A_corr= -0.220991220177532     
 Ecorr_band=  -3234.92779989063     
 End Solvation calculations
RMM:  31    -0.249152366409E+03    0.36492E-04   -0.49367E-05  8709   0.103E-02
 Begin Solvation calculations
  rms_SCF =   6.335972518782566E-002 tol =   6.335972518782566E-003
 Begin minimization
 Creating dielectric and ionic cavities
  area:      143.757736454311     
  volume:    727.146598781969     
  Acav:     7.547281163851323E-002
  Solving linear dielectric/ionic screening model
        iter                  A_solv                     rms
   LPB:       -0.302493970522023E+00   0.961066175285412E+00
   LPB:    0  -0.302384297336465E+00   0.934600354671851E+00  -0.264257E-02   0.000000E+00   0.314107E+02  -0.830049E-01
   LPB:    1  -0.298985265696907E+00   0.160882274134127E+00   0.112368E-01   0.000000E+00   0.610370E+02  -0.579976E-17
   LPB:    2  -0.298616430559742E+00   0.420964885534337E-01   0.117050E-01   0.104171E+00   0.246550E+03   0.591422E-15
   LPB:    3  -0.298564465954702E+00   0.942695178038290E-02   0.180495E-01   0.913653E-01   0.152530E+03   0.609806E-15
   LPB:    4  -0.298553551731657E+00   0.994870283852315E-02   0.241956E-01   0.156680E+00   0.207763E+03   0.594288E-15
   LPB:    5  -0.298549711622831E+00   0.837804764678925E-02   0.240018E-01   0.354685E+00   0.133804E+03   0.533587E-15
   LPB:    6  -0.298547645007446E+00   0.411968863479541E-02   0.251198E-01   0.514215E+00   0.103599E+03   0.493300E-15
  Finished solving LPB equations
  A_corr:   -0.223074833368932     
 End minimization
 Ecorr=   3234.52018314275     
 A_corr= -0.223074833368932     
 Ecorr_band=  -3234.74325797612     
 End Solvation calculations
   1 F= -.24915237E+03 E0= -.24915207E+03  d E =-.249152E+03
quench:  g(F)=  0.000E+00 g(S)=  0.000E+00 dE (1.order)= 0.000E+00
 bond charge predicted
       N       E                     dE             d eps       ncg     rms          rms(c)
 Begin Solvation calculations
  rms_SCF =   6.335972518782566E-002 tol =   6.335972518782566E-003
 Begin minimization
 Creating dielectric and ionic cavities
  area:      143.761123880594     
  volume:    727.144873168007     
  Acav:     7.547459003731186E-002
  Solving linear dielectric/ionic screening model
        iter                  A_solv                     rms
   LPB:       -0.298588378633502E+00   0.424600132754657E-02
   LPB:    0  -0.298588378632137E+00   0.425768145746316E-02  -0.294710E-06   0.000000E+00   0.314108E+02  -0.925708E-05
   LPB:    1  -0.298564390062973E+00   0.301382331471989E-02   0.155583E-01   0.000000E+00   0.765759E+04  -0.910236E-22
   LPB:    2  -0.298561175829012E+00   0.494017146592509E-02   0.286872E-01   0.726687E-01   0.687999E+03  -0.122058E-16
   LPB:    3  -0.298559784774272E+00   0.611522553213815E-02   0.275303E-01   0.450966E+00   0.165553E+03  -0.273050E-16
   LPB:    4  -0.298558645979784E+00   0.342449736793758E-02   0.278509E-01   0.809232E+00   0.143999E+03  -0.687129E-16
  Finished solving LPB equations
  A_corr:   -0.223084055942472     
 End minimization
 Ecorr=   3234.50377316257     
 A_corr= -0.223084055942472     
 Ecorr_band=  -3234.72685721851     
 End Solvation calculations
DAV:   1    -0.249152745364E+03   -0.34246E-03   -0.19465E-03 16401   0.119E-01    0.157E-01
 Begin Solvation calculations
  rms_SCF =   6.335972518782566E-002 tol =   6.335972518782566E-003
 Begin minimization
 Creating dielectric and ionic cavities
  area:      143.712998667118     
  volume:    727.200664517605     
  Acav:     7.544932430023671E-002
  Solving linear dielectric/ionic screening model
        iter                  A_solv                     rms
   LPB:       -0.314201369315661E+00   0.215901931327191E+01
   LPB:    0  -0.314190557917668E+00   0.215758943969189E+01  -0.829726E-03   0.000000E+00   0.314081E+02  -0.260602E-01
   LPB:    1  -0.302369885012069E+00   0.212886930575188E+00   0.872139E-02   0.000000E+00   0.667252E+02   0.977072E-18
   LPB:    2  -0.301327439839898E+00   0.390629704243874E-01   0.152002E-01   0.505998E-01   0.131483E+03  -0.828140E-16
   LPB:    3  -0.301214355068713E+00   0.137319994692176E-01   0.210225E-01   0.784360E-01   0.177269E+03   0.465084E-16
   LPB:    4  -0.301184111807374E+00   0.901558111809242E-02   0.269701E-01   0.208461E+00   0.313877E+03  -0.798952E-16
   LPB:    5  -0.301172905830051E+00   0.931417632914671E-02   0.271546E-01   0.368011E+00   0.227498E+03  -0.121709E-15
   LPB:    6  -0.301167546023484E+00   0.965767158885527E-02   0.263961E-01   0.492042E+00   0.154499E+03  -0.177905E-15
   LPB:    7  -0.301164387721495E+00   0.553986690758759E-02   0.253700E-01   0.613091E+00   0.114787E+03  -0.148682E-15
  Finished solving LPB equations
  A_corr:   -0.225715063421258     
 End minimization
 Ecorr=   3233.76239387122     
 A_corr= -0.225715063421258     
 Ecorr_band=  -3233.98810893464     
 End Solvation calculations
RMM:   2    -0.249214460216E+03   -0.61715E-01   -0.72617E-03 16269   0.123E-01    0.289E+00
 Begin Solvation calculations
  rms_SCF =   6.335972518782566E-002 tol =   6.335972518782566E-003
 Begin minimization
 Creating dielectric and ionic cavities
  area:      143.764039945691     
  volume:    727.224755511140     
  Acav:     7.547612097148755E-002
  Solving linear dielectric/ionic screening model
        iter                  A_solv                     rms
   LPB:       -0.307474261248564E+00   0.176590376348263E+01
   LPB:    0  -0.307453766403463E+00   0.176271416872700E+01   0.114242E-02   0.000000E+00   0.314070E+02   0.358798E-01
   LPB:    1  -0.299628222086084E+00   0.170479118560036E+00   0.862930E-02   0.000000E+00   0.675644E+02  -0.159327E-17
   LPB:    2  -0.298946302646192E+00   0.269801734719197E-01   0.157973E-01   0.476006E-01   0.123213E+03   0.463438E-15
   LPB:    3  -0.298872169321117E+00   0.960744831626568E-02   0.214464E-01   0.800771E-01   0.232249E+03   0.487189E-15
   LPB:    4  -0.298852073733265E+00   0.401399150962915E-02   0.268537E-01   0.216490E+00   0.435716E+03   0.479498E-15
  Finished solving LPB equations
  A_corr:   -0.223375952761777     
 End minimization
 Ecorr=   3234.13670955956     
 A_corr= -0.223375952761777     
 Ecorr_band=  -3234.36008551232     
 End Solvation calculations
RMM:   3    -0.249153308313E+03    0.61152E-01   -0.49905E-03 15622   0.110E-01    0.244E-01
 Begin Solvation calculations
  rms_SCF =   6.335972518782566E-002 tol =   6.335972518782566E-003
 Begin minimization
 Creating dielectric and ionic cavities
  area:      143.755980649343     
  volume:    727.191395877420     
  Acav:     7.547188984090482E-002
  Solving linear dielectric/ionic screening model
        iter                  A_solv                     rms
   LPB:       -0.299048100993512E+00   0.965519476543111E-01
   LPB:    0  -0.299024995907849E+00   0.339293073072319E-01  -0.121295E-02   0.000000E+00   0.314086E+02  -0.380972E-01
   LPB:    1  -0.299012930097098E+00   0.772669815072520E-02   0.124574E-01   0.000000E+00   0.818479E+02   0.180593E-17
   LPB:    2  -0.299009298896509E+00   0.907302747781559E-02   0.274471E-01   0.136592E+00   0.485507E+03   0.141015E-15
   LPB:    3  -0.299006628809344E+00   0.639610857154501E-02   0.248543E-01   0.812028E+00   0.192542E+03   0.214409E-15
   LPB:    4  -0.299005514649858E+00   0.675032103107151E-02   0.204015E-01   0.508347E+00   0.257751E+03   0.260798E-15
   LPB:    5  -0.299004942888389E+00   0.195631873259810E-02   0.189571E-01   0.552278E+00   0.993029E+02   0.280371E-15
  Finished solving LPB equations
  A_corr:   -0.223533053047484     
 End minimization
 Ecorr=   3234.45403206284     
 A_corr= -0.223533053047484     
 Ecorr_band=  -3234.67756511589     
 End Solvation calculations
RMM:   4    -0.249152653610E+03    0.65470E-03   -0.50935E-04 12883   0.397E-02    0.810E-02
 Begin Solvation calculations
  rms_SCF =   6.335972518782566E-002 tol =   6.335972518782566E-003
 Begin minimization
 Creating dielectric and ionic cavities
  area:      143.749100863549     
  volume:    727.225230185499     
  Acav:     7.546827795336315E-002
  Solving linear dielectric/ionic screening model
        iter                  A_solv                     rms
   LPB:       -0.299089337844282E+00   0.307681990224262E-01
   LPB:    0  -0.299088955636244E+00   0.300894413982390E-01   0.156010E-03   0.000000E+00   0.314070E+02   0.489980E-02
   LPB:    1  -0.299076916112933E+00   0.723679665057956E-02   0.119412E-01   0.000000E+00   0.183431E+03   0.859031E-19
   LPB:    2  -0.299076411717526E+00   0.335630594319250E-02   0.136264E-01   0.367136E-01   0.841354E+02  -0.136876E-16
   LPB:    3  -0.299076066033744E+00   0.272225049255114E-02   0.257774E-01   0.362286E+00   0.848376E+02   0.172572E-16
   LPB:    4  -0.299075719782021E+00   0.296179455886284E-02   0.369605E-01   0.698576E+00   0.222972E+03   0.334443E-16
  Finished solving LPB equations
  A_corr:   -0.223607441828658     
 End minimization
 Ecorr=   3234.17749163822     
 A_corr= -0.223607441828658     
 Ecorr_band=  -3234.40109908005     
 End Solvation calculations
RMM:   5    -0.249152798696E+03   -0.14509E-03   -0.14270E-04  9500   0.204E-02    0.121E-01
 Begin Solvation calculations
  rms_SCF =   6.335972518782566E-002 tol =   6.335972518782566E-003
 Begin minimization
 Creating dielectric and ionic cavities
  area:      143.747531368640     
  volume:    727.228018228863     
  Acav:     7.546745396853620E-002
  Solving linear dielectric/ionic screening model
        iter                  A_solv                     rms
   LPB:       -0.299249504058145E+00   0.877880831065799E-01
   LPB:    0  -0.299245956732495E+00   0.791424450304147E-01  -0.475284E-03   0.000000E+00   0.314069E+02  -0.149272E-01
   LPB:    1  -0.299224937113889E+00   0.101496468177067E-01   0.971080E-02   0.000000E+00   0.685429E+02   0.534677E-18
   LPB:    2  -0.299223225887819E+00   0.235785905067594E-02   0.118414E-01   0.667629E-01   0.213439E+03   0.873616E-16
   LPB:    3  -0.299222978963330E+00   0.111473220406176E-02   0.232247E-01   0.735714E-01   0.122832E+03   0.910046E-16
   LPB:    4  -0.299222777109792E+00   0.196839967986308E-02   0.467331E-01   0.406254E+00   0.738096E+02   0.918100E-16
  Finished solving LPB equations
  A_corr:   -0.223755323141256     
 End minimization
 Ecorr=   3234.16422252678     
 A_corr= -0.223755323141256     
 Ecorr_band=  -3234.38797784992     
 End Solvation calculations
RMM:   6    -0.249152811759E+03   -0.13063E-04   -0.62338E-05  8756   0.157E-02
 Begin Solvation calculations
  rms_SCF =   6.335972518782566E-002 tol =   6.335972518782566E-003
 Begin minimization
 Creating dielectric and ionic cavities
  area:      143.746083264774     
  volume:    727.237484372279     
  Acav:     7.546669371400630E-002
  Solving linear dielectric/ionic screening model
        iter                  A_solv                     rms
   LPB:       -0.299397840294963E+00   0.944791082491731E-01
   LPB:    0  -0.299397003153548E+00   0.927298078962570E-01  -0.230890E-03   0.000000E+00   0.314064E+02  -0.725143E-02
   LPB:    1  -0.299371501916524E+00   0.103743046873776E-01   0.927946E-02   0.000000E+00   0.683769E+02   0.285542E-18
   LPB:    2  -0.299369410202070E+00   0.243112385108434E-02   0.125268E-01   0.607609E-01   0.198144E+03  -0.101412E-16
   LPB:    3  -0.299369177747164E+00   0.604233904967508E-03   0.220670E-01   0.630859E-01   0.965189E+02   0.317527E-18
   LPB:    4  -0.299368997893186E+00   0.727865193585687E-03   0.497437E-01   0.343231E+00   0.104838E+03   0.131587E-17
  Finished solving LPB equations
  A_corr:   -0.223902304179180     
 End minimization
 Ecorr=   3234.10363230027     
 A_corr= -0.223902304179180     
 Ecorr_band=  -3234.32753460445     
 End Solvation calculations
   2 F= -.24915281E+03 E0= -.24915258E+03  d E =-.445349E-03
quench:  g(F)=  0.000E+00 g(S)=  0.000E+00 dE (1.order)= 0.000E+00
 bond charge predicted
       N       E                     dE             d eps       ncg     rms          rms(c)
 Begin Solvation calculations
  rms_SCF =   6.335972518782566E-002 tol =   6.335972518782566E-003
 Begin minimization
 Creating dielectric and ionic cavities
  area:      143.753583792904     
  volume:    727.238161027628     
  Acav:     7.547063149127463E-002
  Solving linear dielectric/ionic screening model
        iter                  A_solv                     rms
   LPB:       -0.299468254653110E+00   0.124117881842955E-02
   LPB:    0  -0.299468254653078E+00   0.124077754383175E-02  -0.455312E-07   0.000000E+00   0.314064E+02  -0.142997E-05
   LPB:    1  -0.299386173713442E+00   0.700614010340132E-03   0.152032E-01   0.000000E+00   0.449689E+06   0.842920E-22
   LPB:    2  -0.299378095931735E+00   0.110283627109980E-02   0.276434E-01   0.541245E-01   0.354068E+05  -0.162788E-19
   LPB:    3  -0.299375310634854E+00   0.170478505913673E-02   0.335100E-01   0.284443E+00   0.345739E+04   0.275822E-17
   LPB:    4  -0.299374042584310E+00   0.428291380034431E-02   0.341503E-01   0.446730E+00   0.954206E+03   0.858370E-17
  Finished solving LPB equations
  A_corr:   -0.223903411093036     
 End minimization
 Ecorr=   3234.10832836088     
 A_corr= -0.223903411093036     
 Ecorr_band=  -3234.33223177197     
 End Solvation calculations
DAV:   1    -0.249152811678E+03   -0.12983E-04   -0.46412E-03 16479   0.159E-01    0.891E-02
 Begin Solvation calculations
  rms_SCF =   6.335972518782566E-002 tol =   6.335972518782566E-003
 Begin minimization
 Creating dielectric and ionic cavities
  area:      143.735556916678     
  volume:    727.232002728700     
  Acav:     7.546116738125613E-002
  Solving linear dielectric/ionic screening model
        iter                  A_solv                     rms
   LPB:       -0.304478933558097E+00   0.113780699227467E+01
   LPB:    0  -0.304446849601559E+00   0.113125982030041E+01  -0.142938E-02   0.000000E+00   0.314067E+02  -0.448921E-01
   LPB:    1  -0.301203093274353E+00   0.110969006248530E+00   0.868119E-02   0.000000E+00   0.670862E+02   0.249092E-17
   LPB:    2  -0.300927111816965E+00   0.184868543501765E-01   0.152362E-01   0.484769E-01   0.127005E+03   0.557809E-16
   LPB:    3  -0.300898083327906E+00   0.545810193155322E-02   0.207396E-01   0.772719E-01   0.207545E+03   0.160478E-15
   LPB:    4  -0.300890313082946E+00   0.331149502068345E-02   0.273721E-01   0.202816E+00   0.328371E+03   0.181802E-15
  Finished solving LPB equations
  A_corr:   -0.225429145701690     
 End minimization
 Ecorr=   3233.92028747374     
 A_corr= -0.225429145701690     
 Ecorr_band=  -3234.14571661944     
 End Solvation calculations
RMM:   2    -0.249172457105E+03   -0.19645E-01   -0.24991E-03 14674   0.748E-02    0.164E+00
 Begin Solvation calculations
  rms_SCF =   6.335972518782566E-002 tol =   6.335972518782566E-003
 Begin minimization
 Creating dielectric and ionic cavities
  area:      143.758028297766     
  volume:    727.253335716018     
  Acav:     7.547296485632718E-002
  Solving linear dielectric/ionic screening model
        iter                  A_solv                     rms
   LPB:       -0.302215317671150E+00   0.974213008073491E+00
   LPB:    0  -0.302203010555997E+00   0.971178555923968E+00   0.885297E-03   0.000000E+00   0.314057E+02   0.278034E-01
   LPB:    1  -0.299823232135410E+00   0.935622765177059E-01   0.863365E-02   0.000000E+00   0.675975E+02   0.512296E-18
   LPB:    2  -0.299613560327549E+00   0.141440819339339E-01   0.158486E-01   0.479964E-01   0.124594E+03  -0.106923E-15
   LPB:    3  -0.299592824312399E+00   0.424092367728441E-02   0.200715E-01   0.780901E-01   0.285286E+03  -0.154826E-15
   LPB:    4  -0.299588751072222E+00   0.190447033660736E-02   0.243075E-01   0.162201E+00   0.632017E+03  -0.159530E-15
  Finished solving LPB equations
  A_corr:   -0.224115786215895     
 End minimization
 Ecorr=   3234.01465194329     
 A_corr= -0.224115786215895     
 Ecorr_band=  -3234.23876772951     
 End Solvation calculations
RMM:   3    -0.249152959282E+03    0.19498E-01   -0.15285E-03 13735   0.626E-02    0.118E-01
 Begin Solvation calculations
  rms_SCF =   6.335972518782566E-002 tol =   6.335972518782566E-003
 Begin minimization
 Creating dielectric and ionic cavities
  area:      143.751615558514     
  volume:    727.257891080097     
  Acav:     7.546959816821966E-002
  Solving linear dielectric/ionic screening model
        iter                  A_solv                     rms
   LPB:       -0.299643322886079E+00   0.177266912469603E-01
   LPB:    0  -0.299643211030492E+00   0.154939905367377E-01  -0.843998E-04   0.000000E+00   0.314055E+02  -0.265061E-02
   LPB:    1  -0.299639751517449E+00   0.585448224945644E-02   0.127927E-01   0.000000E+00   0.153343E+03   0.356371E-20
   LPB:    2  -0.299638949637593E+00   0.563207318947438E-02   0.186069E-01   0.159360E+00   0.203175E+03   0.563695E-17
   LPB:    3  -0.299638158499224E+00   0.224695935355447E-02   0.271252E-01   0.676776E+00   0.132018E+03   0.141066E-16
   LPB:    4  -0.299637852071569E+00   0.125368461358607E-02   0.272473E-01   0.385590E+00   0.606322E+03   0.293554E-16
  Finished solving LPB equations
  A_corr:   -0.224168253903349     
 End minimization
 Ecorr=   3233.91953933427     
 A_corr= -0.224168253903349     
 Ecorr_band=  -3234.14370758817     
 End Solvation calculations
RMM:   4    -0.249152855855E+03    0.10343E-03   -0.11654E-04  9364   0.207E-02    0.654E-02
 Begin Solvation calculations
  rms_SCF =   4.982266563311037E-002 tol =   4.982266563311038E-003
 Begin minimization
 Creating dielectric and ionic cavities
  area:      143.750318089752     
  volume:    727.261338321944     
  Acav:     7.546891699711988E-002
  Solving linear dielectric/ionic screening model
        iter                  A_solv                     rms
   LPB:       -0.299719057258953E+00   0.327404110732724E-01
   LPB:    0  -0.299717354352400E+00   0.175995083670773E-01  -0.329313E-03   0.000000E+00   0.314053E+02  -0.103422E-01
   LPB:    1  -0.299713062564543E+00   0.415231580252350E-02   0.124185E-01   0.000000E+00   0.118596E+03   0.525374E-18
   LPB:    2  -0.299712693042036E+00   0.382437566939029E-02   0.147805E-01   0.723407E-01   0.205071E+03   0.466768E-16
   LPB:    3  -0.299712466940169E+00   0.191272092885423E-02   0.227988E-01   0.396679E+00   0.869898E+02   0.572246E-16
   LPB:    4  -0.299712266048290E+00   0.152234859521091E-02   0.381536E-01   0.530927E+00   0.141166E+03   0.629000E-16
  Finished solving LPB equations
  A_corr:   -0.224243349051170     
 End minimization
 Ecorr=   3233.84849505112     
 A_corr= -0.224243349051170     
 Ecorr_band=  -3234.07273840017     
 End Solvation calculations
RMM:   5    -0.249152879500E+03   -0.23645E-04   -0.40788E-05  8712   0.119E-02
 Begin Solvation calculations
  rms_SCF =   4.982266563311037E-002 tol =   4.982266563311038E-003
 Begin minimization
 Creating dielectric and ionic cavities
  area:      143.749549476103     
  volume:    727.266470023452     
  Acav:     7.546851347495426E-002
  Solving linear dielectric/ionic screening model
        iter                  A_solv                     rms
   LPB:       -0.299772702875176E+00   0.302789888607332E-01
   LPB:    0  -0.299772612884309E+00   0.295094677023209E-01  -0.757032E-04   0.000000E+00   0.314051E+02  -0.237746E-02
   LPB:    1  -0.299769625448289E+00   0.382851505470269E-02   0.940053E-02   0.000000E+00   0.761865E+02  -0.237124E-19
   LPB:    2  -0.299769371597671E+00   0.931319134301517E-03   0.128495E-01   0.621650E-01   0.179466E+03  -0.329806E-16
   LPB:    3  -0.299769280298294E+00   0.953334627133372E-03   0.348478E-01   0.132617E+00   0.835363E+02  -0.270730E-16
   LPB:    4  -0.299769133222621E+00   0.114485068082916E-02   0.614607E-01   0.913379E+00   0.234030E+03  -0.349183E-16
  Finished solving LPB equations
  A_corr:   -0.224300619747666     
 End minimization
 Ecorr=   3233.76945099852     
 A_corr= -0.224300619747666     
 Ecorr_band=  -3233.99375161827     
 End Solvation calculations
   3 F= -.24915288E+03 E0= -.24915262E+03  d E =-.677411E-04
quench:  g(F)=  0.000E+00 g(S)=  0.000E+00 dE (1.order)= 0.000E+00
 bond charge predicted
       N       E                     dE             d eps       ncg     rms          rms(c)
 Begin Solvation calculations
  rms_SCF =   4.982266563311037E-002 tol =   4.982266563311038E-003
 Begin minimization
 Creating dielectric and ionic cavities
  area:      143.750418059776     
  volume:    727.268745126564     
  Acav:     7.546896948138239E-002
  Solving linear dielectric/ionic screening model
        iter                  A_solv                     rms
   LPB:       -0.299953615748389E+00   0.177851039100103E-02
   LPB:    0  -0.299953615747637E+00   0.178491223561151E-02   0.218931E-06   0.000000E+00   0.314049E+02   0.687552E-05
   LPB:    1  -0.299785196732532E+00   0.863723314668780E-03   0.150559E-01   0.000000E+00   0.372057E+06  -0.183574E-21
   LPB:    2  -0.299769675957616E+00   0.115238150729687E-02   0.273974E-01   0.506431E-01   0.451854E+05   0.709604E-17
   LPB:    3  -0.299764453824614E+00   0.211964698059457E-02   0.333410E-01   0.276482E+00   0.622692E+04   0.934866E-17
   LPB:    4  -0.299762083269950E+00   0.454613360672393E-02   0.347513E-01   0.435521E+00   0.915592E+03   0.386714E-17
  Finished solving LPB equations
  A_corr:   -0.224293113788568     
 End minimization
 Ecorr=   3233.78575457139     
 A_corr= -0.224293113788568     
 Ecorr_band=  -3234.01004768518     
 End Solvation calculations
DAV:   1    -0.249152919755E+03   -0.63900E-04   -0.84223E-03 15813   0.166E-01    0.656E-02
 Begin Solvation calculations
  rms_SCF =   4.982266563311037E-002 tol =   4.982266563311038E-003
 Begin minimization
 Creating dielectric and ionic cavities
  area:      143.739055628969     
  volume:    727.256879895892     
  Acav:     7.546300420520874E-002
  Solving linear dielectric/ionic screening model
        iter                  A_solv                     rms
   LPB:       -0.302614107007662E+00   0.792233189314549E+00
   LPB:    0  -0.302590789722428E+00   0.785185064044700E+00  -0.121857E-02   0.000000E+00   0.314055E+02  -0.382699E-01
   LPB:    1  -0.301031085913988E+00   0.770287047628396E-01   0.865283E-02   0.000000E+00   0.672964E+02  -0.196668E-17
   LPB:    2  -0.300898729901831E+00   0.121654641972632E-01   0.154436E-01   0.475456E-01   0.122204E+03   0.162903E-15
   LPB:    3  -0.300884569657214E+00   0.393215958788723E-02   0.208146E-01   0.793793E-01   0.231634E+03   0.159900E-15
   LPB:    4  -0.300880556495439E+00   0.345812614177441E-02   0.276499E-01   0.213350E+00   0.302877E+03   0.189393E-15
  Finished solving LPB equations
  A_corr:   -0.225417552290230     
 End minimization
 Ecorr=   3233.63307511361     
 A_corr= -0.225417552290230     
 Ecorr_band=  -3233.85849266590     
 End Solvation calculations
RMM:   2    -0.249162270733E+03   -0.93510E-02   -0.13402E-03 13702   0.570E-02    0.113E+00
 Begin Solvation calculations
  rms_SCF =   4.982266563311037E-002 tol =   4.982266563311038E-003
 Begin minimization
 Creating dielectric and ionic cavities
  area:      143.754284229808     
  volume:    727.273248099356     
  Acav:     7.547099922064916E-002
  Solving linear dielectric/ionic screening model
        iter                  A_solv                     rms
   LPB:       -0.301275518435455E+00   0.690362229549853E+00
   LPB:    0  -0.301268382205551E+00   0.687847276272537E+00   0.674143E-03   0.000000E+00   0.314047E+02   0.211713E-01
   LPB:    1  -0.300074612672588E+00   0.664967004036078E-01   0.863678E-02   0.000000E+00   0.675300E+02   0.153273E-17
   LPB:    2  -0.299968804271251E+00   0.995223693577372E-02   0.158740E-01   0.482242E-01   0.123886E+03  -0.348708E-16
   LPB:    3  -0.299958151545322E+00   0.301017294690199E-02   0.202078E-01   0.790876E-01   0.291135E+03  -0.159333E-16
   LPB:    4  -0.299955933561879E+00   0.164272990060825E-02   0.249130E-01   0.168885E+00   0.604034E+03  -0.406450E-16
  Finished solving LPB equations
  A_corr:   -0.224484934341229     
 End minimization
 Ecorr=   3233.70548084101     
 A_corr= -0.224484934341229     
 Ecorr_band=  -3233.92996577535     
 End Solvation calculations
RMM:   3    -0.249152967740E+03    0.93030E-02   -0.81467E-04 13331   0.458E-02    0.455E-02
 Begin Solvation calculations
  rms_SCF =   1.641433162191738E-002 tol =   1.641433162191738E-003
 Begin minimization
 Creating dielectric and ionic cavities
  area:      143.749754731335     
  volume:    727.281421011802     
  Acav:     7.546862123395111E-002
  Solving linear dielectric/ionic screening model
        iter                  A_solv                     rms
   LPB:       -0.299997517938688E+00   0.186087992491652E-01
   LPB:    0  -0.299997234332051E+00   0.171871746661483E-01   0.134394E-03   0.000000E+00   0.314044E+02   0.422054E-02
   LPB:    1  -0.299995233168086E+00   0.497634494276778E-02   0.107234E-01   0.000000E+00   0.117682E+03   0.290293E-18
   LPB:    2  -0.299994781410694E+00   0.239260863913008E-02   0.186443E-01   0.129840E+00   0.221769E+03   0.946080E-18
   LPB:    3  -0.299994304714584E+00   0.206509847868236E-02   0.332656E-01   0.591409E+00   0.272061E+03   0.191692E-17
   LPB:    4  -0.299994000385247E+00   0.232231677612332E-02   0.367294E-01   0.578208E+00   0.120866E+03   0.215108E-17
   LPB:    5  -0.299993841310212E+00   0.158002878655600E-02   0.244899E-01   0.783944E+00   0.113273E+03  -0.659335E-17
  Finished solving LPB equations
  A_corr:   -0.224525220076261     
 End minimization
 Ecorr=   3233.56160873574     
 A_corr= -0.224525220076261     
 Ecorr_band=  -3233.78613395581     
 End Solvation calculations
RMM:   4    -0.249152957130E+03    0.10610E-04   -0.56569E-05  8821   0.155E-02
 Begin Solvation calculations
  rms_SCF =   1.641433162191738E-002 tol =   1.641433162191738E-003
 Begin minimization
 Creating dielectric and ionic cavities
  area:      143.750243086445     
  volume:    727.278153142803     
  Acav:     7.546887762038340E-002
  Solving linear dielectric/ionic screening model
        iter                  A_solv                     rms
   LPB:       -0.300102744930076E+00   0.412239036514126E-01
   LPB:    0  -0.300099715507395E+00   0.208131801039428E-01  -0.439237E-03   0.000000E+00   0.314045E+02  -0.137940E-01
   LPB:    1  -0.300096618220772E+00   0.473563232411747E-02   0.114723E-01   0.000000E+00   0.733924E+02  -0.702712E-18
   LPB:    2  -0.300096380166165E+00   0.173613323767807E-02   0.126896E-01   0.694863E-01   0.135877E+03   0.475744E-16
   LPB:    3  -0.300096281636548E+00   0.101068116440087E-02   0.228222E-01   0.230134E+00   0.192598E+03   0.505085E-16
   LPB:    4  -0.300096196280754E+00   0.150230588630791E-02   0.373177E-01   0.529796E+00   0.871545E+02   0.502292E-16
  Finished solving LPB equations
  A_corr:   -0.224627318660371     
 End minimization
 Ecorr=   3233.55130325578     
 A_corr= -0.224627318660371     
 Ecorr_band=  -3233.77593057444     
 End Solvation calculations
   4 F= -.24915296E+03 E0= -.24915271E+03  d E =-.776301E-04
quench:  g(F)=  0.000E+00 g(S)=  0.000E+00 dE (1.order)= 0.000E+00
 bond charge predicted
       N       E                     dE             d eps       ncg     rms          rms(c)
 Begin Solvation calculations
  rms_SCF =   1.641433162191738E-002 tol =   1.641433162191738E-003
 Begin minimization
 Creating dielectric and ionic cavities
  area:      143.743251202686     
  volume:    727.282431292095     
  Acav:     7.546520688140990E-002
  Solving linear dielectric/ionic screening model
        iter                  A_solv                     rms
   LPB:       -0.300372196415131E+00   0.214618528970321E-02
   LPB:    0  -0.300372196409778E+00   0.213540598453686E-02   0.583869E-06   0.000000E+00   0.314043E+02   0.183360E-04
   LPB:    1  -0.300111040013561E+00   0.112984484674803E-02   0.149789E-01   0.000000E+00   0.476598E+06   0.490591E-21
   LPB:    2  -0.300088035586893E+00   0.165877219239882E-02   0.272389E-01   0.484395E-01   0.389968E+05  -0.225933E-17
   LPB:    3  -0.300080295475582E+00   0.371340603656891E-02   0.332985E-01   0.275233E+00   0.502508E+04  -0.147032E-16
   LPB:    4  -0.300076835497350E+00   0.772984852621243E-02   0.332820E-01   0.447241E+00   0.483377E+03  -0.108869E-16
   LPB:    5  -0.300075212905474E+00   0.750889686714664E-02   0.225444E-01   0.692320E+00   0.164275E+03  -0.284699E-16
   LPB:    6  -0.300073918124199E+00   0.479260493915040E-02   0.249295E-01   0.721627E+00   0.294339E+03  -0.334259E-16
   LPB:    7  -0.300073135161508E+00   0.539053626540117E-02   0.256156E-01   0.588508E+00   0.193695E+03  -0.409198E-16
   LPB:    8  -0.300072551869247E+00   0.216550201961150E-02   0.230675E-01   0.827277E+00   0.207009E+03  -0.584000E-16
   LPB:    9  -0.300072064457078E+00   0.568323448946009E-03   0.365758E-01   0.527007E+00   0.927521E+03  -0.669750E-16
  Finished solving LPB equations
  A_corr:   -0.224606857575668     
 End minimization
 Ecorr=   3233.52748708456     
 A_corr= -0.224606857575668     
 Ecorr_band=  -3233.75209394214     
 End Solvation calculations
DAV:   1    -0.249152971095E+03   -0.33549E-05   -0.13577E-02 16431   0.258E-01    0.306E-02
 Begin Solvation calculations
  rms_SCF =   1.036928120660415E-002 tol =   1.036928120660415E-003
 Begin minimization
 Creating dielectric and ionic cavities
  area:      143.741167242122     
  volume:    727.298593369236     
  Acav:     7.546411280211403E-002
  Solving linear dielectric/ionic screening model
        iter                  A_solv                     rms
   LPB:       -0.300270579908552E+00   0.764595394346010E-01
   LPB:    0  -0.300270579774018E+00   0.764397848207590E-01  -0.292713E-05   0.000000E+00   0.314035E+02  -0.919224E-04
   LPB:    1  -0.300252993244133E+00   0.867307710264041E-02   0.900518E-02   0.000000E+00   0.729773E+02  -0.703729E-21
   LPB:    2  -0.300251256725770E+00   0.182174768268082E-02   0.147843E-01   0.601437E-01   0.152932E+03   0.629063E-16
   LPB:    3  -0.300250904300945E+00   0.883531434783306E-03   0.232177E-01   0.129232E+00   0.202143E+03   0.517274E-16
   LPB:    4  -0.300250709314294E+00   0.666018389190104E-03   0.379714E-01   0.338299E+00   0.807188E+03   0.516559E-16
  Finished solving LPB equations
  A_corr:   -0.224786596512180     
 End minimization
 Ecorr=   3233.31843451816     
 A_corr= -0.224786596512180     
 Ecorr_band=  -3233.54322111467     
 End Solvation calculations
RMM:   2    -0.249153151009E+03   -0.17991E-03   -0.62699E-04 12429   0.492E-02    0.115E-01
 Begin Solvation calculations
  rms_SCF =   1.036928120660415E-002 tol =   1.036928120660415E-003
 Begin minimization
 Creating dielectric and ionic cavities
  area:      143.746332616047     
  volume:    727.291478423566     
  Acav:     7.546682462342483E-002
  Solving linear dielectric/ionic screening model
        iter                  A_solv                     rms
   LPB:       -0.300172349042119E+00   0.100335465013253E+00
   LPB:    0  -0.300171736927048E+00   0.993643636089363E-01  -0.197442E-03   0.000000E+00   0.314039E+02  -0.620045E-02
   LPB:    1  -0.300146650299129E+00   0.963620776731406E-02   0.867644E-02   0.000000E+00   0.674360E+02  -0.113512E-18
   LPB:    2  -0.300144276901062E+00   0.227459034075235E-02   0.161937E-01   0.506902E-01   0.127397E+03   0.293269E-17
   LPB:    3  -0.300143952060343E+00   0.150290274939102E-02   0.220420E-01   0.100553E+00   0.145555E+03   0.288010E-17
   LPB:    4  -0.300143835620453E+00   0.121811760176655E-02   0.273183E-01   0.289220E+00   0.169381E+03  -0.601549E-17
   LPB:    5  -0.300143757651273E+00   0.100136296006113E-02   0.283489E-01   0.645266E+00   0.244659E+03  -0.964315E-17
  Finished solving LPB equations
  A_corr:   -0.224676933027848     
 End minimization
 Ecorr=   3233.40874267778     
 A_corr= -0.224676933027848     
 Ecorr_band=  -3233.63341961080     
 End Solvation calculations
RMM:   3    -0.249153083826E+03    0.67183E-04   -0.58372E-05  8540   0.163E-02
 Begin Solvation calculations
  rms_SCF =   1.036928120660415E-002 tol =   1.036928120660415E-003
 Begin minimization
 Creating dielectric and ionic cavities
  area:      143.746042224994     
  volume:    727.287524079131     
  Acav:     7.546667216812204E-002
  Solving linear dielectric/ionic screening model
        iter                  A_solv                     rms
   LPB:       -0.300251522880361E+00   0.662686348101185E-01
   LPB:    0  -0.300251104489668E+00   0.648302415417659E-01  -0.163235E-03   0.000000E+00   0.314041E+02  -0.512624E-02
   LPB:    1  -0.300240439184954E+00   0.628137146415943E-02   0.861889E-02   0.000000E+00   0.677382E+02  -0.165690E-18
   LPB:    2  -0.300239545066533E+00   0.100058550819505E-02   0.157846E-01   0.457762E-01   0.117814E+03  -0.173898E-17
   LPB:    3  -0.300239413526919E+00   0.578161457413203E-03   0.226479E-01   0.102534E+00   0.268019E+03  -0.143011E-16
   LPB:    4  -0.300239361602509E+00   0.813785964092147E-03   0.297800E-01   0.300205E+00   0.219629E+03  -0.153564E-16
  Finished solving LPB equations
  A_corr:   -0.224772689434387     
 End minimization
 Ecorr=   3233.40291794032     
 A_corr= -0.224772689434387     
 Ecorr_band=  -3233.62769062975     
 End Solvation calculations
   5 F= -.24915308E+03 E0= -.24915285E+03  d E =-.126696E-03
quench:  g(F)=  0.000E+00 g(S)=  0.000E+00 dE (1.order)= 0.000E+00
 bond charge predicted
       N       E                     dE             d eps       ncg     rms          rms(c)
 Begin Solvation calculations
  rms_SCF =   1.036928120660415E-002 tol =   1.036928120660415E-003
 Begin minimization
 Creating dielectric and ionic cavities
  area:      143.758445632083     
  volume:    727.282987181204     
  Acav:     7.547318395684340E-002
  Solving linear dielectric/ionic screening model
        iter                  A_solv                     rms
   LPB:       -0.300455721985410E+00   0.177533449521525E-02
   LPB:    0  -0.300455721978080E+00   0.179756847095510E-02  -0.683244E-06   0.000000E+00   0.314043E+02  -0.214568E-04
   LPB:    1  -0.300287413873152E+00   0.757435639658704E-03   0.151498E-01   0.000000E+00   0.351135E+06   0.454935E-21
   LPB:    2  -0.300271496902559E+00   0.942474225473290E-03   0.273491E-01   0.523866E-01   0.706829E+05  -0.673218E-17
   LPB:    3  -0.300266146561353E+00   0.220915743175374E-02   0.333472E-01   0.275680E+00   0.124448E+05  -0.464155E-17
   LPB:    4  -0.300263749686428E+00   0.548189126970243E-02   0.346996E-01   0.430526E+00   0.876893E+03   0.170016E-17
   LPB:    5  -0.300262705137927E+00   0.720197954637038E-02   0.237790E-01   0.635938E+00   0.180425E+03   0.735571E-17
   LPB:    6  -0.300261890839059E+00   0.330737255154990E-02   0.218992E-01   0.846486E+00   0.252368E+03   0.136705E-16
   LPB:    7  -0.300261309939766E+00   0.371722631142113E-02   0.302314E-01   0.516759E+00   0.251896E+03   0.148145E-16
   LPB:    8  -0.300260954484410E+00   0.246733190942376E-02   0.234915E-01   0.787466E+00   0.178377E+03   0.202058E-16
   LPB:    9  -0.300260636432452E+00   0.730354846365255E-03   0.323674E-01   0.649404E+00   0.361086E+03   0.663940E-16
  Finished solving LPB equations
  A_corr:   -0.224787452475609     
 End minimization
 Ecorr=   3233.37648008177     
 A_corr= -0.224787452475609     
 Ecorr_band=  -3233.60126753424     
 End Solvation calculations
DAV:   1    -0.249153008871E+03    0.14214E-03   -0.11779E-02 16740   0.332E-01    0.345E-02
 Begin Solvation calculations
  rms_SCF =   1.036928120660415E-002 tol =   1.036928120660415E-003
 Begin minimization
 Creating dielectric and ionic cavities
  area:      143.755024260198     
  volume:    727.304492098005     
  Acav:     7.547138773660403E-002
  Solving linear dielectric/ionic screening model
        iter                  A_solv                     rms
   LPB:       -0.300216098664568E+00   0.243741887070523E-01
   LPB:    0  -0.300214046390460E+00   0.842148024657345E-02   0.361531E-03   0.000000E+00   0.314033E+02   0.113532E-01
   LPB:    1  -0.300210838321502E+00   0.554682574598255E-02   0.140605E-01   0.000000E+00   0.427367E+03   0.464332E-18
   LPB:    2  -0.300210284294100E+00   0.253547118662986E-02   0.185933E-01   0.130596E+00   0.945927E+02  -0.170676E-16
   LPB:    3  -0.300210099919608E+00   0.167681078769751E-02   0.221903E-01   0.278846E+00   0.227296E+03  -0.349244E-16
   LPB:    4  -0.300209978892124E+00   0.185904971485772E-02   0.262829E-01   0.554208E+00   0.271364E+03  -0.425707E-16
   LPB:    5  -0.300209903441415E+00   0.178388427215657E-02   0.225527E-01   0.726530E+00   0.112808E+03  -0.336395E-16
   LPB:    6  -0.300209822221401E+00   0.723338201650834E-03   0.303664E-01   0.799477E+00   0.247990E+03  -0.279107E-16
  Finished solving LPB equations
  A_corr:   -0.224738434484796     
 End minimization
 Ecorr=   3233.15067158056     
 A_corr= -0.224738434484796     
 Ecorr_band=  -3233.37541001505     
 End Solvation calculations
RMM:   2    -0.249153240112E+03   -0.23124E-03   -0.97284E-04 14498   0.663E-02    0.128E-01
 Begin Solvation calculations
  rms_SCF =   1.036928120660415E-002 tol =   1.036928120660415E-003
 Begin minimization
 Creating dielectric and ionic cavities
  area:      143.757387415344     
  volume:    727.284780590066     
  Acav:     7.547262839305538E-002
  Solving linear dielectric/ionic screening model
        iter                  A_solv                     rms
   LPB:       -0.300326301339067E+00   0.639241923968021E-01
   LPB:    0  -0.300319983970505E+00   0.424969431272405E-01  -0.634292E-03   0.000000E+00   0.314042E+02  -0.199194E-01
   LPB:    1  -0.300314829763099E+00   0.459614289902964E-02   0.892100E-02   0.000000E+00   0.639758E+02   0.511642E-18
   LPB:    2  -0.300314417448390E+00   0.192156008762670E-02   0.147419E-01   0.484091E-01   0.104925E+03  -0.320301E-16
   LPB:    3  -0.300314345171382E+00   0.105258936588960E-02   0.179795E-01   0.143730E+00   0.104695E+03  -0.451378E-16
   LPB:    4  -0.300314299938964E+00   0.617558029599878E-03   0.298635E-01   0.376779E+00   0.168741E+03  -0.484294E-16
  Finished solving LPB equations
  A_corr:   -0.224841671545908     
 End minimization
 Ecorr=   3233.31800031906     
 A_corr= -0.224841671545908     
 Ecorr_band=  -3233.54284199060     
 End Solvation calculations
RMM:   3    -0.249153083165E+03    0.15695E-03   -0.73221E-05  8552   0.183E-02    0.394E-02
 Begin Solvation calculations
  rms_SCF =   1.036928120660415E-002 tol =   1.036928120660415E-003
 Begin minimization
 Creating dielectric and ionic cavities
  area:      143.757879777361     
  volume:    727.285645175934     
  Acav:     7.547288688311447E-002
  Solving linear dielectric/ionic screening model
        iter                  A_solv                     rms
   LPB:       -0.300263350730474E+00   0.566171413453075E-01
   LPB:    0  -0.300263348714735E+00   0.566120386095515E-01  -0.113302E-04   0.000000E+00   0.314042E+02  -0.355816E-03
   LPB:    1  -0.300255182349184E+00   0.559755641204116E-02   0.872861E-02   0.000000E+00   0.668879E+02  -0.999059E-20
   LPB:    2  -0.300254355125388E+00   0.957910701798276E-03   0.161613E-01   0.547096E-01   0.130250E+03  -0.112045E-17
   LPB:    3  -0.300254254340696E+00   0.551240420728063E-03   0.225886E-01   0.871683E-01   0.238548E+03  -0.165624E-17
   LPB:    4  -0.300254218088499E+00   0.355132790385974E-03   0.320323E-01   0.253653E+00   0.218881E+03  -0.286892E-17
  Finished solving LPB equations
  A_corr:   -0.224781331205385     
 End minimization
 Ecorr=   3233.31796147623     
 A_corr= -0.224781331205385     
 Ecorr_band=  -3233.54274280744     
 End Solvation calculations
RMM:   4    -0.249153103016E+03   -0.19851E-04   -0.13770E-05  7679   0.739E-03
 Begin Solvation calculations
  rms_SCF =   1.036928120660415E-002 tol =   1.036928120660415E-003
 Begin minimization
 Creating dielectric and ionic cavities
  area:      143.753922949680     
  volume:    727.290742662462     
  Acav:     7.547080954858187E-002
  Solving linear dielectric/ionic screening model
        iter                  A_solv                     rms
   LPB:       -0.300379738150591E+00   0.589256569877957E-01
[...]
  A_corr:   -0.226534876032930     
 End minimization
 Ecorr=   3232.03941676730     
 A_corr= -0.226534876032930     
 Ecorr_band=  -3232.26595164333     
 End Solvation calculations
  93 F= -.24915549E+03 E0= -.24915525E+03  d E =0.100666E-04
quench:  g(F)=  0.000E+00 g(S)=  0.000E+00 dE (1.order)= 0.000E+00
 bond charge predicted
       N       E                     dE             d eps       ncg     rms          rms(c)
 Begin Solvation calculations
  rms_SCF =   1.451149644331827E-003 tol =   1.451149644331827E-004
 Begin minimization
 Creating dielectric and ionic cavities
  area:      143.800529411078     
  volume:    727.369004356893     
  Acav:     7.549527794081616E-002
  Solving linear dielectric/ionic screening model
        iter                  A_solv                     rms
   LPB:       -0.302052993139300E+00   0.500899370055213E-03
   LPB:    0  -0.302052993139300E+00   0.500894917646094E-03   0.217005E-08   0.000000E+00   0.314002E+02   0.681400E-07
   LPB:    1  -0.302029417365633E+00   0.193302570138135E-03   0.154862E-01   0.000000E+00   0.783569E+06  -0.584104E-23
   LPB:    2  -0.302026865234848E+00   0.103163100276119E-03   0.279550E-01   0.599682E-01   0.150606E+06  -0.637545E-19
   LPB:    3  -0.302025999823325E+00   0.821360230042706E-04   0.331732E-01   0.285754E+00   0.101143E+06  -0.450272E-18
   LPB:    4  -0.302025615304474E+00   0.113861344573836E-03   0.360190E-01   0.409215E+00   0.654282E+05  -0.166050E-17
  Finished solving LPB equations
  A_corr:   -0.226530337363658     
 End minimization
 Ecorr=   3232.04035429043     
 A_corr= -0.226530337363658     
 Ecorr_band=  -3232.26688462779     
 End Solvation calculations
DAV:   1    -0.249155500201E+03   -0.99138E-05   -0.15545E-03 14718   0.841E-02    0.206E-02
 Begin Solvation calculations
  rms_SCF =   1.451149644331827E-003 tol =   1.451149644331827E-004
 Begin minimization
 Creating dielectric and ionic cavities
  area:      143.801981978637     
  volume:    727.351133682618     
  Acav:     7.549604053878460E-002
  Solving linear dielectric/ionic screening model
        iter                  A_solv                     rms
   LPB:       -0.302073398756152E+00   0.459045550860100E-01
   LPB:    0  -0.302069595984060E+00   0.281852175588948E-01  -0.492145E-03   0.000000E+00   0.314011E+02  -0.154539E-01
   LPB:    1  -0.302066922936338E+00   0.295308030172582E-02   0.933672E-02   0.000000E+00   0.685027E+02   0.105913E-17
   LPB:    2  -0.302066661958214E+00   0.165446151190592E-02   0.149904E-01   0.608106E-01   0.219695E+03  -0.296522E-16
   LPB:    3  -0.302066566975021E+00   0.163245066335983E-02   0.243309E-01   0.224232E+00   0.140180E+03  -0.299848E-16
   LPB:    4  -0.302066487258888E+00   0.759279291193787E-03   0.290815E-01   0.702167E+00   0.239487E+03  -0.373870E-16
   LPB:    5  -0.302066411734532E+00   0.381575548133532E-03   0.377542E-01   0.729780E+00   0.105137E+04  -0.434798E-16
   LPB:    6  -0.302066358015970E+00   0.258899204778736E-03   0.363409E-01   0.738936E+00   0.137985E+04  -0.466568E-16
   LPB:    7  -0.302066330728660E+00   0.148213413216958E-03   0.302869E-01   0.609505E+00   0.148660E+04  -0.481014E-16
   LPB:    8  -0.302066315943007E+00   0.944782102232122E-04   0.358072E-01   0.458316E+00   0.221005E+04  -0.486387E-16
  Finished solving LPB equations
  A_corr:   -0.226570275404222     
 End minimization
 Ecorr=   3232.17721306716     
 A_corr= -0.226570275404222     
 Ecorr_band=  -3232.40378334257     
 End Solvation calculations
RMM:   2    -0.249155589644E+03   -0.89443E-04   -0.11861E-04  8814   0.218E-02
 Begin Solvation calculations
  rms_SCF =   1.451149644331827E-003 tol =   1.451149644331827E-004
 Begin minimization
 Creating dielectric and ionic cavities
  area:      143.798231749719     
  volume:    727.363534738793     
  Acav:     7.549407166860266E-002
  Solving linear dielectric/ionic screening model
        iter                  A_solv                     rms
   LPB:       -0.302106189585030E+00   0.565564702284998E-01
   LPB:    0  -0.302104254337816E+00   0.506753191785949E-01   0.351087E-03   0.000000E+00   0.314005E+02   0.110243E-01
   LPB:    1  -0.302097581457020E+00   0.457905875454453E-02   0.864644E-02   0.000000E+00   0.684730E+02  -0.589113E-18
   LPB:    2  -0.302097092783582E+00   0.165851898343787E-02   0.149101E-01   0.424681E-01   0.140641E+03   0.519308E-17
   LPB:    3  -0.302097034776742E+00   0.820367701410517E-03   0.185331E-01   0.954976E-01   0.768386E+02   0.723329E-17
   LPB:    4  -0.302097016934390E+00   0.370891648984734E-03   0.211543E-01   0.269477E+00   0.202540E+03   0.115281E-16
   LPB:    5  -0.302097006880267E+00   0.151322451695395E-03   0.277577E-01   0.429446E+00   0.304987E+03   0.167317E-16
   LPB:    6  -0.302097000769029E+00   0.970616030980935E-04   0.343479E-01   0.491211E+00   0.443111E+03   0.156919E-16
  Finished solving LPB equations
  A_corr:   -0.226602929100426     
 End minimization
 Ecorr=   3232.04344303620     
 A_corr= -0.226602929100426     
 Ecorr_band=  -3232.27004596530     
 End Solvation calculations
  94 F= -.24915559E+03 E0= -.24915532E+03  d E =-.961450E-04
quench:  g(F)=  0.000E+00 g(S)=  0.000E+00 dE (1.order)= 0.000E+00
 bond charge predicted
       N       E                     dE             d eps       ncg     rms          rms(c)
 Begin Solvation calculations
  rms_SCF =   1.451149644331827E-003 tol =   1.451149644331827E-004
 Begin minimization
 Creating dielectric and ionic cavities
  area:      143.800207764281     
  volume:    727.360473742994     
  Acav:     7.549510907624728E-002
  Solving linear dielectric/ionic screening model
        iter                  A_solv                     rms
   LPB:       -0.302146973790441E+00   0.607367327175444E-03
   LPB:    0  -0.302146973787832E+00   0.614054316249536E-03  -0.407698E-06   0.000000E+00   0.314006E+02  -0.128020E-04
   LPB:    1  -0.302115914593367E+00   0.230424857053092E-03   0.153370E-01   0.000000E+00   0.629888E+06   0.428690E-21
   LPB:    2  -0.302112755172625E+00   0.221754015039553E-03   0.276212E-01   0.564827E-01   0.142496E+06   0.674001E-18
   LPB:    3  -0.302111698139471E+00   0.481580337823354E-03   0.332375E-01   0.278033E+00   0.446170E+05   0.827864E-18
   LPB:    4  -0.302111223692040E+00   0.140619785621210E-02   0.358375E-01   0.416284E+00   0.418951E+04   0.114884E-17
   LPB:    5  -0.302111006660175E+00   0.311356518736916E-02   0.305017E-01   0.537463E+00   0.328057E+03   0.158008E-17
   LPB:    6  -0.302110891960643E+00   0.164316487846394E-02   0.179431E-01   0.898391E+00   0.169247E+03   0.184770E-17
   LPB:    7  -0.302110781948289E+00   0.342945585941285E-03   0.311205E-01   0.553006E+00   0.801048E+03   0.180206E-17
   LPB:    8  -0.302110711448350E+00   0.319037605947592E-03   0.390900E-01   0.510186E+00   0.355147E+04   0.131721E-17
   LPB:    9  -0.302110668505492E+00   0.613939842005252E-03   0.374039E-01   0.636577E+00   0.596539E+03   0.107008E-17
   LPB:   10  -0.302110645676132E+00   0.724629143700203E-03   0.282840E-01   0.703038E+00   0.191743E+03  -0.165017E-17
   LPB:   11  -0.302110628798673E+00   0.353542768314094E-03   0.267663E-01   0.781207E+00   0.202086E+03  -0.559163E-17
   LPB:   12  -0.302110615901207E+00   0.172340829245229E-03   0.342583E-01   0.597061E+00   0.885520E+03  -0.290787E-17
   LPB:   13  -0.302110607319536E+00   0.135039001155115E-03   0.353774E-01   0.644329E+00   0.121182E+04   0.341067E-17
  Finished solving LPB equations
  A_corr:   -0.226615498243288     
 End minimization
 Ecorr=   3232.04228718630     
 A_corr= -0.226615498243288     
 Ecorr_band=  -3232.26890268454     
 End Solvation calculations
DAV:   1    -0.249155526123E+03   -0.25923E-04   -0.21182E-03 15303   0.113E-01    0.494E-02
 Begin Solvation calculations
  rms_SCF =   1.451149644331827E-003 tol =   1.451149644331827E-004
 Begin minimization
 Creating dielectric and ionic cavities
  area:      143.811748399788     
  volume:    727.371492906757     
  Acav:     7.550116790988844E-002
  Solving linear dielectric/ionic screening model
        iter                  A_solv                     rms
   LPB:       -0.302154281839282E+00   0.516025990556896E+00
   LPB:    0  -0.302150633557369E+00   0.514277800600155E+00   0.482052E-03   0.000000E+00   0.314001E+02   0.151365E-01
   LPB:    1  -0.301484413676741E+00   0.506000360613501E-01   0.864440E-02   0.000000E+00   0.673044E+02  -0.813140E-18
   LPB:    2  -0.301424803587261E+00   0.796907370063370E-02   0.158840E-01   0.486943E-01   0.120400E+03  -0.425535E-16
   LPB:    3  -0.301418359223535E+00   0.290395043229790E-02   0.213566E-01   0.804058E-01   0.231805E+03  -0.602095E-17
   LPB:    4  -0.301416581827669E+00   0.138181852500725E-02   0.272952E-01   0.215799E+00   0.350445E+03   0.145890E-16
   LPB:    5  -0.301415941392655E+00   0.989451292147635E-03   0.288584E-01   0.340804E+00   0.361380E+03   0.138181E-16
   LPB:    6  -0.301415649232072E+00   0.719402188863807E-03   0.316971E-01   0.415336E+00   0.326107E+03   0.130764E-16
   LPB:    7  -0.301415509497236E+00   0.774159411165547E-03   0.338561E-01   0.447781E+00   0.291522E+03   0.151340E-16
   LPB:    8  -0.301415443727707E+00   0.105691815836887E-02   0.296534E-01   0.537381E+00   0.210772E+03   0.117826E-16
   LPB:    9  -0.301415407264934E+00   0.671384957238290E-03   0.241605E-01   0.680446E+00   0.130909E+03   0.217904E-16
   LPB:   10  -0.301415381564748E+00   0.280819133020765E-03   0.297417E-01   0.572568E+00   0.259908E+03   0.279454E-16
   LPB:   11  -0.301415365742187E+00   0.115670500104404E-03   0.346526E-01   0.528409E+00   0.331778E+03   0.301589E-16
  Finished solving LPB equations
  A_corr:   -0.225914197832298     
 End minimization
 Ecorr=   3232.12752173114     
 A_corr= -0.225914197832298     
 Ecorr_band=  -3232.35343592897     
 End Solvation calculations
RMM:   2    -0.249159716263E+03   -0.41901E-02   -0.65338E-04 13210   0.432E-02    0.758E-01
 Begin Solvation calculations
  rms_SCF =   1.451149644331827E-003 tol =   1.451149644331827E-004
 Begin minimization
 Creating dielectric and ionic cavities
  area:      143.803343614945     
  volume:    727.362430020537     
  Acav:     7.549675539784627E-002
  Solving linear dielectric/ionic screening model
        iter                  A_solv                     rms
   LPB:       -0.302737003830039E+00   0.495275310876559E+00
   LPB:    0  -0.302734055636385E+00   0.493845240288616E+00  -0.433336E-03   0.000000E+00   0.314006E+02  -0.136070E-01
   LPB:    1  -0.302120001828070E+00   0.480308782609014E-01   0.863377E-02   0.000000E+00   0.674595E+02  -0.575807E-18
   LPB:    2  -0.302066380544315E+00   0.759243364088117E-02   0.157881E-01   0.477532E-01   0.122091E+03   0.119470E-16
   LPB:    3  -0.302060636999000E+00   0.270203804134913E-02   0.212763E-01   0.794831E-01   0.229513E+03  -0.349078E-17
   LPB:    4  -0.302059103552510E+00   0.125675366176096E-02   0.271419E-01   0.209288E+00   0.359627E+03  -0.494781E-16
   LPB:    5  -0.302058549883234E+00   0.829439010791041E-03   0.288966E-01   0.339137E+00   0.380265E+03  -0.590675E-16
   LPB:    6  -0.302058288867550E+00   0.425638388928704E-03   0.322538E-01   0.422359E+00   0.355755E+03  -0.627171E-16
   LPB:    7  -0.302058162538807E+00   0.318470999477231E-03   0.346892E-01   0.450009E+00   0.414861E+03  -0.726276E-16
   LPB:    8  -0.302058099614018E+00   0.479892732288525E-03   0.348168E-01   0.496278E+00   0.381519E+03  -0.773701E-16
   LPB:    9  -0.302058066597101E+00   0.696191501337530E-03   0.317908E-01   0.574648E+00   0.212501E+03  -0.760531E-16
   LPB:   10  -0.302058048114232E+00   0.550918640727630E-03   0.257085E-01   0.692242E+00   0.143777E+03  -0.726648E-16
   LPB:   11  -0.302058034868610E+00   0.234158277578829E-03   0.281001E-01   0.655649E+00   0.226976E+03  -0.659343E-16
   LPB:   12  -0.302058024752522E+00   0.110163735071688E-03   0.373794E-01   0.574137E+00   0.395720E+03  -0.683187E-16
  Finished solving LPB equations
  A_corr:   -0.226561269354676     
 End minimization
 Ecorr=   3232.05830371476     
 A_corr= -0.226561269354676     
 Ecorr_band=  -3232.28486498411     
 End Solvation calculations
RMM:   3    -0.249155523423E+03    0.41928E-02   -0.39497E-04 12185   0.328E-02    0.349E-02
 Begin Solvation calculations
  rms_SCF =   1.451149644331827E-003 tol =   1.451149644331827E-004
 Begin minimization
 Creating dielectric and ionic cavities
  area:      143.801847615811     
  volume:    727.363849827823     
  Acav:     7.549596999830098E-002
  Solving linear dielectric/ionic screening model
        iter                  A_solv                     rms
   LPB:       -0.302041953697078E+00   0.873144357850252E-02
   LPB:    0  -0.302041948882564E+00   0.866713704585881E-02   0.175115E-04   0.000000E+00   0.314005E+02   0.549869E-03
   LPB:    1  -0.302041621721551E+00   0.148401194325142E-02   0.100181E-01   0.000000E+00   0.867736E+02  -0.514502E-19
   LPB:    2  -0.302041565873966E+00   0.346888257311935E-03   0.156182E-01   0.109495E+00   0.479683E+03  -0.701929E-19
   LPB:    3  -0.302041533781571E+00   0.320679097215924E-03   0.352497E-01   0.254609E+00   0.580507E+03   0.212512E-18
   LPB:    4  -0.302041511368913E+00   0.157120256276221E-03   0.427148E-01   0.576326E+00   0.625341E+03   0.727798E-18
   LPB:    5  -0.302041499789850E+00   0.154906114106094E-03   0.346947E-01   0.636055E+00   0.124291E+04   0.123871E-17
   LPB:    6  -0.302041493995054E+00   0.147721102451156E-03   0.296876E-01   0.584863E+00   0.931769E+03   0.201831E-17
   LPB:    7  -0.302041490762293E+00   0.164384678279768E-03   0.330346E-01   0.501349E+00   0.275115E+03   0.251143E-17
   LPB:    8  -0.302041488434111E+00   0.229819671676876E-03   0.346142E-01   0.687320E+00   0.318563E+03   0.350037E-17
   LPB:    9  -0.302041486818695E+00   0.134352598498084E-03   0.257473E-01   0.932801E+00   0.121728E+03   0.325944E-17
  Finished solving LPB equations
  A_corr:   -0.226545516820394     
 End minimization
 Ecorr=   3232.05694876275     
 A_corr= -0.226545516820394     
 Ecorr_band=  -3232.28349427957     
 End Solvation calculations
RMM:   4    -0.249155520004E+03    0.34187E-05   -0.37389E-05  8373   0.127E-02
 Begin Solvation calculations
  rms_SCF =   1.451149644331827E-003 tol =   1.451149644331827E-004
 Begin minimization
 Creating dielectric and ionic cavities
  area:      143.800284126913     
  volume:    727.364461636168     
  Acav:     7.549514916662957E-002
  Solving linear dielectric/ionic screening model
        iter                  A_solv                     rms
   LPB:       -0.302035854972226E+00   0.119090938149825E-02
   LPB:    0  -0.302035852639402E+00   0.935996056657690E-03   0.121896E-04   0.000000E+00   0.314005E+02   0.382758E-03
   LPB:    1  -0.302035763518172E+00   0.287982568649629E-03   0.184151E-01   0.000000E+00   0.598637E+03  -0.201019E-19
   LPB:    2  -0.302035751573563E+00   0.376601082681756E-03   0.227440E-01   0.108517E+00   0.611763E+03   0.146405E-17
   LPB:    3  -0.302035747263517E+00   0.461500041736038E-03   0.214642E-01   0.382350E+00   0.184709E+03   0.194945E-17
   LPB:    4  -0.302035744289172E+00   0.174622182647744E-03   0.206401E-01   0.717652E+00   0.201224E+03   0.222139E-17
   LPB:    5  -0.302035741504236E+00   0.679090850149963E-04   0.381498E-01   0.506574E+00   0.589671E+03   0.241591E-17
  Finished solving LPB equations
  A_corr:   -0.226540592337607     
 End minimization
 Ecorr=   3232.05296604963     
 A_corr= -0.226540592337607     
 Ecorr_band=  -3232.27950664197     
 End Solvation calculations
  95 F= -.24915552E+03 E0= -.24915528E+03  d E =0.696395E-04
quench:  g(F)=  0.000E+00 g(S)=  0.000E+00 dE (1.order)= 0.000E+00
 bond charge predicted
       N       E                     dE             d eps       ncg     rms          rms(c)
 Begin Solvation calculations
  rms_SCF =   1.451149644331827E-003 tol =   1.451149644331827E-004
 Begin minimization
 Creating dielectric and ionic cavities
  area:      143.800904928053     
  volume:    727.368197140244     
  Acav:     7.549547508722806E-002
  Solving linear dielectric/ionic screening model
        iter                  A_solv                     rms
   LPB:       -0.302059398076850E+00   0.649737964369978E-03
   LPB:    0  -0.302059398074141E+00   0.656986076455279E-03   0.415410E-06   0.000000E+00   0.314003E+02   0.130440E-04
   LPB:    1  -0.302024660245459E+00   0.238578353582444E-03   0.154709E-01   0.000000E+00   0.598018E+06   0.434705E-21
   LPB:    2  -0.302020927370193E+00   0.176962178249462E-03   0.278725E-01   0.596458E-01   0.152365E+06  -0.475769E-18
   LPB:    3  -0.302019668522753E+00   0.316163790911406E-03   0.331411E-01   0.283621E+00   0.629605E+05  -0.142933E-17
   LPB:    4  -0.302019110476827E+00   0.617331982045827E-03   0.358741E-01   0.409527E+00   0.734117E+04  -0.381956E-18
   LPB:    5  -0.302018834553928E+00   0.130862367340313E-02   0.358924E-01   0.494192E+00   0.117680E+04  -0.275507E-18
   LPB:    6  -0.302018700159036E+00   0.178559100403346E-02   0.291158E-01   0.600440E+00   0.198454E+03  -0.471364E-17
   LPB:    7  -0.302018613907317E+00   0.867193418458651E-03   0.242091E-01   0.771852E+00   0.195671E+03  -0.867681E-17
   LPB:    8  -0.302018548287536E+00   0.454954379604022E-03   0.339807E-01   0.542018E+00   0.686737E+03  -0.317254E-16
   LPB:    9  -0.302018509538396E+00   0.100611690596345E-02   0.345287E-01   0.581139E+00   0.578905E+03  -0.535136E-16
   LPB:   10  -0.302018491217546E+00   0.910131700440849E-03   0.200400E-01   0.814641E+00   0.162695E+03  -0.648597E-16
   LPB:   11  -0.302018472993486E+00   0.251047981322379E-03   0.263570E-01   0.756313E+00   0.391765E+03  -0.703899E-16
   LPB:   12  -0.302018459955015E+00   0.126197568754972E-03   0.368158E-01   0.512203E+00   0.211036E+04  -0.751554E-16
  Finished solving LPB equations
  A_corr:   -0.226522984867787     
 End minimization
 Ecorr=   3232.05874621388     
 A_corr= -0.226522984867787     
 Ecorr_band=  -3232.28526919874     
 End Solvation calculations
DAV:   1    -0.249155528721E+03   -0.52982E-05   -0.23139E-03 15585   0.102E-01    0.160E-02
 Begin Solvation calculations
  rms_SCF =   1.451149644331827E-003 tol =   1.451149644331827E-004
 Begin minimization
 Creating dielectric and ionic cavities
  area:      143.799404578922     
  volume:    727.365871353983     
  Acav:     7.549468740393384E-002
  Solving linear dielectric/ionic screening model
        iter                  A_solv                     rms
   LPB:       -0.302031735530505E+00   0.328366750468114E-01
   LPB:    0  -0.302031702642166E+00   0.326266612493007E-01  -0.457687E-04   0.000000E+00   0.314004E+02  -0.143715E-02
   LPB:    1  -0.302028615876717E+00   0.311657524889381E-02   0.901213E-02   0.000000E+00   0.713269E+02  -0.276981E-19
   LPB:    2  -0.302028259937106E+00   0.647186483886080E-03   0.155727E-01   0.667322E-01   0.251904E+03   0.817906E-17
   LPB:    3  -0.302028188822346E+00   0.417312128973692E-03   0.255407E-01   0.121819E+00   0.551626E+03   0.490089E-17
   LPB:    4  -0.302028165287919E+00   0.396385333415946E-03   0.282645E-01   0.299043E+00   0.328393E+03   0.239893E-17
   LPB:    5  -0.302028154208106E+00   0.391303711406767E-03   0.263426E-01   0.505140E+00   0.313394E+03   0.399992E-18
   LPB:    6  -0.302028147205682E+00   0.288089074135283E-03   0.272922E-01   0.610009E+00   0.177874E+03   0.259169E-17
   LPB:    7  -0.302028142271206E+00   0.153957029524671E-03   0.301980E-01   0.636873E+00   0.327236E+03   0.612811E-17
   LPB:    8  -0.302028138571856E+00   0.677914438401625E-04   0.359463E-01   0.629810E+00   0.636304E+03   0.836810E-17
  Finished solving LPB equations
  A_corr:   -0.226533451167922     
 End minimization
 Ecorr=   3232.05458896666     
 A_corr= -0.226533451167922     
 Ecorr_band=  -3232.28112241783     
 End Solvation calculations
RMM:   2    -0.249155577410E+03   -0.48689E-04   -0.11634E-04  8660   0.222E-02
