 vasp.5.4.4.18Apr17-6-g9f103f2a35 (build Feb 06 2024 13:54:16) complex          
  
 POSCAR found type information on POSCAR  Cu Pd Cu N  O 
 04/POSCAR found :  5 types and      40 ions
 scaLAPACK will be used

 ----------------------------------------------------------------------------- 
|                                                                             |
|  ADVICE TO THIS USER RUNNING 'VASP/VAMP'   (HEAR YOUR MASTER'S VOICE ...):  |
|                                                                             |
|      You enforced a specific xc-type in the INCAR file,                     |
|      a different type was found on the POTCAR file                          |
|          I HOPE YOU KNOW, WHAT YOU ARE  DOING                               |
|                                                                             |
 ----------------------------------------------------------------------------- 

 LDA part: xc-table for Pade appr. of Perdew
 POSCAR found type information on POSCAR  Cu Pd Cu N  O 
 00/POSCAR found :  5 types and      40 ions
 POSCAR found type information on POSCAR  Cu Pd Cu N  O 
 06/POSCAR found :  5 types and      40 ions
 Jacobian:    20.5888137679208     
 POSCAR, INCAR and KPOINTS ok, starting setup
 FFT: planning ...
 WAVECAR not read
 entering main loop
       N       E                     dE             d eps       ncg     rms          rms(c)
DAV:   1     0.418427787464E+04    0.41843E+04   -0.17839E+05  4032   0.202E+03
DAV:   2     0.611867135036E+03   -0.35724E+04   -0.34444E+04  4059   0.460E+02
DAV:   3    -0.306467007243E+02   -0.64251E+03   -0.59001E+03  4851   0.232E+02
DAV:   4    -0.151188469571E+03   -0.12054E+03   -0.10610E+03  6579   0.946E+01
DAV:   5    -0.162617853397E+03   -0.11429E+02   -0.11246E+02  6246   0.304E+01    0.430E+01
RMM:   6    -0.160752762922E+03    0.18651E+01   -0.35350E+02  4086   0.938E+01    0.428E+01
RMM:   7    -0.160535815805E+03    0.21695E+00   -0.11444E+02  4141   0.436E+01    0.304E+01
RMM:   8    -0.144671793370E+03    0.15864E+02   -0.12316E+01  4114   0.145E+01    0.224E+01
RMM:   9    -0.139485671326E+03    0.51861E+01   -0.46250E+00  4091   0.951E+00    0.134E+01
RMM:  10    -0.135848022495E+03    0.36376E+01   -0.76997E+00  4082   0.104E+01    0.988E+00
RMM:  11    -0.134139399632E+03    0.17086E+01   -0.34160E+00  4085   0.740E+00    0.484E+00
RMM:  12    -0.133811368048E+03    0.32803E+00   -0.87506E-01  4109   0.314E+00    0.385E+00
RMM:  13    -0.133768058760E+03    0.43309E-01   -0.22630E-01  4151   0.157E+00    0.435E+00
RMM:  14    -0.133706770159E+03    0.61289E-01   -0.12388E-01  4125   0.100E+00    0.319E+00
RMM:  15    -0.133639264837E+03    0.67505E-01   -0.24723E-01  4094   0.177E+00    0.297E+00
RMM:  16    -0.133568079000E+03    0.71186E-01   -0.13677E-01  4122   0.922E-01    0.248E+00
RMM:  17    -0.133519935105E+03    0.48144E-01   -0.23577E-02  4158   0.416E-01    0.106E+00
RMM:  18    -0.133520007867E+03   -0.72762E-04   -0.38343E-03  4318   0.179E-01    0.836E-01
RMM:  19    -0.133511612972E+03    0.83949E-02   -0.10562E-02  4098   0.261E-01    0.700E-01
RMM:  20    -0.133507352149E+03    0.42608E-02   -0.77552E-03  4094   0.219E-01    0.295E-01
RMM:  21    -0.133507302196E+03    0.49953E-04   -0.13364E-03  4153   0.117E-01    0.382E-01
RMM:  22    -0.133506017947E+03    0.12842E-02   -0.10339E-03  4084   0.885E-02    0.223E-01
RMM:  23    -0.133505802596E+03    0.21535E-03   -0.10108E-03  4062   0.718E-02    0.125E-01
RMM:  24    -0.133506024793E+03   -0.22220E-03   -0.25841E-04  3966   0.471E-02    0.127E-01
RMM:  25    -0.133506350599E+03   -0.32581E-03   -0.10466E-04  3605   0.359E-02    0.120E-01
RMM:  26    -0.133506819393E+03   -0.46879E-03   -0.20907E-04  3962   0.339E-02    0.662E-02
RMM:  27    -0.133507137804E+03   -0.31841E-03   -0.89237E-05  3158   0.256E-02    0.734E-02
RMM:  28    -0.133507279848E+03   -0.14204E-03   -0.43481E-05  2633   0.188E-02    0.341E-02
RMM:  29    -0.133507418214E+03   -0.13837E-03   -0.40097E-05  2584   0.155E-02    0.462E-02
RMM:  30    -0.133507445851E+03   -0.27637E-04   -0.11249E-05  2362   0.149E-02    0.322E-02
RMM:  31    -0.133507504190E+03   -0.58339E-04   -0.85226E-06  2383   0.906E-03    0.828E-03
RMM:  32    -0.133507528257E+03   -0.24067E-04   -0.47412E-06  2343   0.734E-03    0.793E-03
RMM:  33    -0.133507538022E+03   -0.97650E-05   -0.22818E-06  2295   0.608E-03
   1 F= -.13350754E+03 E0= -.13350100E+03  d E =-.133508E+03
quench:  g(F)=  0.000E+00 g(S)=  0.000E+00 dE (1.order)= 0.000E+00
 bond charge predicted
       N       E                     dE             d eps       ncg     rms          rms(c)
DAV:   1    -0.133507716882E+03   -0.18863E-03   -0.19059E-03  4185   0.761E-02    0.101E-02
RMM:   2    -0.133507738816E+03   -0.21934E-04   -0.67193E-05  2792   0.199E-02    0.462E-02
RMM:   3    -0.133507722409E+03    0.16407E-04   -0.81343E-06  2298   0.116E-02    0.759E-03
RMM:   4    -0.133507725566E+03   -0.31566E-05   -0.32639E-06  2202   0.814E-03
   2 F= -.13350773E+03 E0= -.13350118E+03  d E =-.187544E-03
quench:  g(F)=  0.000E+00 g(S)=  0.000E+00 dE (1.order)= 0.000E+00
 bond charge predicted
       N       E                     dE             d eps       ncg     rms          rms(c)
DAV:   1    -0.133508062611E+03   -0.34020E-03   -0.72907E-03  4149   0.152E-01    0.179E-02
RMM:   2    -0.133508105365E+03   -0.42754E-04   -0.25595E-04  4003   0.349E-02    0.495E-02
RMM:   3    -0.133508087003E+03    0.18362E-04   -0.15927E-05  2377   0.149E-02    0.251E-02
RMM:   4    -0.133508083780E+03    0.32222E-05   -0.45260E-06  2255   0.982E-03
   3 F= -.13350808E+03 E0= -.13350156E+03  d E =-.358215E-03
quench:  g(F)=  0.000E+00 g(S)=  0.000E+00 dE (1.order)= 0.000E+00
 bond charge predicted
       N       E                     dE             d eps       ncg     rms          rms(c)
DAV:   1    -0.133508581363E+03   -0.49436E-03   -0.15394E-02  4176   0.218E-01    0.332E-02
RMM:   2    -0.133508832496E+03   -0.25113E-03   -0.61792E-04  4576   0.503E-02    0.173E-01
RMM:   3    -0.133508600521E+03    0.23197E-03   -0.69243E-05  2878   0.250E-02    0.223E-02
RMM:   4    -0.133508622281E+03   -0.21760E-04   -0.25032E-05  2450   0.222E-02    0.276E-02
RMM:   5    -0.133508614006E+03    0.82746E-05   -0.97145E-06  2267   0.166E-02
   4 F= -.13350861E+03 E0= -.13350208E+03  d E =-.530226E-03
quench:  g(F)=  0.000E+00 g(S)=  0.000E+00 dE (1.order)= 0.000E+00
 bond charge predicted
       N       E                     dE             d eps       ncg     rms          rms(c)
DAV:   1    -0.133509194264E+03   -0.57198E-03   -0.26744E-02  4167   0.280E-01    0.462E-02
RMM:   2    -0.133509719461E+03   -0.52520E-03   -0.10291E-03  4995   0.640E-02    0.242E-01
RMM:   3    -0.133509214873E+03    0.50459E-03   -0.12422E-04  3268   0.322E-02    0.299E-02
RMM:   4    -0.133509265350E+03   -0.50477E-04   -0.37652E-05  2552   0.271E-02    0.268E-02
RMM:   5    -0.133509254751E+03    0.10599E-04   -0.13904E-05  2295   0.194E-02    0.113E-02
RMM:   6    -0.133509254922E+03   -0.17135E-06   -0.93174E-06  2317   0.131E-02
   5 F= -.13350925E+03 E0= -.13350275E+03  d E =-.640916E-03
quench:  g(F)=  0.000E+00 g(S)=  0.000E+00 dE (1.order)= 0.000E+00
 bond charge predicted
       N       E                     dE             d eps       ncg     rms          rms(c)
DAV:   1    -0.133509778449E+03   -0.52370E-03   -0.25839E-02  4203   0.258E-01    0.630E-02
RMM:   2    -0.133511556721E+03   -0.17783E-02   -0.14966E-03  4843   0.705E-02    0.485E-01
RMM:   3    -0.133509685850E+03    0.18709E-02   -0.35890E-04  3887   0.541E-02    0.402E-02
RMM:   4    -0.133509821269E+03   -0.13542E-03   -0.91995E-05  2805   0.310E-02    0.438E-02
RMM:   5    -0.133509818807E+03    0.24615E-05   -0.37250E-05  2472   0.242E-02
   6 F= -.13350982E+03 E0= -.13350332E+03  d E =-.563885E-03
quench:  g(F)=  0.000E+00 g(S)=  0.000E+00 dE (1.order)= 0.000E+00
 bond charge predicted
       N       E                     dE             d eps       ncg     rms          rms(c)
DAV:   1    -0.133510055035E+03   -0.23377E-03   -0.92109E-03  4824   0.168E-01    0.470E-02
RMM:   2    -0.133510812969E+03   -0.75793E-03   -0.64055E-04  4363   0.445E-02    0.302E-01
RMM:   3    -0.133510023932E+03    0.78904E-03   -0.14969E-04  3312   0.368E-02    0.266E-02
RMM:   4    -0.133510076800E+03   -0.52868E-04   -0.41314E-05  2561   0.245E-02    0.224E-02
RMM:   5    -0.133510076015E+03    0.78450E-06   -0.20155E-05  2366   0.176E-02
   7 F= -.13351008E+03 E0= -.13350359E+03  d E =-.257208E-03
quench:  g(F)=  0.000E+00 g(S)=  0.000E+00 dE (1.order)= 0.000E+00
 bond charge predicted
       N       E                     dE             d eps       ncg     rms          rms(c)
DAV:   1    -0.133510309878E+03   -0.23308E-03   -0.47826E-03  4878   0.132E-01    0.251E-02
RMM:   2    -0.133510537556E+03   -0.22768E-03   -0.28291E-04  3761   0.306E-02    0.167E-01
RMM:   3    -0.133510298548E+03    0.23901E-03   -0.50872E-05  2723   0.245E-02    0.153E-02
RMM:   4    -0.133510319064E+03   -0.20515E-04   -0.16807E-05  2411   0.177E-02    0.128E-02
RMM:   5    -0.133510319201E+03   -0.13709E-06   -0.61625E-06  2219   0.106E-02
   8 F= -.13351032E+03 E0= -.13350384E+03  d E =-.243186E-03
quench:  g(F)=  0.000E+00 g(S)=  0.000E+00 dE (1.order)= 0.000E+00
 bond charge predicted
       N       E                     dE             d eps       ncg     rms          rms(c)
DAV:   1    -0.133510690755E+03   -0.37169E-03   -0.10058E-02  4194   0.176E-01    0.195E-02
RMM:   2    -0.133510729697E+03   -0.38942E-04   -0.36110E-04  4112   0.400E-02    0.286E-02
RMM:   3    -0.133510729385E+03    0.31153E-06   -0.18300E-05  2347   0.145E-02
   9 F= -.13351073E+03 E0= -.13350433E+03  d E =-.410184E-03
quench:  g(F)=  0.000E+00 g(S)=  0.000E+00 dE (1.order)= 0.000E+00
 bond charge predicted
       N       E                     dE             d eps       ncg     rms          rms(c)
DAV:   1    -0.133511119607E+03   -0.38991E-03   -0.13239E-02  4374   0.190E-01    0.805E-02
RMM:   2    -0.133513778362E+03   -0.26588E-02   -0.12597E-03  4169   0.751E-02    0.611E-01
RMM:   3    -0.133510880831E+03    0.28975E-02   -0.52126E-04  4036   0.647E-02    0.372E-02
RMM:   4    -0.133511094323E+03   -0.21349E-03   -0.13824E-04  2980   0.396E-02    0.396E-02
RMM:   5    -0.133511101502E+03   -0.71785E-05   -0.38468E-05  2488   0.240E-02
  10 F= -.13351110E+03 E0= -.13350462E+03  d E =-.372117E-03
quench:  g(F)=  0.000E+00 g(S)=  0.000E+00 dE (1.order)= 0.000E+00
 bond charge predicted
       N       E                     dE             d eps       ncg     rms          rms(c)
DAV:   1    -0.133511341638E+03   -0.24732E-03   -0.60576E-03  4320   0.131E-01    0.600E-02
RMM:   2    -0.133512761093E+03   -0.14195E-02   -0.69143E-04  4458   0.480E-02    0.419E-01
RMM:   3    -0.133511286434E+03    0.14747E-02   -0.27701E-04  3775   0.482E-02    0.278E-02
RMM:   4    -0.133511330813E+03   -0.44380E-04   -0.61295E-05  2638   0.276E-02    0.225E-02
RMM:   5    -0.133511338221E+03   -0.74073E-05   -0.19486E-05  2381   0.167E-02
  11 F= -.13351134E+03 E0= -.13350490E+03  d E =-.236719E-03
quench:  g(F)=  0.000E+00 g(S)=  0.000E+00 dE (1.order)= 0.000E+00
 bond charge predicted
       N       E                     dE             d eps       ncg     rms          rms(c)
DAV:   1    -0.133511713439E+03   -0.38263E-03   -0.86866E-03  4131   0.167E-01    0.184E-02
RMM:   2    -0.133511758312E+03   -0.44873E-04   -0.31129E-04  4180   0.382E-02    0.469E-02
RMM:   3    -0.133511739052E+03    0.19261E-04   -0.16149E-05  2390   0.134E-02    0.220E-02
RMM:   4    -0.133511738888E+03    0.16370E-06   -0.74775E-06  2280   0.130E-02
  12 F= -.13351174E+03 E0= -.13350529E+03  d E =-.400667E-03
quench:  g(F)=  0.000E+00 g(S)=  0.000E+00 dE (1.order)= 0.000E+00
 bond charge predicted
       N       E                     dE             d eps       ncg     rms          rms(c)
DAV:   1    -0.133512250546E+03   -0.51149E-03   -0.19128E-02  4059   0.247E-01    0.412E-02
RMM:   2    -0.133512654648E+03   -0.40410E-03   -0.81351E-04  4822   0.587E-02    0.212E-01
RMM:   3    -0.133512258964E+03    0.39568E-03   -0.97921E-05  3137   0.299E-02    0.303E-02
RMM:   4    -0.133512301528E+03   -0.42564E-04   -0.26606E-05  2455   0.224E-02    0.217E-02
RMM:   5    -0.133512294662E+03    0.68656E-05   -0.10884E-05  2271   0.176E-02
  13 F= -.13351229E+03 E0= -.13350587E+03  d E =-.555774E-03
quench:  g(F)=  0.000E+00 g(S)=  0.000E+00 dE (1.order)= 0.000E+00
 bond charge predicted
       N       E                     dE             d eps       ncg     rms          rms(c)
DAV:   1    -0.133512880298E+03   -0.57877E-03   -0.25818E-02  4167   0.269E-01    0.479E-02
RMM:   2    -0.133513641779E+03   -0.76148E-03   -0.10705E-03  4771   0.662E-02    0.310E-01
RMM:   3    -0.133512875668E+03    0.76611E-03   -0.17515E-04  3396   0.389E-02    0.279E-02
RMM:   4    -0.133512937438E+03   -0.61770E-04   -0.54964E-05  2650   0.297E-02    0.344E-02
RMM:   5    -0.133512929769E+03    0.76694E-05   -0.18167E-05  2334   0.199E-02
  14 F= -.13351293E+03 E0= -.13350650E+03  d E =-.635107E-03
quench:  g(F)=  0.000E+00 g(S)=  0.000E+00 dE (1.order)= 0.000E+00
 bond charge predicted
       N       E                     dE             d eps       ncg     rms          rms(c)
DAV:   1    -0.133513344873E+03   -0.40743E-03   -0.24806E-02  4185   0.263E-01    0.697E-02
RMM:   2    -0.133514992662E+03   -0.16478E-02   -0.14828E-03  4891   0.703E-02    0.442E-01
RMM:   3    -0.133513343783E+03    0.16489E-02   -0.33276E-04  3946   0.521E-02    0.382E-02
RMM:   4    -0.133513385872E+03   -0.42089E-04   -0.86757E-05  2873   0.339E-02    0.354E-02
RMM:   5    -0.133513382125E+03    0.37470E-05   -0.34804E-05  2463   0.221E-02
  15 F= -.13351338E+03 E0= -.13350698E+03  d E =-.452356E-03
quench:  g(F)=  0.000E+00 g(S)=  0.000E+00 dE (1.order)= 0.000E+00
 bond charge predicted
       N       E                     dE             d eps       ncg     rms          rms(c)
DAV:   1    -0.133513578039E+03   -0.19217E-03   -0.57091E-03  4923   0.136E-01    0.404E-02
RMM:   2    -0.133514229679E+03   -0.65164E-03   -0.48497E-04  4020   0.387E-02    0.290E-01
RMM:   3    -0.133513537956E+03    0.69172E-03   -0.13895E-04  3204   0.372E-02    0.230E-02
RMM:   4    -0.133513585442E+03   -0.47486E-04   -0.38659E-05  2556   0.229E-02    0.204E-02
RMM:   5    -0.133513585879E+03   -0.43735E-06   -0.14519E-05  2335   0.154E-02
  16 F= -.13351359E+03 E0= -.13350718E+03  d E =-.203754E-03
quench:  g(F)=  0.000E+00 g(S)=  0.000E+00 dE (1.order)= 0.000E+00
 bond charge predicted
       N       E                     dE             d eps       ncg     rms          rms(c)
DAV:   1    -0.133513925144E+03   -0.33970E-03   -0.75003E-03  4239   0.160E-01    0.165E-02
RMM:   2    -0.133513962485E+03   -0.37341E-04   -0.29039E-04  3994   0.364E-02    0.384E-02
RMM:   3    -0.133513949685E+03    0.12800E-04   -0.14747E-05  2312   0.130E-02    0.181E-02
RMM:   4    -0.133513949070E+03    0.61461E-06   -0.43422E-06  2207   0.944E-03
  17 F= -.13351395E+03 E0= -.13350754E+03  d E =-.363191E-03
quench:  g(F)=  0.000E+00 g(S)=  0.000E+00 dE (1.order)= 0.000E+00
 bond charge predicted
       N       E                     dE             d eps       ncg     rms          rms(c)
DAV:   1    -0.133514437054E+03   -0.48737E-03   -0.16448E-02  4140   0.227E-01    0.286E-02
RMM:   2    -0.133514546739E+03   -0.10969E-03   -0.57737E-04  4761   0.501E-02    0.878E-02
RMM:   3    -0.133514484515E+03    0.62224E-04   -0.34857E-05  2571   0.184E-02    0.345E-02
RMM:   4    -0.133514483785E+03    0.72961E-06   -0.12114E-05  2361   0.163E-02
  18 F= -.13351448E+03 E0= -.13350811E+03  d E =-.534715E-03
quench:  g(F)=  0.000E+00 g(S)=  0.000E+00 dE (1.order)= 0.000E+00
 bond charge predicted
       N       E                     dE             d eps       ncg     rms          rms(c)
DAV:   1    -0.133515031437E+03   -0.54692E-03   -0.22885E-02  4527   0.270E-01    0.592E-02
RMM:   2    -0.133516280907E+03   -0.12495E-02   -0.12059E-03  4643   0.693E-02    0.408E-01
RMM:   3    -0.133514985018E+03    0.12959E-02   -0.27689E-04  3667   0.472E-02    0.309E-02
RMM:   4    -0.133515072261E+03   -0.87242E-04   -0.77323E-05  2789   0.321E-02    0.389E-02
RMM:   5    -0.133515067089E+03    0.51716E-05   -0.25033E-05  2389   0.224E-02
  19 F= -.13351507E+03 E0= -.13350868E+03  d E =-.583304E-03
quench:  g(F)=  0.000E+00 g(S)=  0.000E+00 dE (1.order)= 0.000E+00
 bond charge predicted
       N       E                     dE             d eps       ncg     rms          rms(c)
DAV:   1    -0.133515405819E+03   -0.33356E-03   -0.17793E-02  4095   0.226E-01    0.644E-02
RMM:   2    -0.133516828270E+03   -0.14225E-02   -0.12413E-03  4846   0.641E-02    0.414E-01
RMM:   3    -0.133515395590E+03    0.14327E-02   -0.29508E-04  3870   0.494E-02    0.353E-02
RMM:   4    -0.133515433394E+03   -0.37803E-04   -0.71590E-05  2728   0.304E-02    0.330E-02
RMM:   5    -0.133515433262E+03    0.13159E-06   -0.28565E-05  2423   0.204E-02
  20 F= -.13351543E+03 E0= -.13350909E+03  d E =-.366173E-03
quench:  g(F)=  0.000E+00 g(S)=  0.000E+00 dE (1.order)= 0.000E+00
 bond charge predicted
       N       E                     dE             d eps       ncg     rms          rms(c)
DAV:   1    -0.133515640406E+03   -0.20701E-03   -0.44617E-03  4707   0.117E-01    0.403E-02
RMM:   2    -0.133516321011E+03   -0.68061E-03   -0.38425E-04  3772   0.363E-02    0.300E-01
RMM:   3    -0.133515585933E+03    0.73508E-03   -0.14244E-04  3226   0.379E-02    0.203E-02
RMM:   4    -0.133515640277E+03   -0.54345E-04   -0.37647E-05  2532   0.227E-02    0.189E-02
RMM:   5    -0.133515641102E+03   -0.82517E-06   -0.11818E-05  2300   0.139E-02
  21 F= -.13351564E+03 E0= -.13350928E+03  d E =-.207840E-03
quench:  g(F)=  0.000E+00 g(S)=  0.000E+00 dE (1.order)= 0.000E+00
 bond charge predicted
       N       E                     dE             d eps       ncg     rms          rms(c)
DAV:   1    -0.133515990766E+03   -0.35049E-03   -0.84575E-03  4176   0.166E-01    0.167E-02
RMM:   2    -0.133516020660E+03   -0.29894E-04   -0.29528E-04  4093   0.380E-02    0.100E-02
RMM:   3    -0.133516016533E+03    0.41265E-05   -0.13465E-05  2236   0.148E-02
  22 F= -.13351602E+03 E0= -.13350967E+03  d E =-.375431E-03
quench:  g(F)=  0.000E+00 g(S)=  0.000E+00 dE (1.order)= 0.000E+00
 bond charge predicted
       N       E                     dE             d eps       ncg     rms          rms(c)
DAV:   1    -0.133516544385E+03   -0.52373E-03   -0.17204E-02  4212   0.231E-01    0.268E-02
RMM:   2    -0.133516636507E+03   -0.92121E-04   -0.60058E-04  4610   0.511E-02    0.742E-02
RMM:   3    -0.133516588838E+03    0.47669E-04   -0.33983E-05  2564   0.169E-02    0.258E-02
RMM:   4    -0.133516594394E+03   -0.55558E-05   -0.11216E-05  2341   0.157E-02
  23 F= -.13351659E+03 E0= -.13351024E+03  d E =-.577860E-03
quench:  g(F)=  0.000E+00 g(S)=  0.000E+00 dE (1.order)= 0.000E+00
 bond charge predicted
       N       E                     dE             d eps       ncg     rms          rms(c)
DAV:   1    -0.133517118514E+03   -0.52968E-03   -0.27973E-02  4248   0.311E-01    0.565E-02
RMM:   2    -0.133517945057E+03   -0.82654E-03   -0.13941E-03  5035   0.759E-02    0.304E-01
RMM:   3    -0.133517149852E+03    0.79521E-03   -0.19482E-04  3600   0.399E-02    0.379E-02
RMM:   4    -0.133517196955E+03   -0.47103E-04   -0.45287E-05  2584   0.265E-02    0.273E-02
RMM:   5    -0.133517190022E+03    0.69325E-05   -0.19392E-05  2338   0.223E-02
  24 F= -.13351719E+03 E0= -.13351088E+03  d E =-.595628E-03
quench:  g(F)=  0.000E+00 g(S)=  0.000E+00 dE (1.order)= 0.000E+00
 bond charge predicted
       N       E                     dE             d eps       ncg     rms          rms(c)
DAV:   1    -0.133517587543E+03   -0.39059E-03   -0.18774E-02  4059   0.215E-01    0.754E-02
RMM:   2    -0.133519836594E+03   -0.22491E-02   -0.13472E-03  4264   0.703E-02    0.554E-01
RMM:   3    -0.133517424077E+03    0.24125E-02   -0.47055E-04  4023   0.620E-02    0.405E-02
RMM:   4    -0.133517588826E+03   -0.16475E-03   -0.12229E-04  2956   0.369E-02    0.394E-02
RMM:   5    -0.133517589156E+03   -0.32927E-06   -0.37646E-05  2479   0.222E-02
  25 F= -.13351759E+03 E0= -.13351126E+03  d E =-.399133E-03
quench:  g(F)=  0.000E+00 g(S)=  0.000E+00 dE (1.order)= 0.000E+00
 bond charge predicted
       N       E                     dE             d eps       ncg     rms          rms(c)
DAV:   1    -0.133517796265E+03   -0.20744E-03   -0.71946E-03  4671   0.152E-01    0.434E-02
RMM:   2    -0.133518444798E+03   -0.64853E-03   -0.57121E-04  4430   0.426E-02    0.277E-01
RMM:   3    -0.133517764471E+03    0.68033E-03   -0.13675E-04  3248   0.361E-02    0.238E-02
RMM:   4    -0.133517815627E+03   -0.51156E-04   -0.34283E-05  2501   0.226E-02    0.188E-02
RMM:   5    -0.133517814847E+03    0.78036E-06   -0.15068E-05  2311   0.154E-02
  26 F= -.13351781E+03 E0= -.13351152E+03  d E =-.225691E-03
quench:  g(F)=  0.000E+00 g(S)=  0.000E+00 dE (1.order)= 0.000E+00
 bond charge predicted
       N       E                     dE             d eps       ncg     rms          rms(c)
DAV:   1    -0.133518135523E+03   -0.31990E-03   -0.76170E-03  4230   0.158E-01    0.245E-02
RMM:   2    -0.133518309270E+03   -0.17375E-03   -0.33096E-04  4100   0.376E-02    0.140E-01
RMM:   3    -0.133518135603E+03    0.17367E-03   -0.41072E-05  2651   0.219E-02    0.151E-02
RMM:   4    -0.133518152933E+03   -0.17330E-04   -0.17022E-05  2393   0.194E-02    0.142E-02
RMM:   5    -0.133518151554E+03    0.13792E-05   -0.56825E-06  2190   0.115E-02
  27 F= -.13351815E+03 E0= -.13351186E+03  d E =-.336707E-03
quench:  g(F)=  0.000E+00 g(S)=  0.000E+00 dE (1.order)= 0.000E+00
 bond charge predicted
       N       E                     dE             d eps       ncg     rms          rms(c)
DAV:   1    -0.133518587757E+03   -0.43482E-03   -0.15466E-02  4158   0.219E-01    0.242E-02
RMM:   2    -0.133518642526E+03   -0.54769E-04   -0.54567E-04  4535   0.497E-02    0.261E-02
RMM:   3    -0.133518651293E+03   -0.87670E-05   -0.24886E-05  2415   0.169E-02
  28 F= -.13351865E+03 E0= -.13351247E+03  d E =-.499739E-03
quench:  g(F)=  0.000E+00 g(S)=  0.000E+00 dE (1.order)= 0.000E+00
 bond charge predicted
       N       E                     dE             d eps       ncg     rms          rms(c)
DAV:   1    -0.133518956362E+03   -0.31384E-03   -0.13484E-02  4680   0.195E-01    0.938E-02
RMM:   2    -0.133522509130E+03   -0.35528E-02   -0.16281E-03  4178   0.833E-02    0.700E-01
RMM:   3    -0.133518632309E+03    0.38768E-02   -0.69890E-04  4042   0.744E-02    0.411E-02
RMM:   4    -0.133518916333E+03   -0.28402E-03   -0.18640E-04  3139   0.452E-02    0.416E-02
RMM:   5    -0.133518921413E+03   -0.50799E-05   -0.47452E-05  2538   0.254E-02
  29 F= -.13351892E+03 E0= -.13351262E+03  d E =-.270121E-03
quench:  g(F)=  0.000E+00 g(S)=  0.000E+00 dE (1.order)= 0.000E+00
 bond charge predicted
       N       E                     dE             d eps       ncg     rms          rms(c)
DAV:   1    -0.133519132965E+03   -0.21663E-03   -0.62275E-03  4482   0.136E-01    0.662E-02
RMM:   2    -0.133520820842E+03   -0.16879E-02   -0.83735E-04  4442   0.533E-02    0.450E-01
RMM:   3    -0.133519078074E+03    0.17428E-02   -0.33646E-04  3963   0.532E-02    0.311E-02
RMM:   4    -0.133519114805E+03   -0.36731E-04   -0.71457E-05  2690   0.289E-02    0.240E-02
RMM:   5    -0.133519124983E+03   -0.10178E-04   -0.22321E-05  2411   0.169E-02    0.133E-02
RMM:   6    -0.133519126351E+03   -0.13676E-05   -0.78941E-06  2274   0.133E-02
  30 F= -.13351913E+03 E0= -.13351286E+03  d E =-.204938E-03
quench:  g(F)=  0.000E+00 g(S)=  0.000E+00 dE (1.order)= 0.000E+00
 bond charge predicted
       N       E                     dE             d eps       ncg     rms          rms(c)
DAV:   1    -0.133519499494E+03   -0.37451E-03   -0.10733E-02  4113   0.188E-01    0.246E-02
RMM:   2    -0.133519607119E+03   -0.10763E-03   -0.40758E-04  4398   0.435E-02    0.969E-02
RMM:   3    -0.133519520127E+03    0.86993E-04   -0.31875E-05  2554   0.186E-02    0.237E-02
RMM:   4    -0.133519531272E+03   -0.11145E-04   -0.13202E-05  2340   0.182E-02    0.132E-02
RMM:   5    -0.133519528960E+03    0.23125E-05   -0.44089E-06  2172   0.113E-02
  31 F= -.13351953E+03 E0= -.13351327E+03  d E =-.402609E-03
quench:  g(F)=  0.000E+00 g(S)=  0.000E+00 dE (1.order)= 0.000E+00
 bond charge predicted
       N       E                     dE             d eps       ncg     rms          rms(c)
DAV:   1    -0.133520077313E+03   -0.54604E-03   -0.21693E-02  4140   0.256E-01    0.264E-02
RMM:   2    -0.133520143727E+03   -0.66414E-04   -0.68078E-04  4662   0.554E-02    0.191E-02
RMM:   3    -0.133520151201E+03   -0.74744E-05   -0.29673E-05  2430   0.163E-02
  32 F= -.13352015E+03 E0= -.13351400E+03  d E =-.622242E-03
quench:  g(F)=  0.000E+00 g(S)=  0.000E+00 dE (1.order)= 0.000E+00
 bond charge predicted
       N       E                     dE             d eps       ncg     rms          rms(c)
DAV:   1    -0.133520619219E+03   -0.47549E-03   -0.21005E-02  4086   0.240E-01    0.109E-01
RMM:   2    -0.133525019622E+03   -0.44004E-02   -0.20984E-03  4200   0.959E-02    0.784E-01
RMM:   3    -0.133520232063E+03    0.47876E-02   -0.90356E-04  4045   0.827E-02    0.533E-02
RMM:   4    -0.133520569254E+03   -0.33719E-03   -0.24953E-04  3439   0.534E-02    0.451E-02
RMM:   5    -0.133520573328E+03   -0.40736E-05   -0.55218E-05  2555   0.261E-02
  33 F= -.13352057E+03 E0= -.13351431E+03  d E =-.422127E-03
quench:  g(F)=  0.000E+00 g(S)=  0.000E+00 dE (1.order)= 0.000E+00
 bond charge predicted
       N       E                     dE             d eps       ncg     rms          rms(c)
DAV:   1    -0.133520800558E+03   -0.23130E-03   -0.69699E-03  4653   0.151E-01    0.788E-02
RMM:   2    -0.133523188645E+03   -0.23881E-02   -0.10609E-03  4324   0.603E-02    0.531E-01
RMM:   3    -0.133520720859E+03    0.24678E-02   -0.46800E-04  4027   0.616E-02    0.364E-02
RMM:   4    -0.133520762614E+03   -0.41755E-04   -0.95544E-05  2817   0.330E-02    0.278E-02
RMM:   5    -0.133520778241E+03   -0.15627E-04   -0.27490E-05  2439   0.184E-02    0.154E-02
RMM:   6    -0.133520779980E+03   -0.17393E-05   -0.10043E-05  2277   0.154E-02
  34 F= -.13352078E+03 E0= -.13351456E+03  d E =-.206652E-03
quench:  g(F)=  0.000E+00 g(S)=  0.000E+00 dE (1.order)= 0.000E+00
 bond charge predicted
       N       E                     dE             d eps       ncg     rms          rms(c)
DAV:   1    -0.133521131698E+03   -0.35346E-03   -0.10929E-02  4140   0.192E-01    0.288E-02
RMM:   2    -0.133521328608E+03   -0.19691E-03   -0.45838E-04  4459   0.457E-02    0.142E-01
RMM:   3    -0.133521133743E+03    0.19487E-03   -0.51282E-05  2748   0.230E-02    0.225E-02
RMM:   4    -0.133521163827E+03   -0.30085E-04   -0.16743E-05  2376   0.202E-02    0.133E-02
RMM:   5    -0.133521160711E+03    0.31162E-05   -0.51663E-06  2227   0.121E-02
  35 F= -.13352116E+03 E0= -.13351495E+03  d E =-.380731E-03
quench:  g(F)=  0.000E+00 g(S)=  0.000E+00 dE (1.order)= 0.000E+00
 bond charge predicted
       N       E                     dE             d eps       ncg     rms          rms(c)
DAV:   1    -0.133521690130E+03   -0.52630E-03   -0.21834E-02  4140   0.259E-01    0.288E-02
RMM:   2    -0.133521783488E+03   -0.93358E-04   -0.70085E-04  4661   0.560E-02    0.584E-02
RMM:   3    -0.133521765215E+03    0.18273E-04   -0.37958E-05  2609   0.183E-02    0.497E-02
RMM:   4    -0.133521745459E+03    0.19755E-04   -0.11020E-05  2342   0.161E-02    0.969E-03
RMM:   5    -0.133521747503E+03   -0.20437E-05   -0.47066E-06  2185   0.105E-02
  36 F= -.13352175E+03 E0= -.13351554E+03  d E =-.586792E-03
quench:  g(F)=  0.000E+00 g(S)=  0.000E+00 dE (1.order)= 0.000E+00
 bond charge predicted
       N       E                     dE             d eps       ncg     rms          rms(c)
DAV:   1    -0.133522365604E+03   -0.62015E-03   -0.36191E-02  4176   0.336E-01    0.412E-02
RMM:   2    -0.133522562822E+03   -0.19722E-03   -0.13663E-03  5264   0.766E-02    0.100E-01
RMM:   3    -0.133522492342E+03    0.70480E-04   -0.75542E-05  3002   0.237E-02    0.614E-02
RMM:   4    -0.133522468938E+03    0.23404E-04   -0.21504E-05  2459   0.188E-02    0.191E-02
RMM:   5    -0.133522469829E+03   -0.89083E-06   -0.12732E-05  2263   0.184E-02
  37 F= -.13352247E+03 E0= -.13351627E+03  d E =-.722326E-03
quench:  g(F)=  0.000E+00 g(S)=  0.000E+00 dE (1.order)= 0.000E+00
 bond charge predicted
       N       E                     dE             d eps       ncg     rms          rms(c)
DAV:   1    -0.133522855662E+03   -0.38672E-03   -0.32129E-02  4086   0.300E-01    0.467E-02
RMM:   2    -0.133523111207E+03   -0.25554E-03   -0.17012E-03  5065   0.719E-02    0.125E-01
RMM:   3    -0.133522986207E+03    0.12500E-03   -0.11779E-04  3119   0.273E-02    0.655E-02
RMM:   4    -0.133522962063E+03    0.24144E-04   -0.50279E-05  2657   0.236E-02    0.247E-02
RMM:   5    -0.133522963147E+03   -0.10836E-05   -0.23099E-05  2394   0.187E-02
  38 F= -.13352296E+03 E0= -.13351679E+03  d E =-.493318E-03
quench:  g(F)=  0.000E+00 g(S)=  0.000E+00 dE (1.order)= 0.000E+00
 bond charge predicted
       N       E                     dE             d eps       ncg     rms          rms(c)
DAV:   1    -0.133523125619E+03   -0.16356E-03   -0.92782E-03  5202   0.209E-01    0.298E-02
RMM:   2    -0.133523198715E+03   -0.73096E-04   -0.72090E-04  4255   0.458E-02    0.416E-02
RMM:   3    -0.133523175058E+03    0.23656E-04   -0.38010E-05  2674   0.176E-02    0.352E-02
RMM:   4    -0.133523171824E+03    0.32345E-05   -0.11258E-05  2346   0.117E-02
  39 F= -.13352317E+03 E0= -.13351696E+03  d E =-.208677E-03
quench:  g(F)=  0.000E+00 g(S)=  0.000E+00 dE (1.order)= 0.000E+00
 bond charge predicted
       N       E                     dE             d eps       ncg     rms          rms(c)
DAV:   1    -0.133523413318E+03   -0.23826E-03   -0.63636E-03  4995   0.183E-01    0.287E-02
RMM:   2    -0.133523536605E+03   -0.12329E-03   -0.35237E-04  3964   0.427E-02    0.118E-01
RMM:   3    -0.133523426839E+03    0.10977E-03   -0.42021E-05  2663   0.198E-02    0.346E-02
RMM:   4    -0.133523430677E+03   -0.38381E-05   -0.16744E-05  2393   0.180E-02
  40 F= -.13352343E+03 E0= -.13351728E+03  d E =-.258853E-03
quench:  g(F)=  0.000E+00 g(S)=  0.000E+00 dE (1.order)= 0.000E+00
 bond charge predicted
       N       E                     dE             d eps       ncg     rms          rms(c)
DAV:   1    -0.133523805178E+03   -0.37834E-03   -0.10237E-02  4041   0.176E-01    0.512E-02
RMM:   2    -0.133524935458E+03   -0.11303E-02   -0.63920E-04  4216   0.560E-02    0.380E-01
RMM:   3    -0.133523731473E+03    0.12040E-02   -0.22069E-04  3532   0.446E-02    0.222E-02
RMM:   4    -0.133523804811E+03   -0.73338E-04   -0.57119E-05  2629   0.264E-02    0.261E-02
RMM:   5    -0.133523806770E+03   -0.19590E-05   -0.18068E-05  2370   0.192E-02
  41 F= -.13352381E+03 E0= -.13351763E+03  d E =-.376094E-03
quench:  g(F)=  0.000E+00 g(S)=  0.000E+00 dE (1.order)= 0.000E+00
 bond charge predicted
       N       E                     dE             d eps       ncg     rms          rms(c)
DAV:   1    -0.133524242133E+03   -0.43732E-03   -0.16699E-02  4167   0.226E-01    0.396E-02
RMM:   2    -0.133524645196E+03   -0.40306E-03   -0.72672E-04  4630   0.541E-02    0.210E-01
RMM:   3    -0.133524246262E+03    0.39893E-03   -0.93388E-05  3082   0.292E-02    0.247E-02
RMM:   4    -0.133524290196E+03   -0.43933E-04   -0.28654E-05  2459   0.243E-02    0.226E-02
RMM:   5    -0.133524284040E+03    0.61556E-05   -0.11194E-05  2248   0.167E-02
  42 F= -.13352428E+03 E0= -.13351814E+03  d E =-.477270E-03
quench:  g(F)=  0.000E+00 g(S)=  0.000E+00 dE (1.order)= 0.000E+00
 bond charge predicted
       N       E                     dE             d eps       ncg     rms          rms(c)
DAV:   1    -0.133524774904E+03   -0.48471E-03   -0.19394E-02  4032   0.232E-01    0.520E-02
RMM:   2    -0.133525829284E+03   -0.10544E-02   -0.10076E-03  4718   0.621E-02    0.363E-01
RMM:   3    -0.133524734195E+03    0.10951E-02   -0.22901E-04  3526   0.444E-02    0.306E-02
RMM:   4    -0.133524805503E+03   -0.71307E-04   -0.61912E-05  2676   0.296E-02    0.329E-02
RMM:   5    -0.133524802316E+03    0.31865E-05   -0.21752E-05  2396   0.192E-02
  43 F= -.13352480E+03 E0= -.13351866E+03  d E =-.518276E-03
quench:  g(F)=  0.000E+00 g(S)=  0.000E+00 dE (1.order)= 0.000E+00
 bond charge predicted
       N       E                     dE             d eps       ncg     rms          rms(c)
DAV:   1    -0.133525180474E+03   -0.37497E-03   -0.17664E-02  4203   0.229E-01    0.489E-02
RMM:   2    -0.133525853864E+03   -0.67339E-03   -0.96340E-04  4926   0.573E-02    0.272E-01
RMM:   3    -0.133525180360E+03    0.67350E-03   -0.14889E-04  3380   0.352E-02    0.308E-02
RMM:   4    -0.133525228488E+03   -0.48128E-04   -0.42391E-05  2567   0.262E-02    0.242E-02
RMM:   5    -0.133525225289E+03    0.31999E-05   -0.20468E-05  2363   0.189E-02
  44 F= -.13352523E+03 E0= -.13351910E+03  d E =-.422972E-03
quench:  g(F)=  0.000E+00 g(S)=  0.000E+00 dE (1.order)= 0.000E+00
 bond charge predicted
       N       E                     dE             d eps       ncg     rms          rms(c)
DAV:   1    -0.133525494633E+03   -0.26614E-03   -0.94383E-03  4725   0.171E-01    0.372E-02
RMM:   2    -0.133525990780E+03   -0.49615E-03   -0.64195E-04  4279   0.438E-02    0.242E-01
RMM:   3    -0.133525475381E+03    0.51540E-03   -0.11103E-04  3163   0.334E-02    0.244E-02
RMM:   4    -0.133525513933E+03   -0.38552E-04   -0.32480E-05  2525   0.216E-02    0.214E-02
RMM:   5    -0.133525514484E+03   -0.55082E-06   -0.15353E-05  2320   0.157E-02
  45 F= -.13352551E+03 E0= -.13351939E+03  d E =-.289195E-03
quench:  g(F)=  0.000E+00 g(S)=  0.000E+00 dE (1.order)= 0.000E+00
 bond charge predicted
       N       E                     dE             d eps       ncg     rms          rms(c)
DAV:   1    -0.133525819773E+03   -0.30584E-03   -0.86091E-03  4401   0.170E-01    0.211E-02
RMM:   2    -0.133525871120E+03   -0.51347E-04   -0.40430E-04  4172   0.385E-02    0.426E-02
RMM:   3    -0.133525860843E+03    0.10277E-04   -0.21709E-05  2419   0.140E-02    0.374E-02
RMM:   4    -0.133525848262E+03    0.12580E-04   -0.10669E-05  2327   0.143E-02    0.940E-03
RMM:   5    -0.133525849312E+03   -0.10497E-05   -0.56794E-06  2188   0.105E-02
  46 F= -.13352585E+03 E0= -.13351973E+03  d E =-.334829E-03
quench:  g(F)=  0.000E+00 g(S)=  0.000E+00 dE (1.order)= 0.000E+00
 bond charge predicted
       N       E                     dE             d eps       ncg     rms          rms(c)
DAV:   1    -0.133526247267E+03   -0.39900E-03   -0.13310E-02  4185   0.203E-01    0.258E-02
RMM:   2    -0.133526367666E+03   -0.12040E-03   -0.57906E-04  4542   0.459E-02    0.940E-02
RMM:   3    -0.133526280027E+03    0.87639E-04   -0.36385E-05  2569   0.189E-02    0.229E-02
RMM:   4    -0.133526287414E+03   -0.73877E-05   -0.15879E-05  2379   0.175E-02
  47 F= -.13352629E+03 E0= -.13352017E+03  d E =-.438102E-03
quench:  g(F)=  0.000E+00 g(S)=  0.000E+00 dE (1.order)= 0.000E+00
 bond charge predicted
       N       E                     dE             d eps       ncg     rms          rms(c)
DAV:   1    -0.133526704400E+03   -0.42437E-03   -0.17698E-02  4113   0.236E-01    0.326E-02
RMM:   2    -0.133526820269E+03   -0.11587E-03   -0.83364E-04  4701   0.531E-02    0.764E-02
RMM:   3    -0.133526781036E+03    0.39233E-04   -0.51808E-05  2721   0.186E-02    0.506E-02
RMM:   4    -0.133526762462E+03    0.18574E-04   -0.19901E-05  2428   0.185E-02    0.170E-02
RMM:   5    -0.133526763384E+03   -0.92213E-06   -0.12289E-05  2267   0.167E-02
  48 F= -.13352676E+03 E0= -.13352066E+03  d E =-.475970E-03
quench:  g(F)=  0.000E+00 g(S)=  0.000E+00 dE (1.order)= 0.000E+00
 bond charge predicted
       N       E                     dE             d eps       ncg     rms          rms(c)
DAV:   1    -0.133527069118E+03   -0.30666E-03   -0.14068E-02  4491   0.206E-01    0.326E-02
RMM:   2    -0.133527275028E+03   -0.20591E-03   -0.83081E-04  4524   0.491E-02    0.132E-01
RMM:   3    -0.133527109536E+03    0.16549E-03   -0.61363E-05  2828   0.236E-02    0.301E-02
RMM:   4    -0.133527116910E+03   -0.73735E-05   -0.25632E-05  2489   0.197E-02
  49 F= -.13352712E+03 E0= -.13352102E+03  d E =-.353525E-03
quench:  g(F)=  0.000E+00 g(S)=  0.000E+00 dE (1.order)= 0.000E+00
 bond charge predicted
       N       E                     dE             d eps       ncg     rms          rms(c)
DAV:   1    -0.133527360154E+03   -0.25062E-03   -0.74563E-03  5085   0.176E-01    0.259E-02
RMM:   2    -0.133527422689E+03   -0.62535E-04   -0.45968E-04  3978   0.432E-02    0.574E-02
RMM:   3    -0.133527403694E+03    0.18995E-04   -0.29705E-05  2542   0.161E-02    0.417E-02
RMM:   4    -0.133527389051E+03    0.14643E-04   -0.10517E-05  2348   0.122E-02    0.151E-02
RMM:   5    -0.133527388577E+03    0.47398E-06   -0.61965E-06  2193   0.119E-02
  50 F= -.13352739E+03 E0= -.13352131E+03  d E =-.271667E-03
quench:  g(F)=  0.000E+00 g(S)=  0.000E+00 dE (1.order)= 0.000E+00
 bond charge predicted
       N       E                     dE             d eps       ncg     rms          rms(c)
DAV:   1    -0.133527726734E+03   -0.33768E-03   -0.93885E-03  4185   0.170E-01    0.240E-02
RMM:   2    -0.133527873283E+03   -0.14655E-03   -0.41555E-04  4213   0.407E-02    0.120E-01
RMM:   3    -0.133527740120E+03    0.13316E-03   -0.37294E-05  2594   0.204E-02    0.172E-02
RMM:   4    -0.133527753161E+03   -0.13041E-04   -0.16780E-05  2373   0.191E-02    0.156E-02
RMM:   5    -0.133527751807E+03    0.13545E-05   -0.68023E-06  2200   0.122E-02
  51 F= -.13352775E+03 E0= -.13352168E+03  d E =-.363230E-03
quench:  g(F)=  0.000E+00 g(S)=  0.000E+00 dE (1.order)= 0.000E+00
 bond charge predicted
       N       E                     dE             d eps       ncg     rms          rms(c)
DAV:   1    -0.133528222717E+03   -0.46956E-03   -0.17380E-02  4032   0.232E-01    0.271E-02
RMM:   2    -0.133528286192E+03   -0.63475E-04   -0.67140E-04  4507   0.537E-02    0.218E-02
RMM:   3    -0.133528279321E+03    0.68719E-05   -0.27677E-05  2439   0.173E-02
  52 F= -.13352828E+03 E0= -.13352228E+03  d E =-.527514E-03
quench:  g(F)=  0.000E+00 g(S)=  0.000E+00 dE (1.order)= 0.000E+00
 bond charge predicted
       N       E                     dE             d eps       ncg     rms          rms(c)
DAV:   1    -0.133528687104E+03   -0.40091E-03   -0.18832E-02  4284   0.230E-01    0.585E-02
RMM:   2    -0.133529801993E+03   -0.11149E-02   -0.12390E-03  4439   0.718E-02    0.376E-01
RMM:   3    -0.133528656614E+03    0.11454E-02   -0.25585E-04  3643   0.463E-02    0.338E-02
RMM:   4    -0.133528723953E+03   -0.67339E-04   -0.71989E-05  2759   0.306E-02    0.397E-02
RMM:   5    -0.133528718302E+03    0.56505E-05   -0.29307E-05  2407   0.224E-02
  53 F= -.13352872E+03 E0= -.13352266E+03  d E =-.438982E-03
quench:  g(F)=  0.000E+00 g(S)=  0.000E+00 dE (1.order)= 0.000E+00
 bond charge predicted
       N       E                     dE             d eps       ncg     rms          rms(c)
DAV:   1    -0.133528944333E+03   -0.22038E-03   -0.72506E-03  4581   0.145E-01    0.491E-02
RMM:   2    -0.133529746531E+03   -0.80220E-03   -0.63813E-04  4449   0.444E-02    0.304E-01
RMM:   3    -0.133528907420E+03    0.83911E-03   -0.16855E-04  3395   0.392E-02    0.268E-02
RMM:   4    -0.133528956373E+03   -0.48952E-04   -0.40492E-05  2544   0.244E-02    0.219E-02
RMM:   5    -0.133528957168E+03   -0.79536E-06   -0.18315E-05  2348   0.163E-02
  54 F= -.13352896E+03 E0= -.13352293E+03  d E =-.238866E-03
quench:  g(F)=  0.000E+00 g(S)=  0.000E+00 dE (1.order)= 0.000E+00
 bond charge predicted
       N       E                     dE             d eps       ncg     rms          rms(c)
DAV:   1    -0.133529309452E+03   -0.35308E-03   -0.97489E-03  4212   0.182E-01    0.194E-02
RMM:   2    -0.133529361227E+03   -0.51774E-04   -0.36998E-04  4295   0.422E-02    0.469E-02
RMM:   3    -0.133529338497E+03    0.22730E-04   -0.18952E-05  2408   0.138E-02    0.223E-02
RMM:   4    -0.133529338067E+03    0.42968E-06   -0.10399E-05  2263   0.160E-02
  55 F= -.13352934E+03 E0= -.13352330E+03  d E =-.380899E-03
quench:  g(F)=  0.000E+00 g(S)=  0.000E+00 dE (1.order)= 0.000E+00
 bond charge predicted
       N       E                     dE             d eps       ncg     rms          rms(c)
DAV:   1    -0.133529871699E+03   -0.53320E-03   -0.22326E-02  4176   0.271E-01    0.330E-02
RMM:   2    -0.133530019038E+03   -0.14734E-03   -0.84841E-04  4845   0.621E-02    0.954E-02
RMM:   3    -0.133529939287E+03    0.79751E-04   -0.55373E-05  2787   0.217E-02    0.404E-02
RMM:   4    -0.133529937304E+03    0.19832E-05   -0.13086E-05  2380   0.167E-02
  56 F= -.13352994E+03 E0= -.13352393E+03  d E =-.599236E-03
quench:  g(F)=  0.000E+00 g(S)=  0.000E+00 dE (1.order)= 0.000E+00
 bond charge predicted
       N       E                     dE             d eps       ncg     rms          rms(c)
DAV:   1    -0.133530580791E+03   -0.64150E-03   -0.34155E-02  4212   0.336E-01    0.544E-02
RMM:   2    -0.133531404434E+03   -0.82364E-03   -0.15629E-03  4939   0.812E-02    0.307E-01
RMM:   3    -0.133530601543E+03    0.80289E-03   -0.20761E-04  3540   0.408E-02    0.304E-02
RMM:   4    -0.133530669269E+03   -0.67726E-04   -0.57773E-05  2684   0.287E-02    0.387E-02
RMM:   5    -0.133530657184E+03    0.12085E-04   -0.23829E-05  2329   0.239E-02    0.195E-02
RMM:   6    -0.133530657762E+03   -0.57827E-06   -0.11319E-05  2275   0.145E-02
  57 F= -.13353066E+03 E0= -.13352467E+03  d E =-.720459E-03
quench:  g(F)=  0.000E+00 g(S)=  0.000E+00 dE (1.order)= 0.000E+00
 bond charge predicted
       N       E                     dE             d eps       ncg     rms          rms(c)
DAV:   1    -0.133531072938E+03   -0.41575E-03   -0.34395E-02  4185   0.315E-01    0.556E-02
RMM:   2    -0.133531645993E+03   -0.57305E-03   -0.17517E-03  5184   0.770E-02    0.229E-01
RMM:   3    -0.133531147824E+03    0.49817E-03   -0.15988E-04  3509   0.332E-02    0.465E-02
RMM:   4    -0.133531177741E+03   -0.29917E-04   -0.52663E-05  2683   0.246E-02    0.286E-02
RMM:   5    -0.133531171951E+03    0.57905E-05   -0.29949E-05  2575   0.237E-02
  58 F= -.13353117E+03 E0= -.13352518E+03  d E =-.514188E-03
quench:  g(F)=  0.000E+00 g(S)=  0.000E+00 dE (1.order)= 0.000E+00
 bond charge predicted
       N       E                     dE             d eps       ncg     rms          rms(c)
DAV:   1    -0.133531365418E+03   -0.18768E-03   -0.89588E-03  5094   0.199E-01    0.315E-02
RMM:   2    -0.133531659455E+03   -0.29404E-03   -0.67841E-04  4279   0.430E-02    0.170E-01
RMM:   3    -0.133531384948E+03    0.27451E-03   -0.73375E-05  2972   0.265E-02    0.246E-02
RMM:   4    -0.133531396472E+03   -0.11524E-04   -0.23026E-05  2492   0.174E-02    0.161E-02
RMM:   5    -0.133531397063E+03   -0.59102E-06   -0.14822E-05  2283   0.159E-02
  59 F= -.13353140E+03 E0= -.13352542E+03  d E =-.225112E-03
quench:  g(F)=  0.000E+00 g(S)=  0.000E+00 dE (1.order)= 0.000E+00
 bond charge predicted
       N       E                     dE             d eps       ncg     rms          rms(c)
DAV:   1    -0.133531720742E+03   -0.32427E-03   -0.92139E-03  4329   0.183E-01    0.175E-02
RMM:   2    -0.133531758771E+03   -0.38029E-04   -0.36792E-04  4217   0.387E-02    0.197E-02
RMM:   3    -0.133531759386E+03   -0.61496E-06   -0.18513E-05  2331   0.140E-02
  60 F= -.13353176E+03 E0= -.13352585E+03  d E =-.362323E-03
quench:  g(F)=  0.000E+00 g(S)=  0.000E+00 dE (1.order)= 0.000E+00
 bond charge predicted
       N       E                     dE             d eps       ncg     rms          rms(c)
DAV:   1    -0.133532211753E+03   -0.45298E-03   -0.15778E-02  4122   0.221E-01    0.671E-02
RMM:   2    -0.133533767260E+03   -0.15555E-02   -0.10364E-03  4212   0.709E-02    0.449E-01
RMM:   3    -0.133532128337E+03    0.16389E-02   -0.33909E-04  3987   0.533E-02    0.321E-02
RMM:   4    -0.133532213249E+03   -0.84912E-04   -0.90709E-05  2863   0.338E-02    0.345E-02
RMM:   5    -0.133532213544E+03   -0.29476E-06   -0.25541E-05  2397   0.218E-02
  61 F= -.13353221E+03 E0= -.13352623E+03  d E =-.454158E-03
quench:  g(F)=  0.000E+00 g(S)=  0.000E+00 dE (1.order)= 0.000E+00
 bond charge predicted
       N       E                     dE             d eps       ncg     rms          rms(c)
DAV:   1    -0.133532599764E+03   -0.38652E-03   -0.15295E-02  4185   0.217E-01    0.723E-02
RMM:   2    -0.133534412121E+03   -0.18124E-02   -0.12744E-03  4652   0.675E-02    0.453E-01
RMM:   3    -0.133532568209E+03    0.18439E-02   -0.38560E-04  4020   0.570E-02    0.362E-02
RMM:   4    -0.133532600608E+03   -0.32399E-04   -0.81638E-05  2801   0.322E-02    0.289E-02
RMM:   5    -0.133532607993E+03   -0.73850E-05   -0.25098E-05  2420   0.187E-02
  62 F= -.13353261E+03 E0= -.13352667E+03  d E =-.394449E-03
quench:  g(F)=  0.000E+00 g(S)=  0.000E+00 dE (1.order)= 0.000E+00
 bond charge predicted
       N       E                     dE             d eps       ncg     rms          rms(c)
DAV:   1    -0.133533015100E+03   -0.41449E-03   -0.13367E-02  4122   0.203E-01    0.400E-02
RMM:   2    -0.133533604515E+03   -0.58942E-03   -0.69717E-04  4676   0.536E-02    0.264E-01
RMM:   3    -0.133532990351E+03    0.61416E-03   -0.13143E-04  3261   0.352E-02    0.223E-02
RMM:   4    -0.133533040504E+03   -0.50153E-04   -0.37205E-05  2527   0.245E-02    0.250E-02
RMM:   5    -0.133533037478E+03    0.30264E-05   -0.13240E-05  2292   0.163E-02
  63 F= -.13353304E+03 E0= -.13352709E+03  d E =-.429485E-03
quench:  g(F)=  0.000E+00 g(S)=  0.000E+00 dE (1.order)= 0.000E+00
 bond charge predicted
       N       E                     dE             d eps       ncg     rms          rms(c)
DAV:   1    -0.133533489197E+03   -0.44869E-03   -0.19538E-02  4158   0.251E-01    0.448E-02
RMM:   2    -0.133534037764E+03   -0.54857E-03   -0.93707E-04  4901   0.607E-02    0.239E-01
RMM:   3    -0.133533494722E+03    0.54304E-03   -0.12607E-04  3320   0.329E-02    0.284E-02
RMM:   4    -0.133533541200E+03   -0.46478E-04   -0.34575E-05  2494   0.256E-02    0.208E-02
RMM:   5    -0.133533537639E+03    0.35613E-05   -0.13686E-05  2295   0.171E-02
  64 F= -.13353354E+03 E0= -.13352761E+03  d E =-.500161E-03
quench:  g(F)=  0.000E+00 g(S)=  0.000E+00 dE (1.order)= 0.000E+00
 bond charge predicted
       N       E                     dE             d eps       ncg     rms          rms(c)
DAV:   1    -0.133534008650E+03   -0.46745E-03   -0.23490E-02  4032   0.266E-01    0.441E-02
RMM:   2    -0.133534624248E+03   -0.61560E-03   -0.11500E-03  4932   0.662E-02    0.258E-01
RMM:   3    -0.133534017728E+03    0.60652E-03   -0.14495E-04  3347   0.352E-02    0.289E-02
RMM:   4    -0.133534065803E+03   -0.48074E-04   -0.45477E-05  2604   0.273E-02    0.281E-02
RMM:   5    -0.133534061966E+03    0.38370E-05   -0.18013E-05  2322   0.188E-02
  65 F= -.13353406E+03 E0= -.13352814E+03  d E =-.524327E-03
quench:  g(F)=  0.000E+00 g(S)=  0.000E+00 dE (1.order)= 0.000E+00
 bond charge predicted
       N       E                     dE             d eps       ncg     rms          rms(c)
DAV:   1    -0.133534431912E+03   -0.36611E-03   -0.19829E-02  4239   0.244E-01    0.434E-02
RMM:   2    -0.133534780263E+03   -0.34835E-03   -0.11144E-03  4909   0.595E-02    0.174E-01
RMM:   3    -0.133534475018E+03    0.30524E-03   -0.99538E-05  3188   0.271E-02    0.427E-02
RMM:   4    -0.133534496528E+03   -0.21509E-04   -0.35628E-05  2566   0.230E-02    0.188E-02
RMM:   5    -0.133534496360E+03    0.16837E-06   -0.19675E-05  2355   0.186E-02
  66 F= -.13353450E+03 E0= -.13352858E+03  d E =-.434394E-03
quench:  g(F)=  0.000E+00 g(S)=  0.000E+00 dE (1.order)= 0.000E+00
 bond charge predicted
       N       E                     dE             d eps       ncg     rms          rms(c)
DAV:   1    -0.133534761439E+03   -0.26491E-03   -0.10748E-02  5085   0.195E-01    0.299E-02
RMM:   2    -0.133534990387E+03   -0.22895E-03   -0.68372E-04  4299   0.434E-02    0.143E-01
RMM:   3    -0.133534786669E+03    0.20372E-03   -0.59864E-05  2859   0.243E-02    0.239E-02
RMM:   4    -0.133534796286E+03   -0.96168E-05   -0.20527E-05  2456   0.170E-02
  67 F= -.13353480E+03 E0= -.13352888E+03  d E =-.299926E-03
quench:  g(F)=  0.000E+00 g(S)=  0.000E+00 dE (1.order)= 0.000E+00
 bond charge predicted
       N       E                     dE             d eps       ncg     rms          rms(c)
DAV:   1    -0.133535134445E+03   -0.34778E-03   -0.10494E-02  4437   0.193E-01    0.243E-02
RMM:   2    -0.133535194239E+03   -0.59794E-04   -0.48166E-04  4264   0.434E-02    0.473E-02
RMM:   3    -0.133535184566E+03    0.96736E-05   -0.31067E-05  2521   0.151E-02
  68 F= -.13353518E+03 E0= -.13352921E+03  d E =-.388280E-03
quench:  g(F)=  0.000E+00 g(S)=  0.000E+00 dE (1.order)= 0.000E+00
 bond charge predicted
       N       E                     dE             d eps       ncg     rms          rms(c)
DAV:   1    -0.133535543609E+03   -0.34937E-03   -0.18009E-02  4554   0.261E-01    0.596E-02
RMM:   2    -0.133536492943E+03   -0.94933E-03   -0.13396E-03  4857   0.700E-02    0.323E-01
RMM:   3    -0.133535557321E+03    0.93562E-03   -0.24022E-04  3643   0.439E-02    0.399E-02
RMM:   4    -0.133535591704E+03   -0.34384E-04   -0.49994E-05  2642   0.277E-02    0.237E-02
RMM:   5    -0.133535588288E+03    0.34162E-05   -0.17986E-05  2356   0.187E-02
  69 F= -.13353559E+03 E0= -.13352971E+03  d E =-.403722E-03
quench:  g(F)=  0.000E+00 g(S)=  0.000E+00 dE (1.order)= 0.000E+00
 bond charge predicted
       N       E                     dE             d eps       ncg     rms          rms(c)
DAV:   1    -0.133535936251E+03   -0.34455E-03   -0.10765E-02  4167   0.167E-01    0.605E-02
RMM:   2    -0.133537287851E+03   -0.13516E-02   -0.85321E-04  4258   0.550E-02    0.411E-01
RMM:   3    -0.133535867269E+03    0.14206E-02   -0.29868E-04  3826   0.506E-02    0.320E-02
RMM:   4    -0.133535934650E+03   -0.67381E-04   -0.73008E-05  2728   0.296E-02    0.256E-02
RMM:   5    -0.133535936879E+03   -0.22292E-05   -0.23498E-05  2414   0.184E-02
  70 F= -.13353594E+03 E0= -.13353005E+03  d E =-.348591E-03
quench:  g(F)=  0.000E+00 g(S)=  0.000E+00 dE (1.order)= 0.000E+00
 bond charge predicted
       N       E                     dE             d eps       ncg     rms          rms(c)
DAV:   1    -0.133536345254E+03   -0.41060E-03   -0.15606E-02  4167   0.226E-01    0.263E-02
RMM:   2    -0.133536404122E+03   -0.58869E-04   -0.57436E-04  4671   0.517E-02    0.245E-02
RMM:   3    -0.133536417826E+03   -0.13704E-04   -0.27651E-05  2477   0.144E-02    0.534E-02
RMM:   4    -0.133536389970E+03    0.27856E-04   -0.10911E-05  2350   0.147E-02    0.116E-02
RMM:   5    -0.133536393447E+03   -0.34768E-05   -0.62840E-06  2211   0.124E-02
  71 F= -.13353639E+03 E0= -.13353052E+03  d E =-.456568E-03
quench:  g(F)=  0.000E+00 g(S)=  0.000E+00 dE (1.order)= 0.000E+00
 bond charge predicted
       N       E                     dE             d eps       ncg     rms          rms(c)
DAV:   1    -0.133536896048E+03   -0.50608E-03   -0.24660E-02  4158   0.276E-01    0.377E-02
RMM:   2    -0.133537181263E+03   -0.28521E-03   -0.10766E-03  4961   0.631E-02    0.154E-01
RMM:   3    -0.133536953212E+03    0.22805E-03   -0.83627E-05  3025   0.261E-02    0.320E-02
RMM:   4    -0.133536963912E+03   -0.10700E-04   -0.31992E-05  2522   0.237E-02    0.196E-02
RMM:   5    -0.133536962550E+03    0.13622E-05   -0.14258E-05  2271   0.172E-02
  72 F= -.13353696E+03 E0= -.13353111E+03  d E =-.569103E-03
quench:  g(F)=  0.000E+00 g(S)=  0.000E+00 dE (1.order)= 0.000E+00
 bond charge predicted
       N       E                     dE             d eps       ncg     rms          rms(c)
DAV:   1    -0.133537345334E+03   -0.38142E-03   -0.28652E-02  4095   0.297E-01    0.403E-02
RMM:   2    -0.133537486405E+03   -0.14107E-03   -0.13524E-03  5196   0.692E-02    0.597E-02
RMM:   3    -0.133537478929E+03    0.74764E-05   -0.80764E-05  2895   0.229E-02
  73 F= -.13353748E+03 E0= -.13353177E+03  d E =-.516379E-03
quench:  g(F)=  0.000E+00 g(S)=  0.000E+00 dE (1.order)= 0.000E+00
 bond charge predicted
       N       E                     dE             d eps       ncg     rms          rms(c)
DAV:   1    -0.133537642502E+03   -0.15610E-03   -0.10909E-02  5373   0.215E-01    0.563E-02
RMM:   2    -0.133538423164E+03   -0.78066E-03   -0.10826E-03  4223   0.629E-02    0.312E-01
RMM:   3    -0.133537634248E+03    0.78892E-03   -0.21380E-04  3457   0.434E-02    0.403E-02
RMM:   4    -0.133537676857E+03   -0.42610E-04   -0.63146E-05  2739   0.299E-02    0.320E-02
RMM:   5    -0.133537671266E+03    0.55918E-05   -0.23785E-05  2340   0.195E-02
  74 F= -.13353767E+03 E0= -.13353183E+03  d E =-.192337E-03
quench:  g(F)=  0.000E+00 g(S)=  0.000E+00 dE (1.order)= 0.000E+00
 bond charge predicted
       N       E                     dE             d eps       ncg     rms          rms(c)
DAV:   1    -0.133537897714E+03   -0.22086E-03   -0.52563E-03  4329   0.135E-01    0.387E-02
RMM:   2    -0.133538411990E+03   -0.51428E-03   -0.40562E-04  4241   0.378E-02    0.239E-01
RMM:   3    -0.133537859977E+03    0.55201E-03   -0.11575E-04  3195   0.346E-02    0.189E-02
RMM:   4    -0.133537908572E+03   -0.48596E-04   -0.25194E-05  2458   0.203E-02    0.135E-02
RMM:   5    -0.133537908920E+03   -0.34805E-06   -0.76317E-06  2234   0.120E-02
  75 F= -.13353791E+03 E0= -.13353209E+03  d E =-.237655E-03
quench:  g(F)=  0.000E+00 g(S)=  0.000E+00 dE (1.order)= 0.000E+00
 bond charge predicted
       N       E                     dE             d eps       ncg     rms          rms(c)
DAV:   1    -0.133538346733E+03   -0.43816E-03   -0.14886E-02  4221   0.221E-01    0.238E-02
RMM:   2    -0.133538402198E+03   -0.55465E-04   -0.47695E-04  4514   0.486E-02    0.368E-02
RMM:   3    -0.133538401779E+03    0.41875E-06   -0.27019E-05  2452   0.166E-02
  76 F= -.13353840E+03 E0= -.13353251E+03  d E =-.492858E-03
quench:  g(F)=  0.000E+00 g(S)=  0.000E+00 dE (1.order)= 0.000E+00
 bond charge predicted
       N       E                     dE             d eps       ncg     rms          rms(c)
DAV:   1    -0.133538886638E+03   -0.48444E-03   -0.29040E-02  4068   0.309E-01    0.943E-02
RMM:   2    -0.133541816449E+03   -0.29298E-02   -0.23177E-03  4484   0.101E-01    0.560E-01
RMM:   3    -0.133538864803E+03    0.29516E-02   -0.63116E-04  4049   0.745E-02    0.428E-02
RMM:   4    -0.133538906508E+03   -0.41706E-04   -0.12384E-04  3101   0.384E-02    0.343E-02
RMM:   5    -0.133538912180E+03   -0.56714E-05   -0.30621E-05  2431   0.221E-02
  77 F= -.13353891E+03 E0= -.13353312E+03  d E =-.510401E-03
quench:  g(F)=  0.000E+00 g(S)=  0.000E+00 dE (1.order)= 0.000E+00
 bond charge predicted
       N       E                     dE             d eps       ncg     rms          rms(c)
DAV:   1    -0.133539282954E+03   -0.37645E-03   -0.13025E-02  4239   0.184E-01    0.753E-02
RMM:   2    -0.133541420968E+03   -0.21380E-02   -0.11201E-03  4205   0.653E-02    0.521E-01
RMM:   3    -0.133539144403E+03    0.22766E-02   -0.45840E-04  4033   0.612E-02    0.363E-02
RMM:   4    -0.133539264940E+03   -0.12054E-03   -0.11043E-04  2899   0.353E-02    0.303E-02
RMM:   5    -0.133539267836E+03   -0.28965E-05   -0.28510E-05  2450   0.203E-02
  78 F= -.13353927E+03 E0= -.13353345E+03  d E =-.355657E-03
quench:  g(F)=  0.000E+00 g(S)=  0.000E+00 dE (1.order)= 0.000E+00
 bond charge predicted
       N       E                     dE             d eps       ncg     rms          rms(c)
DAV:   1    -0.133539649300E+03   -0.38436E-03   -0.14589E-02  4158   0.220E-01    0.356E-02
RMM:   2    -0.133539939686E+03   -0.29039E-03   -0.65906E-04  4660   0.516E-02    0.167E-01
RMM:   3    -0.133539659923E+03    0.27976E-03   -0.72763E-05  2991   0.262E-02    0.246E-02
RMM:   4    -0.133539693104E+03   -0.33181E-04   -0.21734E-05  2431   0.210E-02    0.168E-02
RMM:   5    -0.133539690360E+03    0.27436E-05   -0.97950E-06  2222   0.153E-02
  79 F= -.13353969E+03 E0= -.13353390E+03  d E =-.422524E-03
quench:  g(F)=  0.000E+00 g(S)=  0.000E+00 dE (1.order)= 0.000E+00
 bond charge predicted
       N       E                     dE             d eps       ncg     rms          rms(c)
DAV:   1    -0.133540188823E+03   -0.49572E-03   -0.22063E-02  4203   0.258E-01    0.471E-02
RMM:   2    -0.133540948869E+03   -0.76005E-03   -0.10494E-03  4883   0.640E-02    0.292E-01
RMM:   3    -0.133540174329E+03    0.77454E-03   -0.17662E-04  3433   0.394E-02    0.282E-02
RMM:   4    -0.133540232677E+03   -0.58348E-04   -0.51654E-05  2653   0.293E-02    0.282E-02
RMM:   5    -0.133540228694E+03    0.39835E-05   -0.17188E-05  2340   0.182E-02
  80 F= -.13354023E+03 E0= -.13353445E+03  d E =-.538334E-03
quench:  g(F)=  0.000E+00 g(S)=  0.000E+00 dE (1.order)= 0.000E+00
 bond charge predicted
       N       E                     dE             d eps       ncg     rms          rms(c)
DAV:   1    -0.133540706316E+03   -0.47364E-03   -0.28216E-02  4185   0.296E-01    0.434E-02
RMM:   2    -0.133540983394E+03   -0.27708E-03   -0.12757E-03  5021   0.683E-02    0.139E-01
RMM:   3    -0.133540784981E+03    0.19841E-03   -0.89714E-05  3116   0.250E-02    0.490E-02
RMM:   4    -0.133540789732E+03   -0.47502E-05   -0.35709E-05  2566   0.237E-02
  81 F= -.13354079E+03 E0= -.13353504E+03  d E =-.561038E-03
quench:  g(F)=  0.000E+00 g(S)=  0.000E+00 dE (1.order)= 0.000E+00
 bond charge predicted
       N       E                     dE             d eps       ncg     rms          rms(c)
DAV:   1    -0.133541087913E+03   -0.30293E-03   -0.18752E-02  4932   0.247E-01    0.449E-02
RMM:   2    -0.133541491742E+03   -0.40383E-03   -0.11890E-03  4598   0.613E-02    0.204E-01
RMM:   3    -0.133541132048E+03    0.35969E-03   -0.13489E-04  3296   0.315E-02    0.393E-02
RMM:   4    -0.133541148865E+03   -0.16817E-04   -0.44746E-05  2726   0.273E-02    0.293E-02
RMM:   5    -0.133541142290E+03    0.65750E-05   -0.17971E-05  2302   0.185E-02
  82 F= -.13354114E+03 E0= -.13353538E+03  d E =-.352559E-03
quench:  g(F)=  0.000E+00 g(S)=  0.000E+00 dE (1.order)= 0.000E+00
 bond charge predicted
       N       E                     dE             d eps       ncg     rms          rms(c)
DAV:   1    -0.133541373109E+03   -0.22424E-03   -0.74191E-03  4626   0.154E-01    0.277E-02
RMM:   2    -0.133541505420E+03   -0.13231E-03   -0.44977E-04  4069   0.368E-02    0.105E-01
RMM:   3    -0.133541390299E+03    0.11512E-03   -0.38920E-05  2642   0.201E-02    0.298E-02
RMM:   4    -0.133541399903E+03   -0.96040E-05   -0.16181E-05  2392   0.166E-02
  83 F= -.13354140E+03 E0= -.13353566E+03  d E =-.257613E-03
quench:  g(F)=  0.000E+00 g(S)=  0.000E+00 dE (1.order)= 0.000E+00
 bond charge predicted
       N       E                     dE             d eps       ncg     rms          rms(c)
DAV:   1    -0.133541759161E+03   -0.36886E-03   -0.11691E-02  4176   0.203E-01    0.257E-02
RMM:   2    -0.133541854892E+03   -0.95732E-04   -0.48717E-04  4495   0.443E-02    0.837E-02
RMM:   3    -0.133541790923E+03    0.63970E-04   -0.35409E-05  2583   0.186E-02    0.251E-02
RMM:   4    -0.133541795287E+03   -0.43647E-05   -0.17373E-05  2386   0.196E-02
  84 F= -.13354180E+03 E0= -.13353604E+03  d E =-.395385E-03
quench:  g(F)=  0.000E+00 g(S)=  0.000E+00 dE (1.order)= 0.000E+00
 bond charge predicted
       N       E                     dE             d eps       ncg     rms          rms(c)
DAV:   1    -0.133542293004E+03   -0.50208E-03   -0.24049E-02  4167   0.287E-01    0.403E-02
RMM:   2    -0.133542585433E+03   -0.29243E-03   -0.10493E-03  4724   0.703E-02    0.155E-01
RMM:   3    -0.133542345001E+03    0.24043E-03   -0.88569E-05  3178   0.283E-02    0.351E-02
RMM:   4    -0.133542365606E+03   -0.20605E-04   -0.19889E-05  2441   0.177E-02    0.174E-02
RMM:   5    -0.133542364933E+03    0.67291E-06   -0.12340E-05  2253   0.177E-02
  85 F= -.13354236E+03 E0= -.13353664E+03  d E =-.569645E-03
quench:  g(F)=  0.000E+00 g(S)=  0.000E+00 dE (1.order)= 0.000E+00
 bond charge predicted
       N       E                     dE             d eps       ncg     rms          rms(c)
DAV:   1    -0.133542911516E+03   -0.54591E-03   -0.34312E-02  4140   0.328E-01    0.479E-02
RMM:   2    -0.133543501951E+03   -0.59043E-03   -0.15529E-03  5083   0.788E-02    0.238E-01
RMM:   3    -0.133542963132E+03    0.53882E-03   -0.16247E-04  3425   0.367E-02    0.310E-02
RMM:   4    -0.133543006223E+03   -0.43091E-04   -0.49741E-05  2611   0.282E-02    0.287E-02
RMM:   5    -0.133543001444E+03    0.47797E-05   -0.23806E-05  2363   0.214E-02
  86 F= -.13354300E+03 E0= -.13353729E+03  d E =-.636511E-03
quench:  g(F)=  0.000E+00 g(S)=  0.000E+00 dE (1.order)= 0.000E+00
 bond charge predicted
       N       E                     dE             d eps       ncg     rms          rms(c)
DAV:   1    -0.133543382952E+03   -0.37673E-03   -0.24844E-02  4554   0.271E-01    0.450E-02
RMM:   2    -0.133543590885E+03   -0.20793E-03   -0.14506E-03  4809   0.632E-02    0.103E-01
RMM:   3    -0.133543503483E+03    0.87402E-04   -0.85185E-05  3097   0.230E-02    0.709E-02
RMM:   4    -0.133543465920E+03    0.37563E-04   -0.39487E-05  2629   0.217E-02    0.197E-02
RMM:   5    -0.133543467698E+03   -0.17778E-05   -0.19856E-05  2393   0.172E-02
  87 F= -.13354347E+03 E0= -.13353776E+03  d E =-.466255E-03
quench:  g(F)=  0.000E+00 g(S)=  0.000E+00 dE (1.order)= 0.000E+00
 bond charge predicted
       N       E                     dE             d eps       ncg     rms          rms(c)
DAV:   1    -0.133543738049E+03   -0.27213E-03   -0.93443E-03  5247   0.190E-01    0.278E-02
RMM:   2    -0.133543904846E+03   -0.16680E-03   -0.62727E-04  4190   0.445E-02    0.113E-01
RMM:   3    -0.133543766961E+03    0.13789E-03   -0.44865E-05  2698   0.216E-02    0.249E-02
RMM:   4    -0.133543772320E+03   -0.53595E-05   -0.16954E-05  2435   0.134E-02
  88 F= -.13354377E+03 E0= -.13353807E+03  d E =-.304622E-03
quench:  g(F)=  0.000E+00 g(S)=  0.000E+00 dE (1.order)= 0.000E+00
 bond charge predicted
       N       E                     dE             d eps       ncg     rms          rms(c)
DAV:   1    -0.133544213040E+03   -0.44608E-03   -0.13710E-02  4131   0.211E-01    0.225E-02
RMM:   2    -0.133544268961E+03   -0.55921E-04   -0.47857E-04  4370   0.469E-02    0.320E-02
RMM:   3    -0.133544268865E+03    0.95490E-07   -0.23789E-05  2446   0.169E-02
  89 F= -.13354427E+03 E0= -.13353851E+03  d E =-.496545E-03
quench:  g(F)=  0.000E+00 g(S)=  0.000E+00 dE (1.order)= 0.000E+00
 bond charge predicted
       N       E                     dE             d eps       ncg     rms          rms(c)
DAV:   1    -0.133544777972E+03   -0.50901E-03   -0.28093E-02  4032   0.300E-01    0.790E-02
RMM:   2    -0.133546917249E+03   -0.21393E-02   -0.18969E-03  4466   0.967E-02    0.468E-01
RMM:   3    -0.133544780993E+03    0.21363E-02   -0.45996E-04  4043   0.675E-02    0.320E-02
RMM:   4    -0.133544820115E+03   -0.39123E-04   -0.89927E-05  2816   0.303E-02    0.305E-02
RMM:   5    -0.133544821056E+03   -0.94026E-06   -0.27554E-05  2418   0.228E-02
  90 F= -.13354482E+03 E0= -.13353916E+03  d E =-.552191E-03
quench:  g(F)=  0.000E+00 g(S)=  0.000E+00 dE (1.order)= 0.000E+00
 bond charge predicted
       N       E                     dE             d eps       ncg     rms          rms(c)
DAV:   1    -0.133545274151E+03   -0.45404E-03   -0.16230E-02  4158   0.203E-01    0.774E-02
RMM:   2    -0.133547464761E+03   -0.21906E-02   -0.12930E-03  4240   0.691E-02    0.522E-01
RMM:   3    -0.133545146465E+03    0.23183E-02   -0.48570E-04  4036   0.634E-02    0.400E-02
RMM:   4    -0.133545261740E+03   -0.11527E-03   -0.11690E-04  2987   0.371E-02    0.334E-02
RMM:   5    -0.133545262244E+03   -0.50419E-06   -0.32432E-05  2463   0.204E-02
  91 F= -.13354526E+03 E0= -.13353958E+03  d E =-.441188E-03
quench:  g(F)=  0.000E+00 g(S)=  0.000E+00 dE (1.order)= 0.000E+00
 bond charge predicted
       N       E                     dE             d eps       ncg     rms          rms(c)
DAV:   1    -0.133545709917E+03   -0.44818E-03   -0.19319E-02  4167   0.253E-01    0.382E-02
RMM:   2    -0.133546019548E+03   -0.30963E-03   -0.78744E-04  5019   0.579E-02    0.167E-01
RMM:   3    -0.133545734226E+03    0.28532E-03   -0.77043E-05  3053   0.269E-02    0.238E-02
RMM:   4    -0.133545769279E+03   -0.35053E-04   -0.23960E-05  2430   0.230E-02    0.195E-02
RMM:   5    -0.133545764648E+03    0.46311E-05   -0.10961E-05  2233   0.168E-02
  92 F= -.13354576E+03 E0= -.13354011E+03  d E =-.502405E-03
quench:  g(F)=  0.000E+00 g(S)=  0.000E+00 dE (1.order)= 0.000E+00
 bond charge predicted
       N       E                     dE             d eps       ncg     rms          rms(c)
DAV:   1    -0.133546334367E+03   -0.56509E-03   -0.26751E-02  4212   0.282E-01    0.514E-02
RMM:   2    -0.133547205967E+03   -0.87160E-03   -0.12578E-03  4882   0.693E-02    0.310E-01
RMM:   3    -0.133546331131E+03    0.87484E-03   -0.20888E-04  3549   0.429E-02    0.311E-02
RMM:   4    -0.133546387700E+03   -0.56569E-04   -0.59365E-05  2728   0.304E-02    0.308E-02
RMM:   5    -0.133546382691E+03    0.50089E-05   -0.20911E-05  2384   0.191E-02
  93 F= -.13354638E+03 E0= -.13354074E+03  d E =-.618043E-03
quench:  g(F)=  0.000E+00 g(S)=  0.000E+00 dE (1.order)= 0.000E+00
 bond charge predicted
       N       E                     dE             d eps       ncg     rms          rms(c)
DAV:   1    -0.133546909180E+03   -0.52148E-03   -0.37222E-02  4176   0.345E-01    0.484E-02
RMM:   2    -0.133547320471E+03   -0.41129E-03   -0.14824E-03  5426   0.778E-02    0.179E-01
RMM:   3    -0.133546990847E+03    0.32962E-03   -0.11303E-04  3293   0.296E-02    0.386E-02
RMM:   4    -0.133547019779E+03   -0.28932E-04   -0.42576E-05  2672   0.291E-02    0.230E-02
RMM:   5    -0.133547015492E+03    0.42879E-05   -0.18953E-05  2309   0.210E-02
  94 F= -.13354702E+03 E0= -.13354139E+03  d E =-.632800E-03
quench:  g(F)=  0.000E+00 g(S)=  0.000E+00 dE (1.order)= 0.000E+00
 bond charge predicted
       N       E                     dE             d eps       ncg     rms          rms(c)
DAV:   1    -0.133547411516E+03   -0.39174E-03   -0.26873E-02  4248   0.275E-01    0.536E-02
RMM:   2    -0.133548081176E+03   -0.66966E-03   -0.16427E-03  4868   0.696E-02    0.257E-01
RMM:   3    -0.133547455872E+03    0.62530E-03   -0.19007E-04  3486   0.403E-02    0.437E-02
RMM:   4    -0.133547488988E+03   -0.33116E-04   -0.61205E-05  2786   0.276E-02    0.284E-02
RMM:   5    -0.133547485830E+03    0.31574E-05   -0.28830E-05  2459   0.210E-02
  95 F= -.13354749E+03 E0= -.13354188E+03  d E =-.470339E-03
quench:  g(F)=  0.000E+00 g(S)=  0.000E+00 dE (1.order)= 0.000E+00
 bond charge predicted
       N       E                     dE             d eps       ncg     rms          rms(c)
DAV:   1    -0.133547731039E+03   -0.24205E-03   -0.12395E-02  5058   0.214E-01    0.290E-02
RMM:   2    -0.133547815753E+03   -0.84714E-04   -0.73878E-04  4603   0.467E-02    0.457E-02
RMM:   3    -0.133547806910E+03    0.88435E-05   -0.32933E-05  2594   0.171E-02
  96 F= -.13354781E+03 E0= -.13354212E+03  d E =-.321079E-03
quench:  g(F)=  0.000E+00 g(S)=  0.000E+00 dE (1.order)= 0.000E+00
 bond charge predicted
       N       E                     dE             d eps       ncg     rms          rms(c)
DAV:   1    -0.133548059825E+03   -0.24407E-03   -0.11694E-02  4500   0.202E-01    0.554E-02
RMM:   2    -0.133549035166E+03   -0.97534E-03   -0.10435E-03  4585   0.628E-02    0.319E-01
RMM:   3    -0.133548039847E+03    0.99532E-03   -0.21556E-04  3599   0.446E-02    0.284E-02
RMM:   4    -0.133548085984E+03   -0.46136E-04   -0.46231E-05  2582   0.242E-02    0.233E-02
RMM:   5    -0.133548087156E+03   -0.11727E-05   -0.18135E-05  2371   0.180E-02
  97 F= -.13354809E+03 E0= -.13354250E+03  d E =-.280247E-03
quench:  g(F)=  0.000E+00 g(S)=  0.000E+00 dE (1.order)= 0.000E+00
 bond charge predicted
       N       E                     dE             d eps       ncg     rms          rms(c)
DAV:   1    -0.133548403347E+03   -0.31736E-03   -0.94030E-03  4059   0.162E-01    0.523E-02
RMM:   2    -0.133549436250E+03   -0.10329E-02   -0.69333E-04  4461   0.503E-02    0.349E-01
RMM:   3    -0.133548347687E+03    0.10886E-02   -0.23032E-04  3588   0.455E-02    0.275E-02
RMM:   4    -0.133548404135E+03   -0.56448E-04   -0.54360E-05  2632   0.275E-02    0.227E-02
RMM:   5    -0.133548405050E+03   -0.91537E-06   -0.16975E-05  2372   0.162E-02
  98 F= -.13354841E+03 E0= -.13354281E+03  d E =-.317894E-03
quench:  g(F)=  0.000E+00 g(S)=  0.000E+00 dE (1.order)= 0.000E+00
 bond charge predicted
       N       E                     dE             d eps       ncg     rms          rms(c)
DAV:   1    -0.133548830838E+03   -0.42670E-03   -0.16287E-02  4194   0.229E-01    0.268E-02
RMM:   2    -0.133548892009E+03   -0.61172E-04   -0.62155E-04  4518   0.514E-02    0.222E-02
RMM:   3    -0.133548894570E+03   -0.25608E-05   -0.24737E-05  2470   0.140E-02
  99 F= -.13354889E+03 E0= -.13354324E+03  d E =-.489520E-03
quench:  g(F)=  0.000E+00 g(S)=  0.000E+00 dE (1.order)= 0.000E+00
 bond charge predicted
       N       E                     dE             d eps       ncg     rms          rms(c)
DAV:   1    -0.133549332324E+03   -0.44031E-03   -0.28632E-02  4032   0.307E-01    0.585E-02
RMM:   2    -0.133550126028E+03   -0.79370E-03   -0.15971E-03  4979   0.801E-02    0.279E-01
RMM:   3    -0.133549382463E+03    0.74357E-03   -0.23117E-04  3700   0.442E-02    0.393E-02
RMM:   4    -0.133549420108E+03   -0.37646E-04   -0.45188E-05  2614   0.259E-02    0.261E-02
RMM:   5    -0.133549412735E+03    0.73732E-05   -0.19547E-05  2336   0.215E-02
 100 F= -.13354941E+03 E0= -.13354385E+03  d E =-.518165E-03
quench:  g(F)=  0.000E+00 g(S)=  0.000E+00 dE (1.order)= 0.000E+00
 bond charge predicted
       N       E                     dE             d eps       ncg     rms          rms(c)
DAV:   1    -0.133549824961E+03   -0.40485E-03   -0.17450E-02  4167   0.212E-01    0.711E-02
RMM:   2    -0.133551475892E+03   -0.16509E-02   -0.12856E-03  4334   0.666E-02    0.445E-01
RMM:   3    -0.133549759144E+03    0.17167E-02   -0.39174E-04  4015   0.577E-02    0.406E-02
RMM:   4    -0.133549834076E+03   -0.74932E-04   -0.96891E-05  2916   0.341E-02    0.310E-02
RMM:   5    -0.133549833022E+03    0.10534E-05   -0.32604E-05  2463   0.205E-02
 101 F= -.13354983E+03 E0= -.13354426E+03  d E =-.420287E-03
quench:  g(F)=  0.000E+00 g(S)=  0.000E+00 dE (1.order)= 0.000E+00
 bond charge predicted
       N       E                     dE             d eps       ncg     rms          rms(c)
DAV:   1    -0.133550200901E+03   -0.36682E-03   -0.17964E-02  4203   0.241E-01    0.332E-02
RMM:   2    -0.133550321596E+03   -0.12070E-03   -0.76755E-04  5009   0.554E-02    0.761E-02
RMM:   3    -0.133550271247E+03    0.50349E-04   -0.42554E-05  2640   0.189E-02    0.412E-02
RMM:   4    -0.133550260153E+03    0.11095E-04   -0.21968E-05  2429   0.213E-02    0.142E-02
RMM:   5    -0.133550261266E+03   -0.11138E-05   -0.11628E-05  2227   0.165E-02
 102 F= -.13355026E+03 E0= -.13354471E+03  d E =-.428244E-03
quench:  g(F)=  0.000E+00 g(S)=  0.000E+00 dE (1.order)= 0.000E+00
 bond charge predicted
       N       E                     dE             d eps       ncg     rms          rms(c)
DAV:   1    -0.133550665979E+03   -0.40583E-03   -0.19545E-02  4176   0.241E-01    0.394E-02
RMM:   2    -0.133550960588E+03   -0.29461E-03   -0.10156E-03  4761   0.573E-02    0.158E-01
RMM:   3    -0.133550710441E+03    0.25015E-03   -0.93703E-05  3103   0.289E-02    0.355E-02
RMM:   4    -0.133550723941E+03   -0.13501E-04   -0.31667E-05  2528   0.221E-02    0.194E-02
RMM:   5    -0.133550722781E+03    0.11607E-05   -0.15644E-05  2277   0.171E-02
 103 F= -.13355072E+03 E0= -.13354519E+03  d E =-.461514E-03
quench:  g(F)=  0.000E+00 g(S)=  0.000E+00 dE (1.order)= 0.000E+00
 bond charge predicted
       N       E                     dE             d eps       ncg     rms          rms(c)
DAV:   1    -0.133551058842E+03   -0.33490E-03   -0.21844E-02  4347   0.263E-01    0.349E-02
RMM:   2    -0.133551172093E+03   -0.11325E-03   -0.10618E-03  4956   0.604E-02    0.532E-02
RMM:   3    -0.133551160408E+03    0.11686E-04   -0.59580E-05  2746   0.212E-02    0.530E-02
RMM:   4    -0.133551139437E+03    0.20971E-04   -0.23673E-05  2489   0.173E-02    0.215E-02
RMM:   5    -0.133551137112E+03    0.23244E-05   -0.14420E-05  2317   0.176E-02
 104 F= -.13355114E+03 E0= -.13354562E+03  d E =-.414331E-03
quench:  g(F)=  0.000E+00 g(S)=  0.000E+00 dE (1.order)= 0.000E+00
 bond charge predicted
       N       E                     dE             d eps       ncg     rms          rms(c)
DAV:   1    -0.133551407311E+03   -0.26787E-03   -0.12875E-02  4779   0.212E-01    0.322E-02
RMM:   2    -0.133551482528E+03   -0.75217E-04   -0.82318E-04  4233   0.471E-02    0.340E-02
RMM:   3    -0.133551464064E+03    0.18465E-04   -0.43112E-05  2720   0.190E-02    0.298E-02
RMM:   4    -0.133551457242E+03    0.68214E-05   -0.88931E-06  2236   0.125E-02
 105 F= -.13355146E+03 E0= -.13354596E+03  d E =-.320130E-03
quench:  g(F)=  0.000E+00 g(S)=  0.000E+00 dE (1.order)= 0.000E+00
 bond charge predicted
       N       E                     dE             d eps       ncg     rms          rms(c)
DAV:   1    -0.133551736077E+03   -0.27201E-03   -0.10386E-02  4122   0.178E-01    0.290E-02
RMM:   2    -0.133552035943E+03   -0.29987E-03   -0.61202E-04  4552   0.479E-02    0.163E-01
RMM:   3    -0.133551743060E+03    0.29288E-03   -0.64784E-05  2948   0.259E-02    0.195E-02
RMM:   4    -0.133551764020E+03   -0.20960E-04   -0.18153E-05  2452   0.153E-02    0.147E-02
RMM:   5    -0.133551766792E+03   -0.27715E-05   -0.11117E-05  2191   0.161E-02
 106 F= -.13355177E+03 E0= -.13354625E+03  d E =-.309550E-03
quench:  g(F)=  0.000E+00 g(S)=  0.000E+00 dE (1.order)= 0.000E+00
 bond charge predicted
       N       E                     dE             d eps       ncg     rms          rms(c)
DAV:   1    -0.133552108878E+03   -0.34486E-03   -0.13384E-02  4320   0.210E-01    0.359E-02
RMM:   2    -0.133552365988E+03   -0.25711E-03   -0.71713E-04  4563   0.495E-02    0.151E-01
RMM:   3    -0.133552130034E+03    0.23595E-03   -0.74013E-05  2997   0.257E-02    0.304E-02
RMM:   4    -0.133552151190E+03   -0.21156E-04   -0.21675E-05  2454   0.199E-02    0.165E-02
RMM:   5    -0.133552149824E+03    0.13664E-05   -0.10756E-05  2221   0.155E-02
 107 F= -.13355215E+03 E0= -.13354665E+03  d E =-.383032E-03
quench:  g(F)=  0.000E+00 g(S)=  0.000E+00 dE (1.order)= 0.000E+00
 bond charge predicted
       N       E                     dE             d eps       ncg     rms          rms(c)
DAV:   1    -0.133552541621E+03   -0.39043E-03   -0.19226E-02  4140   0.241E-01    0.343E-02
RMM:   2    -0.133552818762E+03   -0.27714E-03   -0.87543E-04  4854   0.577E-02    0.154E-01
RMM:   3    -0.133552575900E+03    0.24286E-03   -0.76683E-05  2985   0.264E-02    0.237E-02
RMM:   4    -0.133552597326E+03   -0.21425E-04   -0.30086E-05  2526   0.251E-02    0.215E-02
RMM:   5    -0.133552594229E+03    0.30969E-05   -0.13433E-05  2256   0.168E-02
 108 F= -.13355259E+03 E0= -.13354710E+03  d E =-.444405E-03
quench:  g(F)=  0.000E+00 g(S)=  0.000E+00 dE (1.order)= 0.000E+00
 bond charge predicted
       N       E                     dE             d eps       ncg     rms          rms(c)
DAV:   1    -0.133552971194E+03   -0.37387E-03   -0.21549E-02  4167   0.251E-01    0.404E-02
RMM:   2    -0.133553188285E+03   -0.21709E-03   -0.11293E-03  4839   0.601E-02    0.116E-01
RMM:   3    -0.133553046829E+03    0.14146E-03   -0.73464E-05  2979   0.234E-02    0.525E-02
RMM:   4    -0.133553038175E+03    0.86543E-05   -0.32110E-05  2527   0.225E-02
 109 F= -.13355304E+03 E0= -.13354756E+03  d E =-.443946E-03
quench:  g(F)=  0.000E+00 g(S)=  0.000E+00 dE (1.order)= 0.000E+00
 bond charge predicted
       N       E                     dE             d eps       ncg     rms          rms(c)
DAV:   1    -0.133553323066E+03   -0.27624E-03   -0.16557E-02  4662   0.226E-01    0.347E-02
RMM:   2    -0.133553493444E+03   -0.17038E-03   -0.94051E-04  4608   0.549E-02    0.108E-01
RMM:   3    -0.133553385453E+03    0.10799E-03   -0.65072E-05  2890   0.219E-02    0.379E-02
RMM:   4    -0.133553382935E+03    0.25181E-05   -0.31148E-05  2615   0.236E-02
 110 F= -.13355338E+03 E0= -.13354788E+03  d E =-.344760E-03
quench:  g(F)=  0.000E+00 g(S)=  0.000E+00 dE (1.order)= 0.000E+00
 bond charge predicted
       N       E                     dE             d eps       ncg     rms          rms(c)
DAV:   1    -0.133553638896E+03   -0.25344E-03   -0.97712E-03  5004   0.193E-01    0.338E-02
RMM:   2    -0.133553819051E+03   -0.18015E-03   -0.63324E-04  4179   0.451E-02    0.126E-01
RMM:   3    -0.133553669380E+03    0.14967E-03   -0.58826E-05  2842   0.230E-02    0.356E-02
RMM:   4    -0.133553676962E+03   -0.75816E-05   -0.19751E-05  2429   0.191E-02
 111 F= -.13355368E+03 E0= -.13354822E+03  d E =-.294027E-03
quench:  g(F)=  0.000E+00 g(S)=  0.000E+00 dE (1.order)= 0.000E+00
 bond charge predicted
       N       E                     dE             d eps       ncg     rms          rms(c)
DAV:   1    -0.133554011176E+03   -0.34180E-03   -0.12169E-02  4617   0.207E-01    0.314E-02
RMM:   2    -0.133554210849E+03   -0.19967E-03   -0.62955E-04  4394   0.476E-02    0.136E-01
RMM:   3    -0.133554034037E+03    0.17681E-03   -0.58591E-05  2850   0.237E-02    0.222E-02
RMM:   4    -0.133554049906E+03   -0.15869E-04   -0.19242E-05  2418   0.194E-02    0.212E-02
RMM:   5    -0.133554045700E+03    0.42063E-05   -0.91752E-06  2192   0.155E-02
 112 F= -.13355405E+03 E0= -.13354858E+03  d E =-.368738E-03
quench:  g(F)=  0.000E+00 g(S)=  0.000E+00 dE (1.order)= 0.000E+00
 bond charge predicted
       N       E                     dE             d eps       ncg     rms          rms(c)
DAV:   1    -0.133554450450E+03   -0.40054E-03   -0.18837E-02  4167   0.234E-01    0.337E-02
RMM:   2    -0.133554566239E+03   -0.11579E-03   -0.82181E-04  4582   0.538E-02    0.743E-02
RMM:   3    -0.133554523465E+03    0.42774E-04   -0.45865E-05  2680   0.189E-02    0.498E-02
RMM:   4    -0.133554503281E+03    0.20184E-04   -0.21960E-05  2431   0.204E-02    0.154E-02
RMM:   5    -0.133554505140E+03   -0.18586E-05   -0.10445E-05  2278   0.151E-02
 113 F= -.13355451E+03 E0= -.13354904E+03  d E =-.459440E-03
quench:  g(F)=  0.000E+00 g(S)=  0.000E+00 dE (1.order)= 0.000E+00
 bond charge predicted
       N       E                     dE             d eps       ncg     rms          rms(c)
DAV:   1    -0.133554877721E+03   -0.37444E-03   -0.23422E-02  4293   0.268E-01    0.363E-02
RMM:   2    -0.133555127911E+03   -0.25019E-03   -0.11749E-03  4971   0.625E-02    0.129E-01
RMM:   3    -0.133554945498E+03    0.18241E-03   -0.70182E-05  3000   0.240E-02    0.295E-02
RMM:   4    -0.133554956237E+03   -0.10740E-04   -0.30292E-05  2540   0.234E-02    0.209E-02
RMM:   5    -0.133554954319E+03    0.19183E-05   -0.17556E-05  2325   0.186E-02
 114 F= -.13355495E+03 E0= -.13354951E+03  d E =-.449179E-03
quench:  g(F)=  0.000E+00 g(S)=  0.000E+00 dE (1.order)= 0.000E+00
 bond charge predicted
       N       E                     dE             d eps       ncg     rms          rms(c)
DAV:   1    -0.133555242535E+03   -0.28630E-03   -0.14974E-02  4653   0.208E-01    0.360E-02
RMM:   2    -0.133555371381E+03   -0.12885E-03   -0.92201E-04  4318   0.486E-02    0.770E-02
RMM:   3    -0.133555323323E+03    0.48059E-04   -0.57471E-05  2871   0.229E-02    0.594E-02
RMM:   4    -0.133555293023E+03    0.30300E-04   -0.23571E-05  2481   0.175E-02    0.159E-02
RMM:   5    -0.133555294690E+03   -0.16672E-05   -0.14510E-05  2295   0.145E-02
 115 F= -.13355529E+03 E0= -.13354986E+03  d E =-.340371E-03
quench:  g(F)=  0.000E+00 g(S)=  0.000E+00 dE (1.order)= 0.000E+00
 bond charge predicted
[...]
RMM:   3    -0.133593470389E+03    0.42394E-03   -0.21976E-04  3637   0.423E-02    0.531E-02
RMM:   4    -0.133593501425E+03   -0.31036E-04   -0.71554E-05  3363   0.346E-02    0.458E-02
RMM:   5    -0.133593464377E+03    0.37048E-04   -0.35087E-05  2629   0.299E-02    0.187E-02
RMM:   6    -0.133593462711E+03    0.16663E-05   -0.23853E-05  2460   0.204E-02
 241 F= -.13359346E+03 E0= -.13358869E+03  d E =-.313047E-03
quench:  g(F)=  0.000E+00 g(S)=  0.000E+00 dE (1.order)= 0.000E+00
 bond charge predicted
       N       E                     dE             d eps       ncg     rms          rms(c)
DAV:   1    -0.133593572851E+03   -0.10847E-03   -0.40262E-02  4230   0.298E-01    0.619E-02
RMM:   2    -0.133593964945E+03   -0.39209E-03   -0.25159E-03  4967   0.783E-02    0.153E-01
RMM:   3    -0.133593761909E+03    0.20304E-03   -0.17358E-04  3523   0.335E-02    0.749E-02
RMM:   4    -0.133593713486E+03    0.48423E-04   -0.66543E-05  2891   0.272E-02    0.337E-02
RMM:   5    -0.133593710953E+03    0.25325E-05   -0.38932E-05  2752   0.253E-02
 242 F= -.13359371E+03 E0= -.13358896E+03  d E =-.248243E-03
quench:  g(F)=  0.000E+00 g(S)=  0.000E+00 dE (1.order)= 0.000E+00
 bond charge predicted
       N       E                     dE             d eps       ncg     rms          rms(c)
DAV:   1    -0.133593824539E+03   -0.11105E-03   -0.14003E-02  5031   0.250E-01    0.294E-02
RMM:   2    -0.133593916482E+03   -0.91943E-04   -0.78678E-04  4853   0.512E-02    0.428E-02
RMM:   3    -0.133593903006E+03    0.13476E-04   -0.33053E-05  2577   0.179E-02    0.435E-02
RMM:   4    -0.133593883217E+03    0.19789E-04   -0.17143E-05  2406   0.160E-02    0.146E-02
RMM:   5    -0.133593885470E+03   -0.22535E-05   -0.12775E-05  2276   0.158E-02
 243 F= -.13359389E+03 E0= -.13358913E+03  d E =-.174517E-03
quench:  g(F)=  0.000E+00 g(S)=  0.000E+00 dE (1.order)= 0.000E+00
 bond charge predicted
       N       E                     dE             d eps       ncg     rms          rms(c)
DAV:   1    -0.133594035471E+03   -0.15225E-03   -0.17058E-02  4599   0.236E-01    0.313E-02
RMM:   2    -0.133594104019E+03   -0.68548E-04   -0.71064E-04  4817   0.513E-02    0.246E-02
RMM:   3    -0.133594110911E+03   -0.68923E-05   -0.32218E-05  2540   0.194E-02
 244 F= -.13359411E+03 E0= -.13358929E+03  d E =-.225441E-03
quench:  g(F)=  0.000E+00 g(S)=  0.000E+00 dE (1.order)= 0.000E+00
 bond charge predicted
       N       E                     dE             d eps       ncg     rms          rms(c)
DAV:   1    -0.133594233058E+03   -0.12904E-03   -0.34705E-02  4491   0.330E-01    0.684E-02
RMM:   2    -0.133595262176E+03   -0.10291E-02   -0.19306E-03  4670   0.912E-02    0.300E-01
RMM:   3    -0.133594289989E+03    0.97219E-03   -0.28694E-04  3968   0.523E-02    0.369E-02
RMM:   4    -0.133594329460E+03   -0.39471E-04   -0.50563E-05  2762   0.270E-02    0.355E-02
RMM:   5    -0.133594315330E+03    0.14130E-04   -0.23898E-05  2359   0.247E-02    0.210E-02
RMM:   6    -0.133594312979E+03    0.23508E-05   -0.16177E-05  2369   0.166E-02
 245 F= -.13359431E+03 E0= -.13358956E+03  d E =-.202068E-03
quench:  g(F)=  0.000E+00 g(S)=  0.000E+00 dE (1.order)= 0.000E+00
 bond charge predicted
       N       E                     dE             d eps       ncg     rms          rms(c)
DAV:   1    -0.133594530257E+03   -0.21493E-03   -0.37576E-02  4266   0.311E-01    0.721E-02
RMM:   2    -0.133596004715E+03   -0.14745E-02   -0.21014E-03  5049   0.831E-02    0.384E-01
RMM:   3    -0.133594554484E+03    0.14502E-02   -0.39812E-04  4035   0.581E-02    0.412E-02
RMM:   4    -0.133594603582E+03   -0.49098E-04   -0.87206E-05  3063   0.346E-02    0.389E-02
RMM:   5    -0.133594594342E+03    0.92398E-05   -0.28957E-05  2413   0.231E-02
 246 F= -.13359459E+03 E0= -.13358984E+03  d E =-.281363E-03
quench:  g(F)=  0.000E+00 g(S)=  0.000E+00 dE (1.order)= 0.000E+00
 bond charge predicted
       N       E                     dE             d eps       ncg     rms          rms(c)
DAV:   1    -0.133594769591E+03   -0.16601E-03   -0.42813E-02  4266   0.342E-01    0.579E-02
RMM:   2    -0.133595488252E+03   -0.71866E-03   -0.16858E-03  5632   0.794E-02    0.240E-01
RMM:   3    -0.133594850494E+03    0.63776E-03   -0.18979E-04  3629   0.406E-02    0.337E-02
RMM:   4    -0.133594889434E+03   -0.38940E-04   -0.51860E-05  2911   0.314E-02    0.342E-02
RMM:   5    -0.133594874285E+03    0.15148E-04   -0.22704E-05  2411   0.229E-02    0.163E-02
RMM:   6    -0.133594872561E+03    0.17243E-05   -0.16479E-05  2358   0.171E-02
 247 F= -.13359487E+03 E0= -.13359014E+03  d E =-.278219E-03
quench:  g(F)=  0.000E+00 g(S)=  0.000E+00 dE (1.order)= 0.000E+00
 bond charge predicted
       N       E                     dE             d eps       ncg     rms          rms(c)
DAV:   1    -0.133595050015E+03   -0.17573E-03   -0.38469E-02  4266   0.316E-01    0.627E-02
RMM:   2    -0.133596124855E+03   -0.10748E-02   -0.19926E-03  5149   0.813E-02    0.319E-01
RMM:   3    -0.133595102120E+03    0.10227E-02   -0.28280E-04  3815   0.493E-02    0.370E-02
RMM:   4    -0.133595149318E+03   -0.47197E-04   -0.63094E-05  2864   0.305E-02    0.421E-02
RMM:   5    -0.133595131342E+03    0.17976E-04   -0.28893E-05  2421   0.246E-02    0.221E-02
RMM:   6    -0.133595129235E+03    0.21069E-05   -0.18532E-05  2316   0.185E-02
 248 F= -.13359513E+03 E0= -.13359040E+03  d E =-.256674E-03
quench:  g(F)=  0.000E+00 g(S)=  0.000E+00 dE (1.order)= 0.000E+00
 bond charge predicted
       N       E                     dE             d eps       ncg     rms          rms(c)
DAV:   1    -0.133595304624E+03   -0.17328E-03   -0.32110E-02  4347   0.297E-01    0.514E-02
RMM:   2    -0.133595904084E+03   -0.59946E-03   -0.13724E-03  5434   0.730E-02    0.224E-01
RMM:   3    -0.133595359054E+03    0.54503E-03   -0.15536E-04  3485   0.379E-02    0.301E-02
RMM:   4    -0.133595401097E+03   -0.42043E-04   -0.39895E-05  2636   0.268E-02    0.359E-02
RMM:   5    -0.133595387055E+03    0.14042E-04   -0.22522E-05  2341   0.231E-02    0.165E-02
RMM:   6    -0.133595383791E+03    0.32646E-05   -0.15641E-05  2387   0.160E-02
 249 F= -.13359538E+03 E0= -.13359066E+03  d E =-.254556E-03
quench:  g(F)=  0.000E+00 g(S)=  0.000E+00 dE (1.order)= 0.000E+00
 bond charge predicted
       N       E                     dE             d eps       ncg     rms          rms(c)
DAV:   1    -0.133595558460E+03   -0.17140E-03   -0.31045E-02  4239   0.286E-01    0.463E-02
RMM:   2    -0.133596021178E+03   -0.46272E-03   -0.13279E-03  5234   0.684E-02    0.196E-01
RMM:   3    -0.133595624795E+03    0.39638E-03   -0.13641E-04  3405   0.339E-02    0.278E-02
RMM:   4    -0.133595650062E+03   -0.25267E-04   -0.33293E-05  2558   0.248E-02    0.325E-02
RMM:   5    -0.133595637971E+03    0.12090E-04   -0.18462E-05  2303   0.217E-02    0.166E-02
RMM:   6    -0.133595636706E+03    0.12659E-05   -0.12472E-05  2266   0.148E-02
 250 F= -.13359564E+03 E0= -.13359092E+03  d E =-.252915E-03
quench:  g(F)=  0.000E+00 g(S)=  0.000E+00 dE (1.order)= 0.000E+00
 bond charge predicted
       N       E                     dE             d eps       ncg     rms          rms(c)
DAV:   1    -0.133595812627E+03   -0.17466E-03   -0.38265E-02  4158   0.321E-01    0.502E-02
RMM:   2    -0.133596240154E+03   -0.42753E-03   -0.14687E-03  5590   0.735E-02    0.177E-01
RMM:   3    -0.133595893631E+03    0.34652E-03   -0.12855E-04  3396   0.330E-02    0.317E-02
RMM:   4    -0.133595926255E+03   -0.32623E-04   -0.33976E-05  2555   0.245E-02    0.311E-02
RMM:   5    -0.133595913404E+03    0.12851E-04   -0.20719E-05  2376   0.223E-02    0.174E-02
RMM:   6    -0.133595909954E+03    0.34498E-05   -0.11457E-05  2337   0.150E-02
 251 F= -.13359591E+03 E0= -.13359120E+03  d E =-.273249E-03
quench:  g(F)=  0.000E+00 g(S)=  0.000E+00 dE (1.order)= 0.000E+00
 bond charge predicted
       N       E                     dE             d eps       ncg     rms          rms(c)
DAV:   1    -0.133596075525E+03   -0.16212E-03   -0.45822E-02  4104   0.346E-01    0.537E-02
RMM:   2    -0.133596675052E+03   -0.59953E-03   -0.17672E-03  5611   0.796E-02    0.222E-01
RMM:   3    -0.133596174463E+03    0.50059E-03   -0.17792E-04  3540   0.384E-02    0.308E-02
RMM:   4    -0.133596207206E+03   -0.32743E-04   -0.41634E-05  2692   0.271E-02    0.378E-02
RMM:   5    -0.133596189686E+03    0.17520E-04   -0.24152E-05  2402   0.249E-02    0.188E-02
RMM:   6    -0.133596187964E+03    0.17215E-05   -0.19752E-05  2325   0.183E-02
 252 F= -.13359619E+03 E0= -.13359149E+03  d E =-.278010E-03
quench:  g(F)=  0.000E+00 g(S)=  0.000E+00 dE (1.order)= 0.000E+00
 bond charge predicted
       N       E                     dE             d eps       ncg     rms          rms(c)
DAV:   1    -0.133596334644E+03   -0.14496E-03   -0.36929E-02  4284   0.303E-01    0.573E-02
RMM:   2    -0.133596863284E+03   -0.52864E-03   -0.19699E-03  5121   0.766E-02    0.197E-01
RMM:   3    -0.133596428939E+03    0.43435E-03   -0.16508E-04  3497   0.359E-02    0.453E-02
RMM:   4    -0.133596449394E+03   -0.20455E-04   -0.50548E-05  2716   0.257E-02    0.347E-02
RMM:   5    -0.133596438379E+03    0.11015E-04   -0.32649E-05  2605   0.242E-02    0.223E-02
RMM:   6    -0.133596431535E+03    0.68442E-05   -0.18282E-05  2356   0.201E-02
 253 F= -.13359643E+03 E0= -.13359173E+03  d E =-.243570E-03
quench:  g(F)=  0.000E+00 g(S)=  0.000E+00 dE (1.order)= 0.000E+00
 bond charge predicted
       N       E                     dE             d eps       ncg     rms          rms(c)
DAV:   1    -0.133596555486E+03   -0.11711E-03   -0.23095E-02  4338   0.245E-01    0.404E-02
RMM:   2    -0.133596801551E+03   -0.24607E-03   -0.11095E-03  4991   0.613E-02    0.130E-01
RMM:   3    -0.133596625100E+03    0.17645E-03   -0.76531E-05  3076   0.272E-02    0.297E-02
RMM:   4    -0.133596633137E+03   -0.80372E-05   -0.30704E-05  2554   0.191E-02
 254 F= -.13359663E+03 E0= -.13359191E+03  d E =-.201602E-03
quench:  g(F)=  0.000E+00 g(S)=  0.000E+00 dE (1.order)= 0.000E+00
 bond charge predicted
       N       E                     dE             d eps       ncg     rms          rms(c)
DAV:   1    -0.133596743419E+03   -0.11832E-03   -0.14071E-02  5013   0.251E-01    0.387E-02
RMM:   2    -0.133596880947E+03   -0.13753E-03   -0.86920E-04  4392   0.599E-02    0.909E-02
RMM:   3    -0.133596811571E+03    0.69376E-04   -0.70516E-05  2931   0.238E-02    0.486E-02
RMM:   4    -0.133596795205E+03    0.16365E-04   -0.21746E-05  2425   0.196E-02    0.214E-02
RMM:   5    -0.133596793063E+03    0.21426E-05   -0.12000E-05  2297   0.172E-02
 255 F= -.13359679E+03 E0= -.13359210E+03  d E =-.159926E-03
quench:  g(F)=  0.000E+00 g(S)=  0.000E+00 dE (1.order)= 0.000E+00
 bond charge predicted
       N       E                     dE             d eps       ncg     rms          rms(c)
DAV:   1    -0.133596923575E+03   -0.12837E-03   -0.22487E-02  4113   0.244E-01    0.346E-02
RMM:   2    -0.133597057189E+03   -0.13361E-03   -0.76746E-04  5104   0.526E-02    0.837E-02
RMM:   3    -0.133596985198E+03    0.71991E-04   -0.43595E-05  2689   0.200E-02    0.289E-02
RMM:   4    -0.133596989617E+03   -0.44184E-05   -0.23505E-05  2465   0.235E-02
 256 F= -.13359699E+03 E0= -.13359229E+03  d E =-.196554E-03
quench:  g(F)=  0.000E+00 g(S)=  0.000E+00 dE (1.order)= 0.000E+00
 bond charge predicted
       N       E                     dE             d eps       ncg     rms          rms(c)
DAV:   1    -0.133597114627E+03   -0.12943E-03   -0.31326E-02  4554   0.309E-01    0.476E-02
RMM:   2    -0.133597291422E+03   -0.17679E-03   -0.15425E-03  4873   0.686E-02    0.748E-02
RMM:   3    -0.133597261838E+03    0.29583E-04   -0.85337E-05  3091   0.243E-02    0.688E-02
RMM:   4    -0.133597212836E+03    0.49003E-04   -0.27751E-05  2498   0.200E-02    0.250E-02
RMM:   5    -0.133597215222E+03   -0.23864E-05   -0.19919E-05  2361   0.222E-02
 257 F= -.13359722E+03 E0= -.13359252E+03  d E =-.225606E-03
quench:  g(F)=  0.000E+00 g(S)=  0.000E+00 dE (1.order)= 0.000E+00
 bond charge predicted
       N       E                     dE             d eps       ncg     rms          rms(c)
DAV:   1    -0.133597291918E+03   -0.79082E-04   -0.38537E-02  4653   0.341E-01    0.463E-02
RMM:   2    -0.133597557601E+03   -0.26568E-03   -0.16403E-03  5397   0.746E-02    0.110E-01
RMM:   3    -0.133597420480E+03    0.13712E-03   -0.82140E-05  3131   0.245E-02    0.400E-02
RMM:   4    -0.133597420699E+03   -0.21896E-06   -0.45263E-05  2765   0.260E-02
 258 F= -.13359742E+03 E0= -.13359272E+03  d E =-.205477E-03
quench:  g(F)=  0.000E+00 g(S)=  0.000E+00 dE (1.order)= 0.000E+00
 bond charge predicted
       N       E                     dE             d eps       ncg     rms          rms(c)
DAV:   1    -0.133597521093E+03   -0.10061E-03   -0.17136E-02  4977   0.240E-01    0.428E-02
RMM:   2    -0.133597636972E+03   -0.11588E-03   -0.10739E-03  4289   0.613E-02    0.641E-02
RMM:   3    -0.133597611578E+03    0.25394E-04   -0.70128E-05  2851   0.235E-02    0.527E-02
RMM:   4    -0.133597586827E+03    0.24751E-04   -0.21173E-05  2454   0.166E-02    0.259E-02
RMM:   5    -0.133597587281E+03   -0.45451E-06   -0.19086E-05  2378   0.200E-02
 259 F= -.13359759E+03 E0= -.13359290E+03  d E =-.166582E-03
quench:  g(F)=  0.000E+00 g(S)=  0.000E+00 dE (1.order)= 0.000E+00
 bond charge predicted
       N       E                     dE             d eps       ncg     rms          rms(c)
DAV:   1    -0.133597680026E+03   -0.93199E-04   -0.15169E-02  4518   0.217E-01    0.282E-02
RMM:   2    -0.133597769027E+03   -0.89001E-04   -0.60091E-04  4871   0.469E-02    0.575E-02
RMM:   3    -0.133597731852E+03    0.37175E-04   -0.28808E-05  2513   0.158E-02    0.271E-02
RMM:   4    -0.133597732343E+03   -0.49147E-06   -0.19076E-05  2433   0.205E-02
 260 F= -.13359773E+03 E0= -.13359305E+03  d E =-.145062E-03
quench:  g(F)=  0.000E+00 g(S)=  0.000E+00 dE (1.order)= 0.000E+00
 bond charge predicted
       N       E                     dE             d eps       ncg     rms          rms(c)
DAV:   1    -0.133597839820E+03   -0.10797E-03   -0.23012E-02  4419   0.255E-01    0.375E-02
RMM:   2    -0.133597931836E+03   -0.92016E-04   -0.98406E-04  4867   0.554E-02    0.289E-02
RMM:   3    -0.133597910276E+03    0.21560E-04   -0.39760E-05  2499   0.175E-02    0.175E-02
RMM:   4    -0.133597916666E+03   -0.63899E-05   -0.16501E-05  2293   0.194E-02
 261 F= -.13359792E+03 E0= -.13359320E+03  d E =-.184323E-03
quench:  g(F)=  0.000E+00 g(S)=  0.000E+00 dE (1.order)= 0.000E+00
 bond charge predicted
       N       E                     dE             d eps       ncg     rms          rms(c)
DAV:   1    -0.133597984113E+03   -0.73837E-04   -0.38921E-02  4482   0.336E-01    0.439E-02
RMM:   2    -0.133598145930E+03   -0.16182E-03   -0.15365E-03  5132   0.781E-02    0.525E-02
RMM:   3    -0.133598150470E+03   -0.45401E-05   -0.81178E-05  3124   0.284E-02
 262 F= -.13359815E+03 E0= -.13359337E+03  d E =-.233804E-03
quench:  g(F)=  0.000E+00 g(S)=  0.000E+00 dE (1.order)= 0.000E+00
 bond charge predicted
       N       E                     dE             d eps       ncg     rms          rms(c)
DAV:   1    -0.133598099517E+03    0.46413E-04   -0.28922E-02  4698   0.319E-01    0.575E-02
RMM:   2    -0.133598385305E+03   -0.28579E-03   -0.21053E-03  4747   0.845E-02    0.126E-01
RMM:   3    -0.133598263387E+03    0.12192E-03   -0.14803E-04  3393   0.333E-02    0.688E-02
RMM:   4    -0.133598229584E+03    0.33803E-04   -0.46821E-05  2720   0.230E-02    0.379E-02
RMM:   5    -0.133598220664E+03    0.89209E-05   -0.34768E-05  2576   0.265E-02
 263 F= -.13359822E+03 E0= -.13359354E+03  d E =-.701939E-04
quench:  g(F)=  0.000E+00 g(S)=  0.000E+00 dE (1.order)= 0.000E+00
 bond charge predicted
       N       E                     dE             d eps       ncg     rms          rms(c)
DAV:   1    -0.133598343665E+03   -0.11408E-03   -0.12756E-02  4842   0.217E-01    0.470E-02
RMM:   2    -0.133599007701E+03   -0.66404E-03   -0.93929E-04  4837   0.569E-02    0.249E-01
RMM:   3    -0.133598349773E+03    0.65793E-03   -0.16685E-04  3488   0.391E-02    0.269E-02
RMM:   4    -0.133598377230E+03   -0.27457E-04   -0.37837E-05  2584   0.240E-02    0.212E-02
RMM:   5    -0.133598376997E+03    0.23327E-06   -0.19831E-05  2370   0.181E-02
 264 F= -.13359838E+03 E0= -.13359370E+03  d E =-.156333E-03
quench:  g(F)=  0.000E+00 g(S)=  0.000E+00 dE (1.order)= 0.000E+00
 bond charge predicted
       N       E                     dE             d eps       ncg     rms          rms(c)
DAV:   1    -0.133598486759E+03   -0.10953E-03   -0.18349E-02  4536   0.235E-01    0.374E-02
RMM:   2    -0.133598688987E+03   -0.20223E-03   -0.79427E-04  4747   0.573E-02    0.122E-01
RMM:   3    -0.133598534103E+03    0.15488E-03   -0.94868E-05  3068   0.280E-02    0.305E-02
RMM:   4    -0.133598542776E+03   -0.86728E-05   -0.20380E-05  2427   0.188E-02
 265 F= -.13359854E+03 E0= -.13359386E+03  d E =-.165780E-03
quench:  g(F)=  0.000E+00 g(S)=  0.000E+00 dE (1.order)= 0.000E+00
 bond charge predicted
       N       E                     dE             d eps       ncg     rms          rms(c)
DAV:   1    -0.133598664925E+03   -0.13082E-03   -0.40073E-02  4527   0.346E-01    0.475E-02
RMM:   2    -0.133598801065E+03   -0.13614E-03   -0.14100E-03  5477   0.735E-02    0.312E-02
RMM:   3    -0.133598798624E+03    0.24405E-05   -0.54673E-05  2783   0.237E-02
 266 F= -.13359880E+03 E0= -.13359406E+03  d E =-.255848E-03
quench:  g(F)=  0.000E+00 g(S)=  0.000E+00 dE (1.order)= 0.000E+00
 bond charge predicted
       N       E                     dE             d eps       ncg     rms          rms(c)
DAV:   1    -0.133598907359E+03   -0.10629E-03   -0.65426E-02  4437   0.438E-01    0.712E-02
RMM:   2    -0.133599345173E+03   -0.43781E-03   -0.27969E-03  5271   0.104E-01    0.155E-01
RMM:   3    -0.133599144383E+03    0.20079E-03   -0.20412E-04  3648   0.388E-02    0.796E-02
RMM:   4    -0.133599111523E+03    0.32860E-04   -0.63356E-05  3100   0.307E-02    0.440E-02
RMM:   5    -0.133599089063E+03    0.22459E-04   -0.33396E-05  2496   0.291E-02    0.245E-02
RMM:   6    -0.133599084332E+03    0.47316E-05   -0.17632E-05  2303   0.189E-02
 267 F= -.13359908E+03 E0= -.13359442E+03  d E =-.285708E-03
quench:  g(F)=  0.000E+00 g(S)=  0.000E+00 dE (1.order)= 0.000E+00
 bond charge predicted
       N       E                     dE             d eps       ncg     rms          rms(c)
DAV:   1    -0.133599301278E+03   -0.21221E-03   -0.72716E-02  4185   0.438E-01    0.101E-01
RMM:   2    -0.133602221479E+03   -0.29202E-02   -0.38647E-03  5178   0.115E-01    0.541E-01
RMM:   3    -0.133599318727E+03    0.29028E-02   -0.77513E-04  4084   0.822E-02    0.530E-02
RMM:   4    -0.133599441879E+03   -0.12315E-03   -0.16808E-04  3504   0.478E-02    0.502E-02
RMM:   5    -0.133599422819E+03    0.19060E-04   -0.50910E-05  2756   0.292E-02    0.282E-02
RMM:   6    -0.133599422610E+03    0.20806E-06   -0.29713E-05  2528   0.241E-02
 268 F= -.13359942E+03 E0= -.13359477E+03  d E =-.338279E-03
quench:  g(F)=  0.000E+00 g(S)=  0.000E+00 dE (1.order)= 0.000E+00
 bond charge predicted
       N       E                     dE             d eps       ncg     rms          rms(c)
DAV:   1    -0.133599530729E+03   -0.10791E-03   -0.37416E-02  4653   0.302E-01    0.665E-02
RMM:   2    -0.133600196204E+03   -0.66547E-03   -0.23514E-03  4978   0.820E-02    0.225E-01
RMM:   3    -0.133599649882E+03    0.54632E-03   -0.22250E-04  3633   0.424E-02    0.570E-02
RMM:   4    -0.133599657469E+03   -0.75873E-05   -0.71346E-05  2920   0.279E-02
 269 F= -.13359966E+03 E0= -.13359504E+03  d E =-.234859E-03
quench:  g(F)=  0.000E+00 g(S)=  0.000E+00 dE (1.order)= 0.000E+00
 bond charge predicted
       N       E                     dE             d eps       ncg     rms          rms(c)
DAV:   1    -0.133599760912E+03   -0.11103E-03   -0.11417E-02  5463   0.276E-01    0.419E-02
RMM:   2    -0.133599956733E+03   -0.19582E-03   -0.81685E-04  4454   0.660E-02    0.129E-01
