 vasp.5.4.4.18Apr17-6-g9f103f2a35 (build Feb 06 2024 13:54:16) complex          
  
 POSCAR found type information on POSCAR  Cu Ru Cu N  O 
 04/POSCAR found :  5 types and      40 ions
 scaLAPACK will be used

 ----------------------------------------------------------------------------- 
|                                                                             |
|  ADVICE TO THIS USER RUNNING 'VASP/VAMP'   (HEAR YOUR MASTER'S VOICE ...):  |
|                                                                             |
|      You enforced a specific xc-type in the INCAR file,                     |
|      a different type was found on the POTCAR file                          |
|          I HOPE YOU KNOW, WHAT YOU ARE  DOING                               |
|                                                                             |
 ----------------------------------------------------------------------------- 

 LDA part: xc-table for Pade appr. of Perdew
 POSCAR found type information on POSCAR  Cu Ru Cu N  O 
 00/POSCAR found :  5 types and      40 ions
 POSCAR found type information on POSCAR  Cu Ru Cu N  O 
 06/POSCAR found :  5 types and      40 ions
 Jacobian:    20.5888137679208     
 POSCAR, INCAR and KPOINTS ok, starting setup
 FFT: planning ...
 WAVECAR not read
 entering main loop
       N       E                     dE             d eps       ncg     rms          rms(c)
  Solvation turned off during non-self-consistent phase (first NELMDL steps)
DAV:   1     0.439126328404E+04    0.43913E+04   -0.18051E+05  4080   0.203E+03
DAV:   2     0.628247014884E+03   -0.37630E+04   -0.36322E+04  4107   0.472E+02
DAV:   3    -0.333469398634E+02   -0.66159E+03   -0.61041E+03  4800   0.235E+02
DAV:   4    -0.152564420068E+03   -0.11922E+03   -0.10587E+03  7188   0.927E+01
DAV:   5    -0.165639868698E+03   -0.13075E+02   -0.12520E+02  6315   0.309E+01    0.474E+01
 Begin Solvation calculations
  rms_SCF =    8.20041464600009      tol =   0.820041464600009     
 Begin minimization
 Creating dielectric and ionic cavities
  area:      161.399336367538     
  volume:    683.724642233654     
  Acav:     8.473465159295719E-002
  Solving linear dielectric/ionic screening model
        iter                  A_solv                     rms
   LPB:       -0.372114991472560E+03   0.238657203471204E+03
   LPB:    0  -0.142586501712633E+02   0.531103924620937E+02  -0.468266E+01   0.000000E+00   0.326403E+02  -0.152843E+03
   LPB:    1  -0.238789221847873E+01   0.752996580743356E+01   0.100719E-01   0.000000E+00   0.809837E+02  -0.252744E-14
   LPB:    2  -0.838263531161374E+00   0.125300174843990E+01   0.143601E-01   0.915595E-01   0.328196E+03   0.700481E-14
   LPB:    3  -0.529581577326212E+00   0.160252649224209E+01   0.258099E-01   0.110829E+00   0.559006E+03   0.125519E-13
   LPB:    4  -0.429620530417537E+00   0.117725439108155E+01   0.245395E-01   0.340596E+00   0.777938E+02   0.138284E-13
   LPB:    5  -0.379459437101104E+00   0.630006626766009E+00   0.229179E-01   0.537312E+00   0.467445E+03   0.147309E-13
  Finished solving LPB equations
  A_corr:   -0.294724785508147     
 End minimization
 Ecorr=   1834.62384428118     
 A_corr= -0.294724785508147     
 Ecorr_band=  -1834.91856906669     
 End Solvation calculations
RMM:   6    -0.174581920120E+03   -0.89421E+01   -0.37049E+02  4153   0.947E+01    0.403E+01
 Begin Solvation calculations
  rms_SCF =    8.20041464600009      tol =   0.820041464600009     
 Begin minimization
 Creating dielectric and ionic cavities
  area:      171.685547563752     
  volume:    701.348154402411     
  Acav:     9.013491247096965E-002
  Solving linear dielectric/ionic screening model
        iter                  A_solv                     rms
   LPB:       -0.256325867835908E+02   0.872153592365781E+02
   LPB:    0  -0.242807417026809E+02   0.850341870448457E+02   0.291520E+00   0.000000E+00   0.318141E+02   0.927445E+01
   LPB:    1  -0.227103849392402E+01   0.774361397896331E+01   0.909668E-02   0.000000E+00   0.732973E+02   0.398555E-15
   LPB:    2  -0.593015056100498E+00   0.179006097752065E+01   0.156049E-01   0.444433E-01   0.154390E+03  -0.125421E-13
   LPB:    3  -0.355241451695370E+00   0.108815220610547E+01   0.230779E-01   0.958143E-01   0.162556E+03  -0.829587E-14
   LPB:    4  -0.288128662571154E+00   0.977819295724897E+00   0.229949E-01   0.283274E+00   0.259310E+03   0.116452E-13
   LPB:    5  -0.255678012460471E+00   0.399586232141889E+00   0.241324E-01   0.460733E+00   0.122771E+03   0.167959E-13
  Finished solving LPB equations
  A_corr:   -0.165543099989502     
 End minimization
 Ecorr=   1742.05488737057     
 A_corr= -0.165543099989502     
 Ecorr_band=  -1742.22043047056     
 End Solvation calculations
RMM:   7    -0.156715417411E+03    0.17867E+02   -0.11223E+02  4213   0.483E+01    0.281E+01
 Begin Solvation calculations
  rms_SCF =    8.20041464600009      tol =   0.820041464600009     
 Begin minimization
 Creating dielectric and ionic cavities
  area:      178.461228649301     
  volume:    700.712753478358     
  Acav:     9.369214504088305E-002
  Solving linear dielectric/ionic screening model
        iter                  A_solv                     rms
   LPB:       -0.916274525745414E+01   0.518492962860763E+02
   LPB:    0  -0.915864106601247E+01   0.518189361148237E+02  -0.160552E-01   0.000000E+00   0.318439E+02  -0.511260E+00
   LPB:    1  -0.101007788935693E+01   0.484920793921373E+01   0.913552E-02   0.000000E+00   0.726725E+02  -0.467833E-16
   LPB:    2  -0.345950368175451E+00   0.734666782122868E+00   0.156626E-01   0.475380E-01   0.152044E+03   0.236772E-14
   LPB:    3  -0.255304637421402E+00   0.430443281335599E+00   0.231032E-01   0.925309E-01   0.348408E+03   0.190249E-14
   LPB:    4  -0.234383627660039E+00   0.205145680669717E+00   0.262147E-01   0.203405E+00   0.182519E+03   0.183229E-14
  Finished solving LPB equations
  A_corr:   -0.140691482619156     
 End minimization
 Ecorr=   1718.14535157455     
 A_corr= -0.140691482619156     
 Ecorr_band=  -1718.28604305717     
 End Solvation calculations
RMM:   8    -0.140178762734E+03    0.16537E+02   -0.78356E+00  4198   0.116E+01    0.149E+01
 Begin Solvation calculations
  rms_SCF =    3.05781710296593      tol =   0.305781710296593     
 Begin minimization
 Creating dielectric and ionic cavities
  area:      164.672459120315     
  volume:    700.671979760374     
  Acav:     8.645304103816512E-002
  Solving linear dielectric/ionic screening model
        iter                  A_solv                     rms
   LPB:       -0.802527163830099E+00   0.124660267369120E+02
   LPB:    0  -0.802388897516939E+00   0.124474792462256E+02  -0.294678E-02   0.000000E+00   0.318458E+02  -0.938424E-01
   LPB:    1  -0.317095341113008E+00   0.135789854986300E+01   0.915580E-02   0.000000E+00   0.736975E+02   0.576626E-17
   LPB:    2  -0.256088180145616E+00   0.338812023312004E+00   0.195249E-01   0.589500E-01   0.103716E+03  -0.296771E-15
   LPB:    3  -0.242864571430367E+00   0.236763063559951E+00   0.247800E-01   0.170788E+00   0.253022E+03  -0.427930E-14
   LPB:    4  -0.235963359548973E+00   0.148166616100293E+00   0.345810E-01   0.373972E+00   0.725109E+02  -0.554236E-14
  Finished solving LPB equations
  A_corr:   -0.149510318510808     
 End minimization
 Ecorr=   1684.00891882021     
 A_corr= -0.149510318510808     
 Ecorr_band=  -1684.15842913872     
 End Solvation calculations
RMM:   9    -0.138272525248E+03    0.19062E+01   -0.74965E+00  4188   0.114E+01    0.758E+00
 Begin Solvation calculations
  rms_SCF =    3.05781710296593      tol =   0.305781710296593     
 Begin minimization
 Creating dielectric and ionic cavities
  area:      158.173574371910     
  volume:    699.006874004940     
  Acav:     8.304112654525284E-002
  Solving linear dielectric/ionic screening model
        iter                  A_solv                     rms
   LPB:       -0.129040539845327E+01   0.164440628317450E+02
   LPB:    0  -0.127922607355000E+01   0.164702041688884E+02   0.264646E-01   0.000000E+00   0.319238E+02   0.844851E+00
   LPB:    1  -0.404094436946433E+00   0.164797883561544E+01   0.936893E-02   0.000000E+00   0.733210E+02  -0.451697E-17
   LPB:    2  -0.320513143590041E+00   0.300206939750295E+00   0.154245E-01   0.580117E-01   0.177008E+03   0.128117E-14
   LPB:    3  -0.304459894701090E+00   0.190288312806760E+00   0.267715E-01   0.110660E+00   0.251974E+03   0.197414E-14
   LPB:    4  -0.296575020193486E+00   0.129555179917845E+00   0.363550E-01   0.361693E+00   0.115507E+03   0.288902E-14
  Finished solving LPB equations
  A_corr:   -0.213533893648233     
 End minimization
 Ecorr=   1646.72395152311     
 A_corr= -0.213533893648233     
 Ecorr_band=  -1646.93748541676     
 End Solvation calculations
RMM:  10    -0.137252324427E+03    0.10202E+01   -0.12529E+00  4191   0.484E+00    0.507E+00
 Begin Solvation calculations
  rms_SCF =    1.76478970914626      tol =   0.176478970914626     
 Begin minimization
 Creating dielectric and ionic cavities
  area:      153.572351112087     
  volume:    694.198151569903     
  Acav:     8.062548433384564E-002
  Solving linear dielectric/ionic screening model
        iter                  A_solv                     rms
   LPB:       -0.473644531484660E+00   0.314138982829703E+01
   LPB:    0  -0.471502803246009E+00   0.275346417135159E+01  -0.115428E-01   0.000000E+00   0.321493E+02  -0.371093E+00
   LPB:    1  -0.362095118647792E+00   0.111714935751719E+01   0.145112E-01   0.000000E+00   0.105828E+03  -0.890937E-17
   LPB:    2  -0.348396597979630E+00   0.429161506158105E+00   0.149490E-01   0.121539E+00   0.136087E+03  -0.101499E-13
   LPB:    3  -0.339600645693679E+00   0.313820212012850E+00   0.278683E-01   0.344439E+00   0.138401E+03  -0.114602E-13
   LPB:    4  -0.333312913685754E+00   0.439098974749752E+00   0.307885E-01   0.647043E+00   0.499755E+02  -0.118078E-13
   LPB:    5  -0.327822764149176E+00   0.244646850348943E+00   0.268139E-01   0.100258E+01   0.155139E+03  -0.128462E-13
   LPB:    6  -0.323830482847460E+00   0.822925523323561E-01   0.339647E-01   0.574076E+00   0.602790E+02  -0.117354E-13
  Finished solving LPB equations
  A_corr:   -0.243204998513614     
 End minimization
 Ecorr=   1605.76660870662     
 A_corr= -0.243204998513614     
 Ecorr_band=  -1606.00981370513     
 End Solvation calculations
RMM:  11    -0.137239058818E+03    0.13266E-01   -0.81698E-01  4184   0.275E+00    0.466E+00
 Begin Solvation calculations
  rms_SCF =    1.76478970914626      tol =   0.176478970914626     
 Begin minimization
 Creating dielectric and ionic cavities
  area:      147.908849108324     
  volume:    691.047744479929     
  Acav:     7.765214578186996E-002
  Solving linear dielectric/ionic screening model
        iter                  A_solv                     rms
   LPB:       -0.415110157050547E+00   0.153238804295218E+01
   LPB:    0  -0.414937920107575E+00   0.162447315600066E+01   0.326586E-02   0.000000E+00   0.322970E+02   0.105477E+00
   LPB:    1  -0.370771965790549E+00   0.870524740595507E+00   0.151547E-01   0.000000E+00   0.115428E+03   0.320757E-17
   LPB:    2  -0.363034104409878E+00   0.275352480171580E+00   0.153148E-01   0.173368E+00   0.127862E+03  -0.515763E-14
   LPB:    3  -0.360326415255431E+00   0.155213504782384E+00   0.199124E-01   0.269133E+00   0.300201E+03  -0.624131E-14
   LPB:    4  -0.358529853557710E+00   0.199709898218095E+00   0.338446E-01   0.390370E+00   0.812246E+02  -0.641815E-14
   LPB:    5  -0.356711184384374E+00   0.188070002768629E+00   0.310233E-01   0.110437E+01   0.212805E+03  -0.705749E-14
   LPB:    6  -0.354796426410509E+00   0.842677656601246E-01   0.363926E-01   0.897501E+00   0.486925E+02  -0.801554E-14
  Finished solving LPB equations
  A_corr:   -0.277144280628639     
 End minimization
 Ecorr=   1581.64338299769     
 A_corr= -0.277144280628639     
 Ecorr_band=  -1581.92052727832     
 End Solvation calculations
RMM:  12    -0.136999676842E+03    0.23938E+00   -0.25227E-01  4187   0.211E+00    0.169E+00
 Begin Solvation calculations
  rms_SCF =   0.281708224371624      tol =   2.817082243716237E-002
 Begin minimization
 Creating dielectric and ionic cavities
  area:      146.168859089628     
  volume:    688.757016997339     
  Acav:     7.673865102205467E-002
  Solving linear dielectric/ionic screening model
        iter                  A_solv                     rms
   LPB:       -0.396231108507441E+00   0.996241576642703E+00
   LPB:    0  -0.396220881004742E+00   0.101816477508126E+01   0.794508E-03   0.000000E+00   0.324044E+02   0.257455E-01
   LPB:    1  -0.377185653155155E+00   0.545148250828673E+00   0.143845E-01   0.000000E+00   0.146048E+03   0.884299E-18
   LPB:    2  -0.374603929616363E+00   0.161413137653238E+00   0.144013E-01   0.135470E+00   0.106659E+03  -0.416563E-14
   LPB:    3  -0.373728032194681E+00   0.797776147755263E-01   0.197373E-01   0.247548E+00   0.240014E+03  -0.468686E-14
   LPB:    4  -0.373094924305789E+00   0.113178369184216E+00   0.376529E-01   0.378891E+00   0.695878E+02  -0.486132E-14
   LPB:    5  -0.372321098988155E+00   0.131415993665993E+00   0.349889E-01   0.131533E+01   0.144139E+03  -0.493472E-14
   LPB:    6  -0.371574851191386E+00   0.679108353580938E-01   0.325106E-01   0.103788E+01   0.362150E+02  -0.478313E-14
   LPB:    7  -0.371075501396355E+00   0.305862146047220E-01   0.322231E-01   0.675116E+00   0.149800E+03  -0.554783E-14
   LPB:    8  -0.370768271273894E+00   0.183088429601313E-01   0.349356E-01   0.567490E+00   0.157218E+03  -0.573509E-14
  Finished solving LPB equations
  A_corr:   -0.294029620251839     
 End minimization
 Ecorr=   1563.44043780982     
 A_corr= -0.294029620251839     
 Ecorr_band=  -1563.73446743008     
 End Solvation calculations
RMM:  13    -0.136981353678E+03    0.18323E-01   -0.10796E-01  4223   0.149E+00    0.123E+00
 Begin Solvation calculations
  rms_SCF =   0.281708224371624      tol =   2.817082243716237E-002
 Begin minimization
 Creating dielectric and ionic cavities
  area:      145.876996197103     
  volume:    685.533143228179     
  Acav:     7.658542300347905E-002
  Solving linear dielectric/ionic screening model
        iter                  A_solv                     rms
   LPB:       -0.458957231280055E+00   0.180242294451042E+01
   LPB:    0  -0.458404703734116E+00   0.159166584168702E+01  -0.582612E-02   0.000000E+00   0.325555E+02  -0.189672E+00
   LPB:    1  -0.411856456529900E+00   0.763991401940078E+00   0.146854E-01   0.000000E+00   0.129354E+03  -0.353709E-17
   LPB:    2  -0.405800444780495E+00   0.233902214156188E+00   0.148132E-01   0.128979E+00   0.117932E+03  -0.297870E-14
   LPB:    3  -0.404026438251553E+00   0.129545405558511E+00   0.189819E-01   0.228602E+00   0.258463E+03  -0.246215E-14
   LPB:    4  -0.403461770733652E+00   0.107045951398276E+00   0.202951E-01   0.297705E+00   0.121190E+03  -0.291820E-14
   LPB:    5  -0.403128710867919E+00   0.696190721688301E-01   0.243865E-01   0.490875E+00   0.266511E+03  -0.285315E-14
   LPB:    6  -0.402876425699804E+00   0.267684526995275E-01   0.349432E-01   0.528635E+00   0.903644E+02  -0.312320E-14
  Finished solving LPB equations
  A_corr:   -0.326291002696325     
 End minimization
 Ecorr=   1551.05474021386     
 A_corr= -0.326291002696325     
 Ecorr_band=  -1551.38103121656     
 End Solvation calculations
RMM:  14    -0.136975746070E+03    0.56076E-02   -0.37080E-02  4282   0.743E-01    0.869E-01
 Begin Solvation calculations
  rms_SCF =   0.224301532043337      tol =   2.243015320433373E-002
 Begin minimization
 Creating dielectric and ionic cavities
  area:      145.756118732603     
  volume:    683.003995238433     
  Acav:     7.652196233461640E-002
  Solving linear dielectric/ionic screening model
        iter                  A_solv                     rms
   LPB:       -0.491909441790848E+00   0.145638129820296E+01
   LPB:    0  -0.491909183154707E+00   0.145215866491056E+01  -0.125822E-03   0.000000E+00   0.326741E+02  -0.411113E-02
   LPB:    1  -0.445877138955083E+00   0.782807583791898E+00   0.151270E-01   0.000000E+00   0.148182E+03  -0.202493E-19
   LPB:    2  -0.439732013241497E+00   0.260404397525867E+00   0.149295E-01   0.135263E+00   0.100878E+03   0.461083E-14
   LPB:    3  -0.437909123956687E+00   0.134333664868447E+00   0.188329E-01   0.235158E+00   0.221391E+03   0.621190E-14
   LPB:    4  -0.437030857426105E+00   0.135217303305135E+00   0.252017E-01   0.360041E+00   0.105012E+03   0.675541E-14
   LPB:    5  -0.436377606158006E+00   0.111373112321375E+00   0.266684E-01   0.702890E+00   0.237337E+03   0.710454E-14
   LPB:    6  -0.435816770846994E+00   0.468324181056401E-01   0.333944E-01   0.685613E+00   0.686829E+02   0.723566E-14
   LPB:    7  -0.435401090662795E+00   0.297887225725279E-01   0.358613E-01   0.690194E+00   0.205799E+03   0.778739E-14
   LPB:    8  -0.435108533201339E+00   0.209204036201896E-01   0.367499E-01   0.686786E+00   0.156073E+03   0.861229E-14
  Finished solving LPB equations
  A_corr:   -0.358586570866722     
 End minimization
 Ecorr=   1533.43481647170     
 A_corr= -0.358586570866722     
 Ecorr_band=  -1533.79340304256     
 End Solvation calculations
RMM:  15    -0.136973232519E+03    0.25136E-02   -0.24111E-02  4278   0.525E-01    0.423E-01
 Begin Solvation calculations
  rms_SCF =   0.224301532043337      tol =   2.243015320433373E-002
 Begin minimization
 Creating dielectric and ionic cavities
  area:      145.939563339750     
  volume:    681.681302779411     
  Acav:     7.661827075336893E-002
  Solving linear dielectric/ionic screening model
        iter                  A_solv                     rms
   LPB:       -0.474882359964096E+00   0.100469901643973E+01
   LPB:    0  -0.474779254200965E+00   0.914890286795615E+00  -0.250982E-02   0.000000E+00   0.327361E+02  -0.821618E-01
   LPB:    1  -0.457844373279847E+00   0.413253483070580E+00   0.153345E-01   0.000000E+00   0.132014E+03  -0.670735E-17
   LPB:    2  -0.455589230100849E+00   0.147935437969273E+00   0.155417E-01   0.131391E+00   0.112306E+03   0.284241E-15
   LPB:    3  -0.454989091255023E+00   0.792228618006731E-01   0.194180E-01   0.212996E+00   0.188707E+03   0.115702E-15
   LPB:    4  -0.454758406610584E+00   0.728884969189069E-01   0.215161E-01   0.346903E+00   0.137228E+03  -0.112967E-14
   LPB:    5  -0.454586782324742E+00   0.687232666714218E-01   0.267220E-01   0.599038E+00   0.227636E+03  -0.148027E-14
   LPB:    6  -0.454373267304030E+00   0.326659659722502E-01   0.390387E-01   0.851577E+00   0.587364E+02  -0.177006E-14
   LPB:    7  -0.454151074695419E+00   0.218109612719793E-01   0.406606E-01   0.999131E+00   0.103483E+03  -0.192545E-14
  Finished solving LPB equations
  A_corr:   -0.377532803942051     
 End minimization
 Ecorr=   1524.11407278675     
 A_corr= -0.377532803942051     
 Ecorr_band=  -1524.49160559069     
 End Solvation calculations
RMM:  16    -0.136973992584E+03   -0.76006E-03   -0.10226E-02  4312   0.380E-01    0.245E-01
 Begin Solvation calculations
  rms_SCF =   0.224301532043337      tol =   2.243015320433373E-002
 Begin minimization
 Creating dielectric and ionic cavities
  area:      146.263408062125     
  volume:    680.841582277970     
  Acav:     7.678828923261542E-002
  Solving linear dielectric/ionic screening model
        iter                  A_solv                     rms
   LPB:       -0.489567912517195E+00   0.112216955767920E+01
   LPB:    0  -0.489359570314334E+00   0.101175615392038E+01  -0.356557E-02   0.000000E+00   0.327755E+02  -0.116863E+00
   LPB:    1  -0.473021465389063E+00   0.293409661747497E+00   0.157477E-01   0.000000E+00   0.106686E+03  -0.462796E-18
   LPB:    2  -0.471025824173342E+00   0.128672529468234E+00   0.156762E-01   0.122703E+00   0.176096E+03   0.892705E-15
   LPB:    3  -0.470555828799804E+00   0.519431429904967E-01   0.203567E-01   0.181361E+00   0.108370E+03   0.205838E-14
   LPB:    4  -0.470365847267092E+00   0.660728208413951E-01   0.274164E-01   0.300134E+00   0.311315E+03   0.332863E-14
   LPB:    5  -0.470235393439079E+00   0.732915038300490E-01   0.276895E-01   0.679893E+00   0.893362E+02   0.402196E-14
   LPB:    6  -0.470102584978569E+00   0.370455195273703E-01   0.263622E-01   0.106931E+01   0.873641E+02   0.451824E-14
   LPB:    7  -0.469972484304535E+00   0.202900246995050E-01   0.352507E-01   0.732601E+00   0.115995E+03   0.516124E-14
  Finished solving LPB equations
  A_corr:   -0.393184195071920     
 End minimization
 Ecorr=   1516.80296053307     
 A_corr= -0.393184195071920     
 Ecorr_band=  -1517.19614472814     
 End Solvation calculations
RMM:  17    -0.136976206752E+03   -0.22142E-02   -0.47998E-03  4677   0.177E-01    0.204E-01
 Begin Solvation calculations
  rms_SCF =   0.224301532043337      tol =   2.243015320433373E-002
 Begin minimization
 Creating dielectric and ionic cavities
  area:      146.715571034177     
  volume:    680.089375136596     
  Acav:     7.702567479294288E-002
  Solving linear dielectric/ionic screening model
        iter                  A_solv                     rms
   LPB:       -0.514248040241894E+00   0.129626136704878E+01
   LPB:    0  -0.513869281170432E+00   0.114650394597650E+01  -0.480495E-02   0.000000E+00   0.328107E+02  -0.157654E+00
   LPB:    1  -0.492579993089740E+00   0.358565927218016E+00   0.156233E-01   0.000000E+00   0.110487E+03   0.189482E-17
   LPB:    2  -0.489995886633697E+00   0.140769839856959E+00   0.156689E-01   0.121027E+00   0.143847E+03   0.547350E-15
   LPB:    3  -0.489390680268437E+00   0.533189457892987E-01   0.208208E-01   0.176252E+00   0.124407E+03   0.110793E-14
   LPB:    4  -0.489135388533316E+00   0.433082771408461E-01   0.283011E-01   0.310332E+00   0.260226E+03   0.111359E-14
   LPB:    5  -0.488960841168054E+00   0.828405376335011E-01   0.323700E-01   0.597776E+00   0.166814E+03   0.959169E-15
   LPB:    6  -0.488828579044327E+00   0.626000788465888E-01   0.232518E-01   0.105489E+01   0.636860E+02   0.881781E-15
   LPB:    7  -0.488691958820814E+00   0.222868698148870E-01   0.303887E-01   0.790360E+00   0.176920E+03   0.954273E-15
  Finished solving LPB equations
  A_corr:   -0.411666284027871     
 End minimization
 Ecorr=   1509.38610023733     
 A_corr= -0.411666284027871     
 Ecorr_band=  -1509.79776652136     
 End Solvation calculations
RMM:  18    -0.136979144526E+03   -0.29378E-02   -0.34489E-03  4148   0.171E-01    0.175E-01
 Begin Solvation calculations
  rms_SCF =   0.224301532043337      tol =   2.243015320433373E-002
 Begin minimization
 Creating dielectric and ionic cavities
  area:      147.233322470218     
  volume:    679.482614216125     
  Acav:     7.729749429686469E-002
  Solving linear dielectric/ionic screening model
        iter                  A_solv                     rms
   LPB:       -0.539130269800649E+00   0.152341257849744E+01
   LPB:    0  -0.538469648832591E+00   0.133338422758522E+01  -0.634301E-02   0.000000E+00   0.328392E+02  -0.208299E+00
   LPB:    1  -0.513316960204191E+00   0.366364697433400E+00   0.154865E-01   0.000000E+00   0.100136E+03   0.150026E-17
   LPB:    2  -0.510314051269969E+00   0.148358666648059E+00   0.155505E-01   0.118896E+00   0.160659E+03  -0.178143E-14
   LPB:    3  -0.509625182553149E+00   0.560506448788452E-01   0.210001E-01   0.169870E+00   0.114772E+03   0.273798E-15
   LPB:    4  -0.509323934610745E+00   0.518602127435416E-01   0.288853E-01   0.317931E+00   0.333816E+03   0.168092E-14
   LPB:    5  -0.509099749547733E+00   0.741891815886471E-01   0.360841E-01   0.595722E+00   0.936561E+02   0.223191E-14
   LPB:    6  -0.508944698202400E+00   0.760400661928145E-01   0.245570E-01   0.101627E+01   0.121910E+03   0.258051E-14
   LPB:    7  -0.508795403498746E+00   0.324653025979197E-01   0.260798E-01   0.906649E+00   0.109219E+03   0.282951E-14
   LPB:    8  -0.508680851720630E+00   0.144720797942057E-01   0.337530E-01   0.592856E+00   0.198788E+03   0.300102E-14
  Finished solving LPB equations
  A_corr:   -0.431383357423765     
 End minimization
 Ecorr=   1501.44409737255     
 A_corr= -0.431383357423765     
 Ecorr_band=  -1501.87548072997     
 End Solvation calculations
RMM:  19    -0.136981923885E+03   -0.27794E-02   -0.24894E-03  4135   0.127E-01    0.156E-01
 Begin Solvation calculations
  rms_SCF =   0.224301532043337      tol =   2.243015320433373E-002
 Begin minimization
 Creating dielectric and ionic cavities
  area:      147.711185256404     
  volume:    679.167704086641     
  Acav:     7.754837225961217E-002
  Solving linear dielectric/ionic screening model
        iter                  A_solv                     rms
   LPB:       -0.563493607355408E+00   0.187620780807818E+01
   LPB:    0  -0.562341470936400E+00   0.166191602113004E+01  -0.837478E-02   0.000000E+00   0.328539E+02  -0.275144E+00
   LPB:    1  -0.533006587135541E+00   0.369646681638699E+00   0.151969E-01   0.000000E+00   0.823166E+02   0.121153E-17
   LPB:    2  -0.529624614086172E+00   0.183154113370286E+00   0.147125E-01   0.119084E+00   0.232256E+03  -0.264173E-14
   LPB:    3  -0.528877759885027E+00   0.997435612316886E-01   0.183562E-01   0.176998E+00   0.115535E+03  -0.216842E-14
   LPB:    4  -0.528596999899547E+00   0.834526522668929E-01   0.204529E-01   0.337386E+00   0.205660E+03  -0.184111E-14
   LPB:    5  -0.528436387299011E+00   0.565528557503982E-01   0.244491E-01   0.478560E+00   0.120469E+03  -0.171937E-14
   LPB:    6  -0.528287172687181E+00   0.248746989969378E-01   0.328419E-01   0.691620E+00   0.103524E+03  -0.166864E-14
   LPB:    7  -0.528149058641520E+00   0.148143445446416E-01   0.397987E-01   0.763810E+00   0.153378E+03  -0.146255E-14
  Finished solving LPB equations
  A_corr:   -0.450600686381908     
 End minimization
 Ecorr=   1495.28466845432     
 A_corr= -0.450600686381908     
 Ecorr_band=  -1495.73526914070     
 End Solvation calculations
RMM:  20    -0.136984481032E+03   -0.25571E-02   -0.25480E-03  4111   0.953E-02    0.108E-01
 Begin Solvation calculations
  rms_SCF =   0.223156270069498      tol =   2.231562700694979E-002
 Begin minimization
 Creating dielectric and ionic cavities
  area:      148.020141302200     
  volume:    679.122648206513     
  Acav:     7.771057418365492E-002
  Solving linear dielectric/ionic screening model
        iter                  A_solv                     rms
   LPB:       -0.560330099366217E+00   0.144202216241793E+01
   LPB:    0  -0.559695836880753E+00   0.129486678245914E+01  -0.621358E-02   0.000000E+00   0.328560E+02  -0.204154E+00
   LPB:    1  -0.544438454768213E+00   0.279203544137514E+00   0.149090E-01   0.000000E+00   0.744081E+02   0.743416E-17
   LPB:    2  -0.542701461044970E+00   0.138624836041840E+00   0.141775E-01   0.119720E+00   0.251033E+03   0.328921E-14
   LPB:    3  -0.542311155810997E+00   0.689002297205836E-01   0.176518E-01   0.180474E+00   0.121802E+03   0.274355E-14
   LPB:    4  -0.542147315545261E+00   0.651750616404906E-01   0.227524E-01   0.325671E+00   0.156357E+03   0.225202E-14
   LPB:    5  -0.542017724432407E+00   0.515386385295202E-01   0.293837E-01   0.612456E+00   0.110983E+03   0.210273E-14
   LPB:    6  -0.541875237287450E+00   0.235973985041168E-01   0.359445E-01   0.898824E+00   0.792135E+02   0.210335E-14
   LPB:    7  -0.541757191669982E+00   0.125468994665269E-01   0.366276E-01   0.813015E+00   0.155240E+03   0.311351E-14
  Finished solving LPB equations
  A_corr:   -0.464046617486327     
 End minimization
 Ecorr=   1490.37382173398     
 A_corr= -0.464046617486327     
 Ecorr_band=  -1490.83786835147     
 End Solvation calculations
RMM:  21    -0.136986038182E+03   -0.15571E-02   -0.10585E-03  4117   0.744E-02    0.991E-02
 Begin Solvation calculations
  rms_SCF =   0.204336123279488      tol =   2.043361232794876E-002
 Begin minimization
 Creating dielectric and ionic cavities
  area:      148.434053350425     
  volume:    679.232311083263     
  Acav:     7.792787800897308E-002
  Solving linear dielectric/ionic screening model
        iter                  A_solv                     rms
   LPB:       -0.607115468800296E+00   0.244519228299858E+01
   LPB:    0  -0.605430074349991E+00   0.223187506056932E+01  -0.101296E-01   0.000000E+00   0.328509E+02  -0.332766E+00
   LPB:    1  -0.568228747501760E+00   0.488199761236267E+00   0.143042E-01   0.000000E+00   0.677687E+02  -0.265901E-16
   LPB:    2  -0.563873546777086E+00   0.209702969446088E+00   0.133316E-01   0.125613E+00   0.262573E+03   0.935288E-14
   LPB:    3  -0.562938888882587E+00   0.909088624183931E-01   0.172453E-01   0.165903E+00   0.143427E+03   0.106032E-13
   LPB:    4  -0.562606694638368E+00   0.795551608561003E-01   0.224370E-01   0.273178E+00   0.154278E+03   0.108245E-13
   LPB:    5  -0.562414397080655E+00   0.574715276180461E-01   0.265636E-01   0.488944E+00   0.125644E+03   0.107112E-13
   LPB:    6  -0.562244614685776E+00   0.253991920030544E-01   0.333359E-01   0.703549E+00   0.980323E+02   0.108922E-13
   LPB:    7  -0.562102129164578E+00   0.143946768744753E-01   0.376525E-01   0.743013E+00   0.175728E+03   0.103661E-13
  Finished solving LPB equations
  A_corr:   -0.484174251155605     
 End minimization
 Ecorr=   1484.22172410843     
 A_corr= -0.484174251155605     
 Ecorr_band=  -1484.70589835959     
 End Solvation calculations
RMM:  22    -0.136987561086E+03   -0.15229E-02   -0.23364E-03  4114   0.824E-02    0.712E-02
 Begin Solvation calculations
  rms_SCF =   7.363055783075488E-002 tol =   7.363055783075488E-003
 Begin minimization
 Creating dielectric and ionic cavities
  area:      148.459590114444     
  volume:    679.368971242859     
  Acav:     7.794128481008331E-002
  Solving linear dielectric/ionic screening model
        iter                  A_solv                     rms
   LPB:       -0.567445440171814E+00   0.688839059456262E+00
   LPB:    0  -0.567358813223229E+00   0.654217528616789E+00  -0.229673E-02   0.000000E+00   0.328445E+02  -0.754350E-01
   LPB:    1  -0.564998647830177E+00   0.123647209609583E+00   0.127091E-01   0.000000E+00   0.654696E+02   0.710786E-18
   LPB:    2  -0.564750598476774E+00   0.460998109731005E-01   0.125455E-01   0.106469E+00   0.263050E+03  -0.108705E-14
   LPB:    3  -0.564686372156685E+00   0.185364253551432E-01   0.200389E-01   0.162102E+00   0.145117E+03  -0.121909E-14
   LPB:    4  -0.564647608561004E+00   0.291163551144268E-01   0.371852E-01   0.325248E+00   0.111374E+03  -0.125166E-14
   LPB:    5  -0.564581409447125E+00   0.437718106107704E-01   0.480312E-01   0.132213E+01   0.112510E+03  -0.132459E-14
   LPB:    6  -0.564499404178430E+00   0.207599656433705E-01   0.329685E-01   0.180473E+01   0.537672E+02  -0.247265E-14
   LPB:    7  -0.564460863162079E+00   0.570257816619266E-02   0.249213E-01   0.621742E+00   0.200074E+03  -0.357969E-14
  Finished solving LPB equations
  A_corr:   -0.486519578351996     
 End minimization
 Ecorr=   1481.92769000609     
 A_corr= -0.486519578351996     
 Ecorr_band=  -1482.41420958444     
 End Solvation calculations
RMM:  23    -0.136987839801E+03   -0.27872E-03   -0.40794E-04  4070   0.645E-02    0.759E-02
 Begin Solvation calculations
  rms_SCF =   7.363055783075488E-002 tol =   7.363055783075488E-003
 Begin minimization
 Creating dielectric and ionic cavities
  area:      148.515567917146     
  volume:    679.523729911695     
  Acav:     7.797067315650164E-002
  Solving linear dielectric/ionic screening model
        iter                  A_solv                     rms
   LPB:       -0.577723964756730E+00   0.127435953525986E+01
   LPB:    0  -0.577364020784475E+00   0.120469078893156E+01  -0.468219E-02   0.000000E+00   0.328372E+02  -0.153750E+00
   LPB:    1  -0.570212424253941E+00   0.224441966345738E+00   0.122467E-01   0.000000E+00   0.633516E+02  -0.185344E-17
   LPB:    2  -0.569390786838797E+00   0.701925518998946E-01   0.124364E-01   0.113136E+00   0.250655E+03  -0.282584E-15
   LPB:    3  -0.569244813059539E+00   0.232954404138738E-01   0.180387E-01   0.122485E+00   0.166103E+03  -0.333511E-15
   LPB:    4  -0.569206848805800E+00   0.224854760015138E-01   0.239580E-01   0.195819E+00   0.157726E+03  -0.373665E-15
   LPB:    5  -0.569190340092289E+00   0.160348053837152E-01   0.242479E-01   0.429651E+00   0.144145E+03  -0.413680E-15
   LPB:    6  -0.569180087949663E+00   0.673434570341960E-02   0.273452E-01   0.550674E+00   0.130880E+03  -0.485026E-15
  Finished solving LPB equations
  A_corr:   -0.491209414793161     
 End minimization
 Ecorr=   1480.49244394005     
 A_corr= -0.491209414793161     
 Ecorr_band=  -1480.98365335484     
 End Solvation calculations
RMM:  24    -0.136988028815E+03   -0.18901E-03   -0.40617E-04  4076   0.418E-02    0.335E-02
 Begin Solvation calculations
  rms_SCF =   4.217294986421647E-002 tol =   4.217294986421647E-003
 Begin minimization
 Creating dielectric and ionic cavities
  area:      148.506412003302     
  volume:    679.542894628168     
  Acav:     7.796586630173342E-002
  Solving linear dielectric/ionic screening model
        iter                  A_solv                     rms
   LPB:       -0.569695843873345E+00   0.344698035685008E+00
   LPB:    0  -0.569677702247577E+00   0.334091763890860E+00  -0.105118E-02   0.000000E+00   0.328363E+02  -0.345168E-01
   LPB:    1  -0.569182649143846E+00   0.502016042574551E-01   0.108490E-01   0.000000E+00   0.739689E+02  -0.295904E-17
   LPB:    2  -0.569141212052605E+00   0.147203852141614E-01   0.117774E-01   0.771047E-01   0.263769E+03  -0.491732E-16
   LPB:    3  -0.569134353097697E+00   0.423842221363295E-02   0.208475E-01   0.935108E-01   0.123829E+03  -0.580740E-16
   LPB:    4  -0.569128888453088E+00   0.734469041175569E-02   0.533495E-01   0.311335E+00   0.878310E+02  -0.354822E-16
   LPB:    5  -0.569120147162221E+00   0.112204511978271E-01   0.493710E-01   0.172851E+01   0.802823E+02   0.150903E-17
   LPB:    6  -0.569114243446942E+00   0.992256266527543E-02   0.270907E-01   0.123084E+01   0.607012E+02  -0.153628E-15
   LPB:    7  -0.569110419757530E+00   0.411216494263773E-02   0.266139E-01   0.659276E+00   0.180019E+03  -0.205383E-15
  Finished solving LPB equations
  A_corr:   -0.491144553455797     
 End minimization
 Ecorr=   1479.92824034029     
 A_corr= -0.491144553455797     
 Ecorr_band=  -1480.41938489375     
 End Solvation calculations
RMM:  25    -0.136988237408E+03   -0.20859E-03   -0.73526E-05  3276   0.246E-02    0.476E-02
 Begin Solvation calculations
  rms_SCF =   4.217294986421647E-002 tol =   4.217294986421647E-003
 Begin minimization
 Creating dielectric and ionic cavities
  area:      148.534584740023     
  volume:    679.548829708547     
  Acav:     7.798065698851205E-002
  Solving linear dielectric/ionic screening model
        iter                  A_solv                     rms
   LPB:       -0.572380187408019E+00   0.578445295401418E+00
   LPB:    0  -0.572320128048437E+00   0.552155966175010E+00  -0.191262E-02   0.000000E+00   0.328361E+02  -0.628031E-01
   LPB:    1  -0.571053294984657E+00   0.918571459558411E-01   0.112877E-01   0.000000E+00   0.631182E+02   0.332549E-17
   LPB:    2  -0.570898904892818E+00   0.248416278554219E-01   0.127894E-01   0.107561E+00   0.226550E+03   0.579139E-15
   LPB:    3  -0.570875778065298E+00   0.884310847248689E-02   0.182642E-01   0.104893E+00   0.185666E+03   0.642737E-15
   LPB:    4  -0.570870762067753E+00   0.783651852492550E-02   0.227402E-01   0.174200E+00   0.155199E+03   0.650995E-15
   LPB:    5  -0.570868851399847E+00   0.549348717803813E-02   0.233723E-01   0.370613E+00   0.147678E+03   0.615345E-15
   LPB:    6  -0.570867485005403E+00   0.257758617999903E-02   0.304626E-01   0.548687E+00   0.113830E+03   0.648468E-15
  Finished solving LPB equations
  A_corr:   -0.492886828016891     
 End minimization
 Ecorr=   1479.33291469336     
 A_corr= -0.492886828016891     
 Ecorr_band=  -1479.82580152138     
 End Solvation calculations
RMM:  26    -0.136988203837E+03    0.33571E-04   -0.68611E-05  3164   0.196E-02    0.171E-02
 Begin Solvation calculations
  rms_SCF =   3.185181410641749E-002 tol =   3.185181410641749E-003
 Begin minimization
 Creating dielectric and ionic cavities
  area:      148.504687486091     
  volume:    679.594721343963     
  Acav:     7.796496093019768E-002
  Solving linear dielectric/ionic screening model
        iter                  A_solv                     rms
   LPB:       -0.571654420497515E+00   0.633256831906603E+00
   LPB:    0  -0.571615489816523E+00   0.621458114253140E+00  -0.153993E-02   0.000000E+00   0.328339E+02  -0.505618E-01
   LPB:    1  -0.570081578272090E+00   0.792885856494197E-01   0.101275E-01   0.000000E+00   0.765398E+02  -0.595418E-18
   LPB:    2  -0.569964015797519E+00   0.180759733552177E-01   0.117865E-01   0.658547E-01   0.288747E+03  -0.745919E-16
   LPB:    3  -0.569952687717264E+00   0.401094642134800E-02   0.188725E-01   0.601789E-01   0.164846E+03  -0.784500E-16
   LPB:    4  -0.569950308547123E+00   0.278138932526279E-02   0.269506E-01   0.147072E+00   0.189141E+03  -0.107173E-15
  Finished solving LPB equations
  A_corr:   -0.491985347616925     
 End minimization
 Ecorr=   1479.12188982978     
 A_corr= -0.491985347616925     
 Ecorr_band=  -1479.61387517740     
 End Solvation calculations
RMM:  27    -0.136988407881E+03   -0.20404E-03   -0.87878E-05  3714   0.220E-02    0.521E-02
 Begin Solvation calculations
  rms_SCF =   3.185181410641749E-002 tol =   3.185181410641749E-003
 Begin minimization
 Creating dielectric and ionic cavities
  area:      148.479777777413     
  volume:    679.590116925092     
  Acav:     7.795188333314160E-002
  Solving linear dielectric/ionic screening model
        iter                  A_solv                     rms
   LPB:       -0.568571730078246E+00   0.158883705792183E+00
   LPB:    0  -0.568566466599908E+00   0.148300520743992E+00   0.566225E-03   0.000000E+00   0.328341E+02   0.185915E-01
   LPB:    1  -0.568386125264365E+00   0.348695972669046E-01   0.147818E-01   0.000000E+00   0.710538E+02   0.588093E-18
   LPB:    2  -0.568364389200551E+00   0.143544378584238E-01   0.133364E-01   0.133590E+00   0.273704E+03  -0.636307E-15
   LPB:    3  -0.568359504363786E+00   0.647178287872907E-02   0.175476E-01   0.170802E+00   0.172066E+03  -0.738504E-15
   LPB:    4  -0.568357645890320E+00   0.555771330776952E-02   0.228667E-01   0.291957E+00   0.275307E+03  -0.781981E-15
   LPB:    5  -0.568356692772920E+00   0.400297352479681E-02   0.253897E-01   0.461888E+00   0.137798E+03  -0.796160E-15
   LPB:    6  -0.568355966950190E+00   0.200262575035842E-02   0.304643E-01   0.634674E+00   0.316336E+03  -0.795657E-15
  Finished solving LPB equations
  A_corr:   -0.490404083617049     
 End minimization
 Ecorr=   1479.40514214784     
 A_corr= -0.490404083617049     
 Ecorr_band=  -1479.89554623145     
 End Solvation calculations
RMM:  28    -0.136988438964E+03   -0.31083E-04   -0.29665E-05  2592   0.139E-02    0.249E-02
 Begin Solvation calculations
  rms_SCF =   2.874525008121617E-002 tol =   2.874525008121617E-003
 Begin minimization
 Creating dielectric and ionic cavities
  area:      148.470662812293     
  volume:    679.567186842524     
  Acav:     7.794709797645380E-002
  Solving linear dielectric/ionic screening model
        iter                  A_solv                     rms
   LPB:       -0.567431703946740E+00   0.995187655842442E-01
   LPB:    0  -0.567430770086994E+00   0.969771280005614E-01   0.238499E-03   0.000000E+00   0.328352E+02   0.783115E-02
   LPB:    1  -0.567332691393240E+00   0.183026752726448E-01   0.156362E-01   0.000000E+00   0.843040E+02  -0.117367E-18
   LPB:    2  -0.567323119051499E+00   0.123733039143575E-01   0.148150E-01   0.103009E+00   0.300833E+03   0.207460E-16
   LPB:    3  -0.567320684587277E+00   0.519462443949599E-02   0.165889E-01   0.227126E+00   0.115541E+03   0.220776E-16
   LPB:    4  -0.567319348571022E+00   0.385167672159461E-02   0.266590E-01   0.341494E+00   0.363830E+03   0.138522E-16
   LPB:    5  -0.567318463538425E+00   0.426515538240940E-02   0.313758E-01   0.562855E+00   0.148414E+03  -0.569097E-17
   LPB:    6  -0.567317846377975E+00   0.300068329209031E-02   0.277136E-01   0.789480E+00   0.137927E+03  -0.161000E-16
   LPB:    7  -0.567317384611006E+00   0.140519444943775E-02   0.300694E-01   0.689593E+00   0.355191E+03  -0.252043E-16
  Finished solving LPB equations
  A_corr:   -0.489370286634553     
 End minimization
 Ecorr=   1479.55694922570     
 A_corr= -0.489370286634553     
 Ecorr_band=  -1480.04631951233     
 End Solvation calculations
RMM:  29    -0.136988476754E+03   -0.37790E-04   -0.22592E-05  2500   0.131E-02    0.522E-03
 Begin Solvation calculations
  rms_SCF =   5.271257778596126E-003 tol =   5.271257778596126E-004
 Begin minimization
 Creating dielectric and ionic cavities
  area:      148.479462868780     
  volume:    679.551146338243     
  Acav:     7.795171800610939E-002
  Solving linear dielectric/ionic screening model
        iter                  A_solv                     rms
   LPB:       -0.567434761301090E+00   0.390539236772637E-01
   LPB:    0  -0.567433521055604E+00   0.273630723515403E-01  -0.274849E-03   0.000000E+00   0.328360E+02  -0.902493E-02
   LPB:    1  -0.567423597763194E+00   0.104961984202952E-01   0.123486E-01   0.000000E+00   0.111494E+03   0.301968E-18
   LPB:    2  -0.567422639131198E+00   0.333360959848058E-02   0.149429E-01   0.798320E-01   0.820128E+02  -0.643982E-16
   LPB:    3  -0.567422338968574E+00   0.177153302242440E-02   0.192178E-01   0.243466E+00   0.371311E+03  -0.661494E-16
   LPB:    4  -0.567422189891264E+00   0.169465707189751E-02   0.253241E-01   0.376898E+00   0.163736E+03  -0.640465E-16
   LPB:    5  -0.567422006195111E+00   0.180849262194777E-02   0.370263E-01   0.842777E+00   0.388572E+03  -0.597516E-16
   LPB:    6  -0.567421769164192E+00   0.137056411441047E-02   0.387786E-01   0.123204E+01   0.121376E+03  -0.552056E-16
   LPB:    7  -0.567421567776392E+00   0.516918539026561E-03   0.373434E-01   0.882279E+00   0.725754E+03  -0.499488E-16
  Finished solving LPB equations
  A_corr:   -0.489469849770283     
 End minimization
 Ecorr=   1479.40682056261     
 A_corr= -0.489469849770283     
 Ecorr_band=  -1479.89629041238     
 End Solvation calculations
RMM:  30    -0.136988490763E+03   -0.14009E-04   -0.11224E-05  2408   0.128E-02    0.618E-03
 Begin Solvation calculations
  rms_SCF =   5.271257778596126E-003 tol =   5.271257778596126E-004
 Begin minimization
 Creating dielectric and ionic cavities
  area:      148.488128383032     
  volume:    679.549647780371     
  Acav:     7.795626740109173E-002
  Solving linear dielectric/ionic screening model
        iter                  A_solv                     rms
   LPB:       -0.567907085748499E+00   0.118345509776354E+00
   LPB:    0  -0.567901996638954E+00   0.106192686299812E+00  -0.556751E-03   0.000000E+00   0.328360E+02  -0.182815E-01
   LPB:    1  -0.567857134834741E+00   0.151771496837595E-01   0.104729E-01   0.000000E+00   0.661431E+02   0.827497E-18
   LPB:    2  -0.567852682723128E+00   0.485446039613535E-02   0.129835E-01   0.800506E-01   0.190893E+03   0.411151E-15
   LPB:    3  -0.567852060964980E+00   0.211408742147607E-02   0.172797E-01   0.104933E+00   0.149256E+03   0.457049E-15
   LPB:    4  -0.567851900499597E+00   0.162930906096372E-02   0.232953E-01   0.191438E+00   0.893996E+02   0.464087E-15
   LPB:    5  -0.567851813361330E+00   0.853809661236804E-03   0.249053E-01   0.507928E+00   0.194687E+03   0.458825E-15
   LPB:    6  -0.567851737667629E+00   0.372502406404130E-03   0.373183E-01   0.579724E+00   0.118734E+03   0.437392E-15
  Finished solving LPB equations
  A_corr:   -0.489895470266537     
 End minimization
 Ecorr=   1479.21961613752     
 A_corr= -0.489895470266537     
 Ecorr_band=  -1479.70951160779     
 End Solvation calculations
RMM:  31    -0.136988491728E+03   -0.96437E-06   -0.48589E-06  2358   0.835E-03
 Begin Solvation calculations
  rms_SCF =   5.271257778596126E-003 tol =   5.271257778596126E-004
 Begin minimization
 Creating dielectric and ionic cavities
  area:      148.487338800538     
  volume:    679.549231619708     
  Acav:     7.795585287028269E-002
  Solving linear dielectric/ionic screening model
        iter                  A_solv                     rms
   LPB:       -0.567838779773443E+00   0.234883762438417E-01
   LPB:    0  -0.567838306095879E+00   0.173376662439049E-01  -0.169856E-03   0.000000E+00   0.328360E+02  -0.557740E-02
   LPB:    1  -0.567836016638414E+00   0.543879887480263E-02   0.101042E-01   0.000000E+00   0.109812E+03  -0.129349E-18
   LPB:    2  -0.567835787051946E+00   0.131603105501931E-02   0.147021E-01   0.689182E-01   0.807751E+02   0.352703E-16
   LPB:    3  -0.567835704722361E+00   0.859093762378485E-03   0.228494E-01   0.230736E+00   0.219640E+03   0.350812E-16
   LPB:    4  -0.567835667816597E+00   0.689282614326399E-03   0.254280E-01   0.402811E+00   0.180954E+03   0.372675E-16
   LPB:    5  -0.567835635801085E+00   0.637876057093370E-03   0.323489E-01   0.681897E+00   0.437941E+03   0.338042E-16
   LPB:    6  -0.567835587520325E+00   0.587025115228244E-03   0.508710E-01   0.958966E+00   0.893011E+02   0.300894E-16
   LPB:    7  -0.567835514549337E+00   0.433519269717381E-03   0.549893E-01   0.139820E+01   0.139109E+03   0.309634E-16
  Finished solving LPB equations
  A_corr:   -0.489879661679054     
 End minimization
 Ecorr=   1479.14156625414     
 A_corr= -0.489879661679054     
 Ecorr_band=  -1479.63144591582     
 End Solvation calculations
   1 F= -.13698849E+03 E0= -.13698575E+03  d E =-.136988E+03
quench:  g(F)=  0.000E+00 g(S)=  0.000E+00 dE (1.order)= 0.000E+00
 bond charge predicted
       N       E                     dE             d eps       ncg     rms          rms(c)
 Begin Solvation calculations
  rms_SCF =   5.271257778596126E-003 tol =   5.271257778596126E-004
 Begin minimization
 Creating dielectric and ionic cavities
  area:      148.710886930805     
  volume:    679.547290389012     
  Acav:     7.807321563867253E-002
  Solving linear dielectric/ionic screening model
        iter                  A_solv                     rms
   LPB:       -0.579526380427482E+00   0.103689625312141E-01
   LPB:    0  -0.579526380385205E+00   0.103718193598333E-01  -0.160470E-05   0.000000E+00   0.328361E+02  -0.526920E-04
   LPB:    1  -0.570510924085568E+00   0.423721804553315E-02   0.154895E-01   0.000000E+00   0.698441E+06   0.290440E-20
   LPB:    2  -0.569690931066780E+00   0.430761402213899E-02   0.263606E-01   0.534446E-01   0.117026E+06  -0.121341E-18
   LPB:    3  -0.569448036826748E+00   0.721842579869932E-02   0.318356E-01   0.245273E+00   0.255465E+05  -0.137475E-16
   LPB:    4  -0.569349067620423E+00   0.199127744111793E-01   0.346868E-01   0.373965E+00   0.410082E+04  -0.335557E-16
   LPB:    5  -0.569306761697325E+00   0.383664174661608E-01   0.294849E-01   0.502883E+00   0.298556E+03  -0.669774E-16
   LPB:    6  -0.569284364463612E+00   0.210934185717711E-01   0.190313E-01   0.820206E+00   0.196145E+03  -0.219913E-15
   LPB:    7  -0.569265205082486E+00   0.119155503108640E-01   0.300253E-01   0.542212E+00   0.603940E+03  -0.369693E-15
   LPB:    8  -0.569254260550107E+00   0.159138313709261E-01   0.301530E-01   0.568818E+00   0.220789E+03  -0.489332E-15
   LPB:    9  -0.569247195045474E+00   0.848859838902737E-02   0.240703E-01   0.808713E+00   0.227048E+03  -0.495390E-15
   LPB:   10  -0.569241906512628E+00   0.260980834001379E-02   0.325068E-01   0.554243E+00   0.463594E+03  -0.587864E-15
   LPB:   11  -0.569238296556741E+00   0.159417096625270E-02   0.397940E-01   0.557600E+00   0.369669E+04  -0.609940E-15
   LPB:   12  -0.569235930134830E+00   0.193611754214886E-02   0.395357E-01   0.659810E+00   0.142917E+04  -0.610244E-15
   LPB:   13  -0.569234371116136E+00   0.194661577475899E-02   0.352533E-01   0.738836E+00   0.128914E+04  -0.605264E-15
   LPB:   14  -0.569233279881786E+00   0.130683129095422E-02   0.342519E-01   0.720413E+00   0.105386E+04  -0.598488E-15
   LPB:   15  -0.569232466354988E+00   0.749943278791205E-03   0.374073E-01   0.682626E+00   0.209136E+04  -0.595634E-15
   LPB:   16  -0.569231909148096E+00   0.652197924282330E-03   0.395694E-01   0.647502E+00   0.181276E+04  -0.590334E-15
   LPB:   17  -0.569231518193747E+00   0.776890047208845E-03   0.394852E-01   0.703128E+00   0.225541E+04  -0.582998E-15
   LPB:   18  -0.569231224640748E+00   0.756783088656280E-03   0.379762E-01   0.780700E+00   0.118690E+04  -0.576244E-15
   LPB:   19  -0.569231001357879E+00   0.519699280211838E-03   0.367647E-01   0.785685E+00   0.174714E+04  -0.572372E-15
  Finished solving LPB equations
  A_corr:   -0.491157785719206     
 End minimization
 Ecorr=   1478.88425508605     
 A_corr= -0.491157785719206     
 Ecorr_band=  -1479.37541287177     
 End Solvation calculations
DAV:   1    -0.136991523105E+03   -0.30323E-02   -0.78047E-01  4242   0.184E+00    0.360E-01
 Begin Solvation calculations
  rms_SCF =   5.271257778596126E-003 tol =   5.271257778596126E-004
 Begin minimization
 Creating dielectric and ionic cavities
  area:      148.591880226827     
  volume:    679.372321956425     
  Acav:     7.801073711908436E-002
  Solving linear dielectric/ionic screening model
        iter                  A_solv                     rms
   LPB:       -0.576518709016646E+00   0.798590956890723E+00
   LPB:    0  -0.576310768735418E+00   0.749051441360608E+00  -0.355839E-02   0.000000E+00   0.328443E+02  -0.116873E+00
   LPB:    1  -0.574152023070187E+00   0.999447185117467E-01   0.992941E-02   0.000000E+00   0.764383E+02  -0.114583E-17
   LPB:    2  -0.573872162178478E+00   0.208172835688677E-01   0.146654E-01   0.877749E-01   0.292588E+03   0.496170E-15
   LPB:    3  -0.573812495468265E+00   0.207143816993286E-01   0.255113E-01   0.122561E+00   0.495836E+03   0.517942E-15
   LPB:    4  -0.573794275139617E+00   0.167926461646770E-01   0.225618E-01   0.345289E+00   0.149586E+03   0.477244E-15
   LPB:    5  -0.573784398566690E+00   0.777544848550940E-02   0.241330E-01   0.506773E+00   0.278219E+03   0.461865E-15
   LPB:    6  -0.573778915627974E+00   0.376212044539779E-02   0.306824E-01   0.436644E+00   0.302122E+03   0.557700E-15
   LPB:    7  -0.573775892273181E+00   0.225698117737562E-02   0.323254E-01   0.523386E+00   0.626114E+03   0.565475E-15
   LPB:    8  -0.573774092642975E+00   0.128790119981278E-02   0.341982E-01   0.562645E+00   0.634561E+03   0.547180E-15
   LPB:    9  -0.573772995334891E+00   0.813399098836652E-03   0.362551E-01   0.575147E+00   0.736991E+03   0.537123E-15
   LPB:   10  -0.573772313365583E+00   0.675713201377290E-03   0.374851E-01   0.601101E+00   0.878576E+03   0.531572E-15
   LPB:   11  -0.573771883890951E+00   0.629054062731789E-03   0.372390E-01   0.633919E+00   0.806210E+03   0.527531E-15
   LPB:   12  -0.573771607750623E+00   0.607406790817440E-03   0.364999E-01   0.655991E+00   0.822604E+03   0.525139E-15
   LPB:   13  -0.573771424489842E+00   0.552950156775864E-03   0.358021E-01   0.676587E+00   0.871329E+03   0.524014E-15
   LPB:   14  -0.573771294903766E+00   0.452695304717424E-03   0.363265E-01   0.696904E+00   0.758863E+03   0.523739E-15
  Finished solving LPB equations
  A_corr:   -0.495760557784682     
 End minimization
 Ecorr=   1478.70102944174     
 A_corr= -0.495760557784682     
 Ecorr_band=  -1479.19678999952     
 End Solvation calculations
RMM:   2    -0.137002652900E+03   -0.11130E-01   -0.79700E-02  5972   0.578E-01    0.796E-01
 Begin Solvation calculations
  rms_SCF =   5.271257778596126E-003 tol =   5.271257778596126E-004
 Begin minimization
 Creating dielectric and ionic cavities
  area:      148.572214876492     
  volume:    679.398996454431     
  Acav:     7.800041281015803E-002
  Solving linear dielectric/ionic screening model
        iter                  A_solv                     rms
   LPB:       -0.573951291981577E+00   0.485933078232912E+00
   LPB:    0  -0.573950568789840E+00   0.485540429719913E+00   0.209855E-03   0.000000E+00   0.328431E+02   0.689229E-02
   LPB:    1  -0.573260181492917E+00   0.472484025093420E-01   0.891440E-02   0.000000E+00   0.736679E+02  -0.412771E-18
   LPB:    2  -0.573195213458757E+00   0.101216135791361E-01   0.167663E-01   0.500337E-01   0.137208E+03  -0.603405E-17
   LPB:    3  -0.573185797755623E+00   0.707412856174985E-02   0.235696E-01   0.103095E+00   0.198038E+03  -0.383991E-17
   LPB:    4  -0.573182475504292E+00   0.589406303185451E-02   0.269926E-01   0.308097E+00   0.210111E+03  -0.219434E-16
   LPB:    5  -0.573180921305736E+00   0.418655687251661E-02   0.244823E-01   0.515781E+00   0.204463E+03  -0.327660E-16
   LPB:    6  -0.573179915575985E+00   0.232294368198605E-02   0.281612E-01   0.562570E+00   0.274845E+03  -0.515482E-16
   LPB:    7  -0.573179269435464E+00   0.128759950713498E-02   0.316335E-01   0.571938E+00   0.440352E+03  -0.739187E-16
   LPB:    8  -0.573178840955117E+00   0.616881287688496E-03   0.351550E-01   0.596711E+00   0.646154E+03  -0.102364E-15
   LPB:    9  -0.573178578788021E+00   0.359700064610160E-03   0.373494E-01   0.575905E+00   0.123026E+04  -0.118423E-15
  Finished solving LPB equations
  A_corr:   -0.495178165977863     
 End minimization
 Ecorr=   1478.64098778612     
 A_corr= -0.495178165977863     
 Ecorr_band=  -1479.13616595209     
 End Solvation calculations
RMM:   3    -0.136997003338E+03    0.56496E-02   -0.50318E-03  4746   0.153E-01    0.258E-01
 Begin Solvation calculations
  rms_SCF =   5.271257778596126E-003 tol =   5.271257778596126E-004
 Begin minimization
 Creating dielectric and ionic cavities
  area:      148.559917407225     
  volume:    679.412235565473     
  Acav:     7.799395663879324E-002
  Solving linear dielectric/ionic screening model
        iter                  A_solv                     rms
   LPB:       -0.575314114029432E+00   0.255995268748708E+00
   LPB:    0  -0.575294787922061E+00   0.240579083458727E+00  -0.108485E-02   0.000000E+00   0.328425E+02  -0.356291E-01
   LPB:    1  -0.575054677030695E+00   0.373045379194332E-01   0.100815E-01   0.000000E+00   0.796659E+02  -0.685680E-20
   LPB:    2  -0.575024419720525E+00   0.612568763096667E-02   0.140660E-01   0.903182E-01   0.263115E+03  -0.220003E-15
   LPB:    3  -0.575018583836180E+00   0.513545352537585E-02   0.250031E-01   0.108506E+00   0.564051E+03  -0.181374E-15
   LPB:    4  -0.575016948730159E+00   0.463951998150247E-02   0.239747E-01   0.292200E+00   0.152163E+03  -0.174433E-15
   LPB:    5  -0.575016141291019E+00   0.296145328783543E-02   0.234923E-01   0.503954E+00   0.298287E+03  -0.152053E-15
   LPB:    6  -0.575015686702499E+00   0.124119543228367E-02   0.282375E-01   0.468391E+00   0.160676E+03  -0.160533E-15
   LPB:    7  -0.575015425487575E+00   0.699802094282348E-03   0.317474E-01   0.511089E+00   0.684777E+03  -0.192609E-15
   LPB:    8  -0.575015261768753E+00   0.382755356533301E-03   0.352401E-01   0.564641E+00   0.382873E+03  -0.211942E-15
  Finished solving LPB equations
  A_corr:   -0.497021305129960     
 End minimization
 Ecorr=   1478.41767002385     
 A_corr= -0.497021305129960     
 Ecorr_band=  -1478.91469132898     
 End Solvation calculations
RMM:   4    -0.136996847651E+03    0.15569E-03   -0.22765E-03  5359   0.898E-02    0.265E-01
 Begin Solvation calculations
  rms_SCF =   5.271257778596126E-003 tol =   5.271257778596126E-004
 Begin minimization
 Creating dielectric and ionic cavities
  area:      148.535919550306     
  volume:    679.370125730058     
  Acav:     7.798135776391084E-002
  Solving linear dielectric/ionic screening model
        iter                  A_solv                     rms
   LPB:       -0.579059715346333E+00   0.255626479593646E+00
   LPB:    0  -0.578954277863606E+00   0.162351110883511E+00  -0.253385E-02   0.000000E+00   0.328444E+02  -0.832230E-01
   LPB:    1  -0.578539049623778E+00   0.709539147973665E-01   0.147228E-01   0.000000E+00   0.116950E+03   0.353849E-17
   LPB:    2  -0.578492617459429E+00   0.213172713662720E-01   0.137412E-01   0.119812E+00   0.136754E+03   0.201886E-15
   LPB:    3  -0.578475924509648E+00   0.101455527230681E-01   0.201507E-01   0.245159E+00   0.352909E+03   0.203854E-15
   LPB:    4  -0.578470420410523E+00   0.102597860239787E-01   0.225994E-01   0.294000E+00   0.152563E+03   0.228768E-15
   LPB:    5  -0.578467627415625E+00   0.577132932009097E-02   0.221809E-01   0.517012E+00   0.237957E+03   0.238265E-15
   LPB:    6  -0.578465926794960E+00   0.198167356122309E-02   0.312087E-01   0.432755E+00   0.152869E+03   0.244605E-15
   LPB:    7  -0.578464990730976E+00   0.127195944977180E-02   0.334687E-01   0.513256E+00   0.569750E+03   0.207588E-15
   LPB:    8  -0.578464436162005E+00   0.756891086708766E-03   0.340546E-01   0.582255E+00   0.291556E+03   0.187120E-15
   LPB:    9  -0.578464092708715E+00   0.608111650506702E-03   0.356233E-01   0.592044E+00   0.399786E+03   0.179202E-15
   LPB:   10  -0.578463875596394E+00   0.498992143522491E-03   0.365850E-01   0.615529E+00   0.341206E+03   0.174704E-15
  Finished solving LPB equations
  A_corr:   -0.500482517832483     
 End minimization
 Ecorr=   1477.99367588552     
 A_corr= -0.500482517832483     
 Ecorr_band=  -1478.49415840335     
 End Solvation calculations
RMM:   5    -0.136996387359E+03    0.46029E-03   -0.80543E-04  4190   0.971E-02    0.133E-01
 Begin Solvation calculations
  rms_SCF =   5.271257778596126E-003 tol =   5.271257778596126E-004
 Begin minimization
 Creating dielectric and ionic cavities
  area:      148.527243421986     
  volume:    679.400617319531     
  Acav:     7.797680279654282E-002
  Solving linear dielectric/ionic screening model
        iter                  A_solv                     rms
   LPB:       -0.581103419532662E+00   0.157319020380739E+00
   LPB:    0  -0.581064719445183E+00   0.928833897364950E-01  -0.153515E-02   0.000000E+00   0.328430E+02  -0.504188E-01
   LPB:    1  -0.580854437836818E+00   0.233581772821309E-01   0.166190E-01   0.000000E+00   0.124628E+03  -0.581797E-18
   LPB:    2  -0.580834780494587E+00   0.189803709021369E-01   0.172093E-01   0.902746E-01   0.275411E+03   0.666668E-15
   LPB:    3  -0.580828665062989E+00   0.110394005535890E-01   0.182209E-01   0.293830E+00   0.920768E+02   0.723248E-15
   LPB:    4  -0.580826138084162E+00   0.745151497488963E-02   0.230609E-01   0.326488E+00   0.153637E+03   0.717946E-15
   LPB:    5  -0.580825055908238E+00   0.409206441344031E-02   0.197984E-01   0.498818E+00   0.242271E+03   0.718201E-15
   LPB:    6  -0.580824307452980E+00   0.147897427664269E-02   0.274468E-01   0.498892E+00   0.131854E+03   0.725281E-15
   LPB:    7  -0.580823820559720E+00   0.105688583719458E-02   0.349414E-01   0.511000E+00   0.345264E+03   0.723979E-15
   LPB:    8  -0.580823490610233E+00   0.677148328850570E-03   0.356905E-01   0.663438E+00   0.181502E+03   0.713655E-15
   LPB:    9  -0.580823262392802E+00   0.516417259616143E-03   0.369222E-01   0.668601E+00   0.228486E+03   0.711272E-15
  Finished solving LPB equations
  A_corr:   -0.502846459596259     
 End minimization
 Ecorr=   1477.44121801714     
 A_corr= -0.502846459596259     
 Ecorr_band=  -1477.94406447673     
 End Solvation calculations
RMM:   6    -0.136996225596E+03    0.16176E-03   -0.68959E-04  4186   0.113E-01    0.711E-02
 Begin Solvation calculations
  rms_SCF =   5.271257778596126E-003 tol =   5.271257778596126E-004
 Begin minimization
 Creating dielectric and ionic cavities
  area:      148.549755912206     
  volume:    679.441525575279     
  Acav:     7.798862185390833E-002
  Solving linear dielectric/ionic screening model
        iter                  A_solv                     rms
   LPB:       -0.583323842498374E+00   0.169783730430532E+00
   LPB:    0  -0.583291944785829E+00   0.123323162572922E+00  -0.139375E-02   0.000000E+00   0.328411E+02  -0.457724E-01
   LPB:    1  -0.583131862701302E+00   0.538130881708611E-01   0.131310E-01   0.000000E+00   0.100532E+03   0.310658E-17
   LPB:    2  -0.583110950210933E+00   0.899247405547102E-02   0.126702E-01   0.135388E+00   0.116276E+03   0.997172E-15
   LPB:    3  -0.583105429319148E+00   0.556963149076945E-02   0.213282E-01   0.156831E+00   0.297392E+03   0.113876E-14
   LPB:    4  -0.583103770174476E+00   0.467809658382783E-02   0.240779E-01   0.266201E+00   0.106127E+03   0.117734E-14
   LPB:    5  -0.583102993885687E+00   0.337485664921206E-02   0.227944E-01   0.494231E+00   0.309874E+03   0.121954E-14
   LPB:    6  -0.583102456460410E+00   0.124862670605367E-02   0.319608E-01   0.493749E+00   0.870162E+02   0.121256E-14
   LPB:    7  -0.583102058516668E+00   0.864824000325199E-03   0.362752E-01   0.652395E+00   0.175952E+03   0.118763E-14
   LPB:    8  -0.583101758523630E+00   0.547299403247387E-03   0.376244E-01   0.726825E+00   0.120627E+03   0.117156E-14
   LPB:    9  -0.583101549959125E+00   0.463943525263727E-03   0.379545E-01   0.689185E+00   0.151384E+03   0.116149E-14
  Finished solving LPB equations
  A_corr:   -0.505112928105216     
 End minimization
 Ecorr=   1476.87659830019     
 A_corr= -0.505112928105216     
 Ecorr_band=  -1477.38171122830     
 End Solvation calculations
RMM:   7    -0.136996179150E+03    0.46446E-04   -0.20840E-04  4089   0.649E-02    0.269E-02
 Begin Solvation calculations
  rms_SCF =   5.271257778596126E-003 tol =   5.271257778596126E-004
 Begin minimization
 Creating dielectric and ionic cavities
  area:      148.564224160837     
  volume:    679.457892640884     
  Acav:     7.799621768443928E-002
  Solving linear dielectric/ionic screening model
        iter                  A_solv                     rms
   LPB:       -0.583844130280834E+00   0.499823488295478E-01
   LPB:    0  -0.583840768796710E+00   0.311827611301172E-01  -0.452456E-03   0.000000E+00   0.328403E+02  -0.148588E-01
   LPB:    1  -0.583827726202252E+00   0.140180246277494E-01   0.143203E-01   0.000000E+00   0.902478E+02  -0.846117E-18
   LPB:    2  -0.583826241139431E+00   0.354805959056844E-02   0.134619E-01   0.121123E+00   0.938353E+02   0.850075E-16
   LPB:    3  -0.583825808151861E+00   0.197207384770416E-02   0.190604E-01   0.205923E+00   0.272829E+03   0.933834E-16
   LPB:    4  -0.583825631807369E+00   0.163488961014730E-02   0.247420E-01   0.313750E+00   0.827311E+02   0.972410E-16
   LPB:    5  -0.583825526640240E+00   0.136418493241630E-02   0.256876E-01   0.574420E+00   0.267757E+03   0.110522E-15
   LPB:    6  -0.583825404926083E+00   0.641031212140673E-03   0.410005E-01   0.725095E+00   0.611277E+02   0.123235E-15
   LPB:    7  -0.583825269762845E+00   0.478757008437162E-03   0.431540E-01   0.105508E+01   0.803534E+02   0.142365E-15
  Finished solving LPB equations
  A_corr:   -0.505829052078406     
 End minimization
 Ecorr=   1476.64818866052     
 A_corr= -0.505829052078406     
 Ecorr_band=  -1477.15401771260     
 End Solvation calculations
RMM:   8    -0.136996188583E+03   -0.94326E-05   -0.36552E-05  2742   0.243E-02
 Begin Solvation calculations
  rms_SCF =   5.271257778596126E-003 tol =   5.271257778596126E-004
 Begin minimization
 Creating dielectric and ionic cavities
  area:      148.602801055231     
  volume:    679.512332620798     
  Acav:     7.801647055399624E-002
  Solving linear dielectric/ionic screening model
        iter                  A_solv                     rms
   LPB:       -0.586201699777630E+00   0.160016451981970E+00
   LPB:    0  -0.586173632256056E+00   0.110385434431079E+00  -0.130747E-02   0.000000E+00   0.328378E+02  -0.429342E-01
   LPB:    1  -0.586041847745043E+00   0.509026633452278E-01   0.131360E-01   0.000000E+00   0.930245E+02  -0.335641E-17
   LPB:    2  -0.586024699541970E+00   0.867320309851082E-02   0.128117E-01   0.133417E+00   0.910880E+02   0.242620E-16
   LPB:    3  -0.586020605312788E+00   0.554701659999934E-02   0.198236E-01   0.154304E+00   0.279940E+03   0.481089E-16
   LPB:    4  -0.586019277108981E+00   0.411672004447968E-02   0.241762E-01   0.266004E+00   0.811155E+02   0.513910E-16
   LPB:    5  -0.586018548939410E+00   0.329145472057852E-02   0.250449E-01   0.529220E+00   0.293963E+03   0.645673E-17
   LPB:    6  -0.586017986847683E+00   0.121822124195248E-02   0.323204E-01   0.598159E+00   0.731208E+02   0.218822E-16
   LPB:    7  -0.586017577385802E+00   0.846766161767184E-03   0.358903E-01   0.656002E+00   0.137567E+03  -0.205834E-17
   LPB:    8  -0.586017284631334E+00   0.585171949531308E-03   0.376386E-01   0.681765E+00   0.125549E+03  -0.168819E-16
   LPB:    9  -0.586017081755444E+00   0.517353228764005E-03   0.382339E-01   0.682199E+00   0.167031E+03  -0.337174E-16
  Finished solving LPB equations
  A_corr:   -0.508000611201448     
 End minimization
 Ecorr=   1475.94147336935     
 A_corr= -0.508000611201448     
 Ecorr_band=  -1476.44947398055     
 End Solvation calculations
   2 F= -.13699619E+03 E0= -.13699349E+03  d E =-.769685E-02
quench:  g(F)=  0.000E+00 g(S)=  0.000E+00 dE (1.order)= 0.000E+00
 bond charge predicted
       N       E                     dE             d eps       ncg     rms          rms(c)
 Begin Solvation calculations
  rms_SCF =   5.271257778596126E-003 tol =   5.271257778596126E-004
 Begin minimization
 Creating dielectric and ionic cavities
  area:      148.815303393330     
  volume:    679.403804989504     
  Acav:     7.812803428149816E-002
  Solving linear dielectric/ionic screening model
        iter                  A_solv                     rms
   LPB:       -0.594589808976976E+00   0.974406475055307E-02
   LPB:    0  -0.594589806539745E+00   0.100302979354750E-01  -0.121827E-04   0.000000E+00   0.328429E+02  -0.400114E-03
   LPB:    1  -0.588969540813687E+00   0.386087440152919E-02   0.153556E-01   0.000000E+00   0.378409E+06  -0.126826E-19
   LPB:    2  -0.588557215275711E+00   0.488236508709406E-02   0.257316E-01   0.437808E-01   0.793748E+05   0.101029E-16
   LPB:    3  -0.588436132486351E+00   0.108757333640427E-01   0.320378E-01   0.235856E+00   0.127867E+05   0.203226E-16
   LPB:    4  -0.588385526977681E+00   0.274095203337356E-01   0.336636E-01   0.397756E+00   0.905445E+03   0.224542E-16
   LPB:    5  -0.588364729845735E+00   0.306249386214400E-01   0.219083E-01   0.631478E+00   0.181538E+03  -0.793085E-17
   LPB:    6  -0.588347288885118E+00   0.965245892355209E-02   0.231487E-01   0.793687E+00   0.341148E+03  -0.277474E-16
   LPB:    7  -0.588334685139050E+00   0.812570308654698E-02   0.359244E-01   0.465657E+00   0.476075E+03  -0.328202E-16
   LPB:    8  -0.588327665638271E+00   0.127569168090034E-01   0.311346E-01   0.642619E+00   0.369115E+03  -0.452525E-16
   LPB:    9  -0.588323161575027E+00   0.656605099035344E-02   0.245386E-01   0.814125E+00   0.125515E+03  -0.426406E-16
   LPB:   10  -0.588319632163075E+00   0.222833860552804E-02   0.329765E-01   0.583100E+00   0.113897E+04  -0.114701E-15
   LPB:   11  -0.588317285335985E+00   0.113572600796270E-02   0.391443E-01   0.560164E+00   0.652110E+03  -0.181944E-15
   LPB:   12  -0.588315785293545E+00   0.149855589387448E-02   0.390723E-01   0.640357E+00   0.777494E+03  -0.218977E-15
   LPB:   13  -0.588314818803612E+00   0.149917214054672E-02   0.350498E-01   0.718253E+00   0.699334E+03  -0.242931E-15
   LPB:   14  -0.588314193339435E+00   0.100958946950839E-02   0.332095E-01   0.683010E+00   0.637623E+03  -0.258937E-15
   LPB:   15  -0.588313742031118E+00   0.579317017304880E-03   0.368426E-01   0.650404E+00   0.783299E+03  -0.268564E-15
   LPB:   16  -0.588313442817470E+00   0.529229575459006E-03   0.381001E-01   0.641109E+00   0.119889E+04  -0.275370E-15
   LPB:   17  -0.588313258049252E+00   0.579378982599943E-03   0.374209E-01   0.628721E+00   0.607994E+03  -0.280037E-15
   LPB:   18  -0.588313124881186E+00   0.526516632190348E-03   0.367678E-01   0.733532E+00   0.103805E+04  -0.285228E-15
  Finished solving LPB equations
  A_corr:   -0.510185090599688     
 End minimization
 Ecorr=   1475.51626876328     
 A_corr= -0.510185090599688     
 Ecorr_band=  -1476.02645385388     
 End Solvation calculations
DAV:   1    -0.136996848100E+03   -0.66895E-03   -0.45801E-01  4251   0.166E+00    0.266E-01
 Begin Solvation calculations
  rms_SCF =   5.271257778596126E-003 tol =   5.271257778596126E-004
 Begin minimization
 Creating dielectric and ionic cavities
  area:      148.687662874288     
  volume:    679.379837305488     
  Acav:     7.806102300900102E-002
  Solving linear dielectric/ionic screening model
        iter                  A_solv                     rms
   LPB:       -0.591346231227313E+00   0.364775076147274E+00
   LPB:    0  -0.591309730098851E+00   0.343665248801046E+00  -0.149087E-02   0.000000E+00   0.328440E+02  -0.489662E-01
   LPB:    1  -0.590912725768322E+00   0.352588267481972E-01   0.920857E-02   0.000000E+00   0.771308E+02  -0.259568E-17
   LPB:    2  -0.590867752698644E+00   0.119017435932431E-01   0.166999E-01   0.624648E-01   0.190561E+03  -0.114476E-15
   LPB:    3  -0.590857907809178E+00   0.101711232023935E-01   0.234654E-01   0.155792E+00   0.304154E+03  -0.310033E-15
   LPB:    4  -0.590854676820625E+00   0.661820148450699E-02   0.224143E-01   0.343579E+00   0.124026E+03  -0.307726E-15
   LPB:    5  -0.590852888010971E+00   0.270893418972356E-02   0.251418E-01   0.493579E+00   0.375860E+03  -0.332397E-15
   LPB:    6  -0.590851893319276E+00   0.130120261368300E-02   0.310405E-01   0.450393E+00   0.378558E+03  -0.347260E-15
   LPB:    7  -0.590851319203278E+00   0.911998205330834E-03   0.326477E-01   0.548766E+00   0.672961E+03  -0.371010E-15
   LPB:    8  -0.590850960947607E+00   0.531969204503063E-03   0.359719E-01   0.566348E+00   0.459330E+03  -0.387490E-15
   LPB:    9  -0.590850739216952E+00   0.422311617021373E-03   0.375443E-01   0.592996E+00   0.582491E+03  -0.394407E-15
  Finished solving LPB equations
  A_corr:   -0.512789716207951     
 End minimization
 Ecorr=   1475.30872995146     
 A_corr= -0.512789716207951     
 Ecorr_band=  -1475.82151966767     
 End Solvation calculations
RMM:   2    -0.137003098360E+03   -0.62503E-02   -0.38733E-02  5247   0.486E-01    0.622E-01
 Begin Solvation calculations
  rms_SCF =   5.271257778596126E-003 tol =   5.271257778596126E-004
 Begin minimization
 Creating dielectric and ionic cavities
  area:      148.664229572585     
  volume:    679.399077112787     
  Acav:     7.804872052560712E-002
  Solving linear dielectric/ionic screening model
        iter                  A_solv                     rms
   LPB:       -0.590659349316443E+00   0.325977392904947E+00
   LPB:    0  -0.590658392812108E+00   0.325336075074172E+00   0.241344E-03   0.000000E+00   0.328431E+02   0.792648E-02
   LPB:    1  -0.590347921050690E+00   0.316150414839477E-01   0.895584E-02   0.000000E+00   0.730853E+02   0.476216E-19
   LPB:    2  -0.590319172174151E+00   0.673692159805102E-02   0.163126E-01   0.508373E-01   0.143267E+03  -0.179510E-16
   LPB:    3  -0.590314997463617E+00   0.457508597959752E-02   0.235810E-01   0.100454E+00   0.197273E+03  -0.324238E-16
   LPB:    4  -0.590313606180784E+00   0.390106198516935E-02   0.263575E-01   0.298158E+00   0.212864E+03  -0.643154E-16
   LPB:    5  -0.590312961862595E+00   0.254311339424362E-02   0.238250E-01   0.512337E+00   0.202458E+03  -0.996014E-16
   LPB:    6  -0.590312593720174E+00   0.138657004030274E-02   0.268327E-01   0.507322E+00   0.289376E+03  -0.139567E-15
   LPB:    7  -0.590312392916573E+00   0.671305228651331E-03   0.295956E-01   0.494531E+00   0.374311E+03  -0.148205E-15
   LPB:    8  -0.590312270975014E+00   0.338322546761643E-03   0.346086E-01   0.519306E+00   0.772758E+03  -0.148318E-15
  Finished solving LPB equations
  A_corr:   -0.512263550449407     
 End minimization
 Ecorr=   1475.25325608994     
 A_corr= -0.512263550449407     
 Ecorr_band=  -1475.76551964039     
 End Solvation calculations
RMM:   3    -0.136999725121E+03    0.33732E-02   -0.29873E-03  5130   0.118E-01    0.148E-01
 Begin Solvation calculations
  rms_SCF =   5.271257778596126E-003 tol =   5.271257778596126E-004
 Begin minimization
 Creating dielectric and ionic cavities
  area:      148.666585394908     
  volume:    679.437484979109     
  Acav:     7.804995733232661E-002
  Solving linear dielectric/ionic screening model
        iter                  A_solv                     rms
   LPB:       -0.591219455530086E+00   0.162341594249280E+00
   LPB:    0  -0.591218023656633E+00   0.159760092318008E+00  -0.295296E-03   0.000000E+00   0.328413E+02  -0.969789E-02
   LPB:    1  -0.591133842499427E+00   0.145021815751824E-01   0.889793E-02   0.000000E+00   0.820810E+02  -0.137403E-18
   LPB:    2  -0.591126355268844E+00   0.382520229975508E-02   0.167431E-01   0.472672E-01   0.171853E+03  -0.717842E-16
   LPB:    3  -0.591124887426050E+00   0.301379366918483E-02   0.238503E-01   0.137626E+00   0.452935E+03  -0.654712E-16
   LPB:    4  -0.591124364208474E+00   0.237956024421877E-02   0.277749E-01   0.306087E+00   0.121461E+03  -0.606510E-16
   LPB:    5  -0.591124111888534E+00   0.169180102624418E-02   0.238659E-01   0.561233E+00   0.404691E+03  -0.459974E-16
   LPB:    6  -0.591123953573396E+00   0.802106405282363E-03   0.282822E-01   0.529464E+00   0.149059E+03  -0.385105E-16
   LPB:    7  -0.591123846693478E+00   0.549458127969074E-03   0.334169E-01   0.571373E+00   0.497068E+03  -0.202832E-16
   LPB:    8  -0.591123767284330E+00   0.282727715967756E-03   0.385586E-01   0.643903E+00   0.160904E+03  -0.108834E-16
  Finished solving LPB equations
  A_corr:   -0.513073809952003     
 End minimization
 Ecorr=   1475.01077617289     
 A_corr= -0.513073809952003     
 Ecorr_band=  -1475.52384998284     
 End Solvation calculations
RMM:   4    -0.136999905305E+03   -0.18018E-03   -0.53708E-04  4260   0.697E-02    0.186E-01
 Begin Solvation calculations
  rms_SCF =   5.271257778596126E-003 tol =   5.271257778596126E-004
 Begin minimization
 Creating dielectric and ionic cavities
  area:      148.678164358969     
  volume:    679.439639053498     
  Acav:     7.805603628845872E-002
  Solving linear dielectric/ionic screening model
        iter                  A_solv                     rms
   LPB:       -0.592177326734579E+00   0.105221007261942E+00
   LPB:    0  -0.592171520832745E+00   0.937199922806675E-01  -0.594621E-03   0.000000E+00   0.328412E+02  -0.195281E-01
   LPB:    1  -0.592129721246526E+00   0.216995742809446E-01   0.114767E-01   0.000000E+00   0.681878E+02  -0.153338E-17
   LPB:    2  -0.592119263408635E+00   0.471013070981203E-02   0.161907E-01   0.177346E+00   0.221135E+03   0.133420E-15
   LPB:    3  -0.592117025735230E+00   0.375213488172757E-02   0.223539E-01   0.154977E+00   0.427019E+03   0.167198E-15
   LPB:    4  -0.592116226827476E+00   0.347378326940929E-02   0.250085E-01   0.319128E+00   0.149496E+03   0.162549E-15
   LPB:    5  -0.592115830818848E+00   0.220547979465981E-02   0.246172E-01   0.503568E+00   0.197227E+03   0.124056E-15
   LPB:    6  -0.592115560730368E+00   0.832005395062991E-03   0.298032E-01   0.563347E+00   0.188191E+03   0.103209E-15
   LPB:    7  -0.592115376675977E+00   0.532927181152861E-03   0.344549E-01   0.589457E+00   0.346262E+03   0.888349E-16
   LPB:    8  -0.592115250227378E+00   0.353911773857764E-03   0.368563E-01   0.642254E+00   0.277312E+03   0.762096E-16
  Finished solving LPB equations
  A_corr:   -0.514059213938919     
 End minimization
 Ecorr=   1474.86862383930     
 A_corr= -0.514059213938919     
 Ecorr_band=  -1475.38268305323     
 End Solvation calculations
RMM:   5    -0.136999751252E+03    0.15405E-03   -0.44015E-04  4165   0.856E-02    0.105E-01
 Begin Solvation calculations
  rms_SCF =   5.271257778596126E-003 tol =   5.271257778596126E-004
 Begin minimization
 Creating dielectric and ionic cavities
  area:      148.683330239449     
  volume:    679.468225030392     
  Acav:     7.805874837571058E-002
  Solving linear dielectric/ionic screening model
        iter                  A_solv                     rms
   LPB:       -0.592995468179095E+00   0.728897150991713E-01
   LPB:    0  -0.592993580298113E+00   0.657702887713882E-01  -0.339080E-03   0.000000E+00   0.328398E+02  -0.111353E-01
   LPB:    1  -0.592964636001433E+00   0.198012343558322E-01   0.137379E-01   0.000000E+00   0.647697E+02   0.883689E-18
   LPB:    2  -0.592959174655478E+00   0.498491934268015E-02   0.135664E-01   0.191071E+00   0.222933E+03   0.133986E-15
   LPB:    3  -0.592957772106600E+00   0.240383447682104E-02   0.210604E-01   0.165430E+00   0.299390E+03   0.157971E-15
   LPB:    4  -0.592957244059510E+00   0.202298417360651E-02   0.278365E-01   0.284844E+00   0.146965E+03   0.164267E-15
   LPB:    5  -0.592956957362287E+00   0.243262538577031E-02   0.305246E-01   0.495126E+00   0.213787E+03   0.162706E-15
   LPB:    6  -0.592956736736449E+00   0.141968174413621E-02   0.288140E-01   0.815227E+00   0.778368E+02   0.140924E-15
   LPB:    7  -0.592956544378135E+00   0.720120847141569E-03   0.332648E-01   0.755220E+00   0.217977E+03   0.135504E-15
   LPB:    8  -0.592956403181519E+00   0.406273857359568E-03   0.362096E-01   0.674333E+00   0.148785E+03   0.133729E-15
  Finished solving LPB equations
  A_corr:   -0.514897654805808     
 End minimization
 Ecorr=   1474.57287975385     
 A_corr= -0.514897654805808     
 Ecorr_band=  -1475.08777740866     
 End Solvation calculations
RMM:   6    -0.136999705966E+03    0.45286E-04   -0.29150E-04  4118   0.805E-02    0.426E-02
 Begin Solvation calculations
  rms_SCF =   5.271257778596126E-003 tol =   5.271257778596126E-004
 Begin minimization
 Creating dielectric and ionic cavities
  area:      148.686213563843     
  volume:    679.478925238879     
  Acav:     7.806026212101737E-002
  Solving linear dielectric/ionic screening model
        iter                  A_solv                     rms
   LPB:       -0.593452199371806E+00   0.369915449087513E-01
   LPB:    0  -0.593451367289860E+00   0.302905783125017E-01  -0.225113E-03   0.000000E+00   0.328393E+02  -0.739257E-02
   LPB:    1  -0.593445260077994E+00   0.105754784983776E-01   0.105746E-01   0.000000E+00   0.989981E+02  -0.860946E-19
   LPB:    2  -0.593444113677027E+00   0.207552486774617E-02   0.160307E-01   0.123824E+00   0.816831E+02   0.206222E-16
   LPB:    3  -0.593443862722389E+00   0.149654802259021E-02   0.211144E-01   0.166201E+00   0.350897E+03   0.419507E-16
   LPB:    4  -0.593443757239528E+00   0.112414769386905E-02   0.273358E-01   0.324664E+00   0.908850E+02   0.301942E-16
   LPB:    5  -0.593443674264445E+00   0.110112349936311E-02   0.312591E-01   0.687895E+00   0.262439E+03   0.314717E-16
   LPB:    6  -0.593443561834755E+00   0.563285774966751E-03   0.417382E-01   0.101479E+01   0.663128E+02   0.326053E-16
   LPB:    7  -0.593443461767452E+00   0.366429880460855E-03   0.393352E-01   0.944416E+00   0.115841E+03   0.385253E-16
  Finished solving LPB equations
  A_corr:   -0.515383199646435     
 End minimization
 Ecorr=   1474.38630374849     
 A_corr= -0.515383199646435     
 Ecorr_band=  -1474.90168694813     
 End Solvation calculations
RMM:   7    -0.136999703432E+03    0.25348E-05   -0.80051E-05  3612   0.406E-02
 Begin Solvation calculations
  rms_SCF =   5.271257778596126E-003 tol =   5.271257778596126E-004
 Begin minimization
 Creating dielectric and ionic cavities
  area:      148.686398134621     
  volume:    679.480502493757     
  Acav:     7.806035902067611E-002
  Solving linear dielectric/ionic screening model
        iter                  A_solv                     rms
   LPB:       -0.593806453579177E+00   0.386049000588696E-01
   LPB:    0  -0.593805791221559E+00   0.338703189480459E-01  -0.200847E-03   0.000000E+00   0.328393E+02  -0.659566E-02
   LPB:    1  -0.593800309177914E+00   0.782440282480996E-02   0.122826E-01   0.000000E+00   0.568638E+02  -0.245276E-18
[...]
  Finished solving LPB equations
  A_corr:   -0.590656741139888     
 End minimization
 Ecorr=   1462.96157990819     
 A_corr= -0.590656741139888     
 Ecorr_band=  -1463.55223664933     
 End Solvation calculations
RMM:   4    -0.137019142166E+03    0.92541E-06   -0.95685E-06  2287   0.133E-02
 Begin Solvation calculations
  rms_SCF =   1.324656322252749E-003 tol =   1.324656322252749E-004
 Begin minimization
 Creating dielectric and ionic cavities
  area:      149.397177227237     
  volume:    677.497207212003     
  Acav:     7.843351804429921E-002
  Solving linear dielectric/ionic screening model
        iter                  A_solv                     rms
   LPB:       -0.669062579722495E+00   0.130355942495366E-01
   LPB:    0  -0.669062557413966E+00   0.126746178133733E-01   0.368078E-04   0.000000E+00   0.329322E+02   0.121216E-02
   LPB:    1  -0.669061716834649E+00   0.285533896105258E-02   0.108119E-01   0.000000E+00   0.885787E+02   0.560213E-19
   LPB:    2  -0.669061564931604E+00   0.539759282048211E-03   0.150242E-01   0.130046E+00   0.325125E+03  -0.932495E-17
   LPB:    3  -0.669061520958143E+00   0.287597137027487E-03   0.265515E-01   0.163805E+00   0.553805E+03  -0.897169E-17
   LPB:    4  -0.669061505317046E+00   0.305381770854095E-03   0.299450E-01   0.315385E+00   0.444601E+03  -0.841589E-17
   LPB:    5  -0.669061497704916E+00   0.341580600284927E-03   0.267441E-01   0.544924E+00   0.306638E+03  -0.781259E-17
   LPB:    6  -0.669061492871501E+00   0.252289030596662E-03   0.271996E-01   0.624328E+00   0.159145E+03  -0.523463E-17
   LPB:    7  -0.669061489421293E+00   0.122443412024905E-03   0.306799E-01   0.632849E+00   0.302966E+03  -0.477556E-17
  Finished solving LPB equations
  A_corr:   -0.590627971376994     
 End minimization
 Ecorr=   1462.96976822393     
 A_corr= -0.590627971376994     
 Ecorr_band=  -1463.56039619531     
 End Solvation calculations
  71 F= -.13701914E+03 E0= -.13701736E+03  d E =0.247933E-04
quench:  g(F)=  0.000E+00 g(S)=  0.000E+00 dE (1.order)= 0.000E+00
 bond charge predicted
       N       E                     dE             d eps       ncg     rms          rms(c)
 Begin Solvation calculations
  rms_SCF =   1.324656322252749E-003 tol =   1.324656322252749E-004
 Begin minimization
 Creating dielectric and ionic cavities
  area:      149.404144124455     
  volume:    677.495644558515     
  Acav:     7.843717566533912E-002
  Solving linear dielectric/ionic screening model
        iter                  A_solv                     rms
   LPB:       -0.669144926872661E+00   0.659763582181758E-03
   LPB:    0  -0.669144926872465E+00   0.660891214842236E-03  -0.109285E-06   0.000000E+00   0.329323E+02  -0.359901E-05
   LPB:    1  -0.669107102722419E+00   0.267145592116593E-03   0.158925E-01   0.000000E+00   0.662479E+06  -0.187101E-21
   LPB:    2  -0.669103138124520E+00   0.227005294596496E-03   0.266223E-01   0.625714E-01   0.143898E+06  -0.425691E-18
   LPB:    3  -0.669101930442794E+00   0.452503915962217E-03   0.321186E-01   0.252489E+00   0.483053E+05  -0.161664E-18
   LPB:    4  -0.669101432633458E+00   0.129411913724609E-02   0.350020E-01   0.378246E+00   0.501690E+04  -0.168211E-18
   LPB:    5  -0.669101217115863E+00   0.279395596116594E-02   0.302637E-01   0.500716E+00   0.380311E+03  -0.312202E-18
   LPB:    6  -0.669101107617606E+00   0.152416569693133E-02   0.183876E-01   0.836222E+00   0.183112E+03  -0.135476E-17
   LPB:    7  -0.669101008223731E+00   0.358983560480448E-03   0.305899E-01   0.545631E+00   0.806759E+03  -0.131896E-17
   LPB:    8  -0.669100945183271E+00   0.341866525008771E-03   0.388651E-01   0.499203E+00   0.222055E+04  -0.170596E-17
   LPB:    9  -0.669100909884356E+00   0.633656045905571E-03   0.347625E-01   0.626025E+00   0.671580E+03  -0.354065E-17
   LPB:   10  -0.669100890907039E+00   0.622201395264494E-03   0.265352E-01   0.704306E+00   0.171559E+03  -0.396664E-17
   LPB:   11  -0.669100875629056E+00   0.272109961158558E-03   0.284990E-01   0.749591E+00   0.337568E+03  -0.309313E-17
   LPB:   12  -0.669100864101183E+00   0.148504013764769E-03   0.370918E-01   0.579742E+00   0.739032E+03  -0.246106E-17
   LPB:   13  -0.669100856479144E+00   0.145340393954293E-03   0.362594E-01   0.676361E+00   0.144028E+04  -0.211385E-17
   LPB:   14  -0.669100851394186E+00   0.103644028626076E-03   0.329439E-01   0.734280E+00   0.947073E+03  -0.340550E-17
  Finished solving LPB equations
  A_corr:   -0.590663675728846     
 End minimization
 Ecorr=   1462.96277044144     
 A_corr= -0.590663675728846     
 Ecorr_band=  -1463.55343411717     
 End Solvation calculations
DAV:   1    -0.137019078087E+03    0.65004E-04   -0.61899E-03  4230   0.201E-01    0.237E-02
 Begin Solvation calculations
  rms_SCF =   1.324656322252749E-003 tol =   1.324656322252749E-004
 Begin minimization
 Creating dielectric and ionic cavities
  area:      149.395309828626     
  volume:    677.494113078181     
  Acav:     7.843253766002875E-002
  Solving linear dielectric/ionic screening model
        iter                  A_solv                     rms
   LPB:       -0.669098828046266E+00   0.150568585261352E-01
   LPB:    0  -0.669098812175848E+00   0.148840031452201E-01  -0.310454E-04   0.000000E+00   0.329324E+02  -0.102240E-02
   LPB:    1  -0.669097438692591E+00   0.455846227809970E-02   0.115884E-01   0.000000E+00   0.921537E+02  -0.329909E-19
   LPB:    2  -0.669097038175741E+00   0.644159676347904E-03   0.166626E-01   0.202805E+00   0.287625E+03   0.474693E-18
   LPB:    3  -0.669096940640054E+00   0.564947889228153E-03   0.289172E-01   0.140323E+00   0.489593E+03  -0.165106E-17
   LPB:    4  -0.669096903808024E+00   0.569406747900632E-03   0.278830E-01   0.391632E+00   0.305139E+03  -0.204094E-17
   LPB:    5  -0.669096884790849E+00   0.491867963592952E-03   0.295320E-01   0.487491E+00   0.175633E+03  -0.410286E-18
   LPB:    6  -0.669096874715361E+00   0.339789138186317E-03   0.261638E-01   0.598016E+00   0.239681E+03  -0.591781E-19
   LPB:    7  -0.669096867701692E+00   0.159423861067782E-03   0.279343E-01   0.651991E+00   0.412229E+03   0.130763E-17
   LPB:    8  -0.669096862851695E+00   0.960040737094012E-04   0.343709E-01   0.562010E+00   0.837969E+03   0.202313E-17
  Finished solving LPB equations
  A_corr:   -0.590664325191667     
 End minimization
 Ecorr=   1462.95167554916     
 A_corr= -0.590664325191667     
 Ecorr_band=  -1463.54233987435     
 End Solvation calculations
RMM:   2    -0.137019170351E+03   -0.92264E-04   -0.73941E-04  5672   0.569E-02    0.551E-02
 Begin Solvation calculations
  rms_SCF =   1.324656322252749E-003 tol =   1.324656322252749E-004
 Begin minimization
 Creating dielectric and ionic cavities
  area:      149.397129760568     
  volume:    677.492580961062     
  Acav:     7.843349312429805E-002
  Solving linear dielectric/ionic screening model
        iter                  A_solv                     rms
   LPB:       -0.669189042211538E+00   0.352145300776887E-01
   LPB:    0  -0.669189012641694E+00   0.350341909331507E-01  -0.423767E-04   0.000000E+00   0.329325E+02  -0.139557E-02
   LPB:    1  -0.669185390224702E+00   0.330243074516465E-02   0.892629E-02   0.000000E+00   0.739189E+02  -0.556214E-19
   LPB:    2  -0.669185059957378E+00   0.758293651988713E-03   0.163559E-01   0.497582E-01   0.150353E+03   0.222102E-17
   LPB:    3  -0.669185007544391E+00   0.585042336018265E-03   0.239706E-01   0.108285E+00   0.207555E+03   0.542822E-18
   LPB:    4  -0.669184989339623E+00   0.481314962481253E-03   0.259502E-01   0.320838E+00   0.179790E+03  -0.388496E-17
   LPB:    5  -0.669184980407311E+00   0.272870448348289E-03   0.234257E-01   0.543534E+00   0.240429E+03  -0.761967E-17
   LPB:    6  -0.669184975262736E+00   0.137739963597741E-03   0.281687E-01   0.478972E+00   0.310134E+03  -0.123677E-16
   LPB:    7  -0.669184972319291E+00   0.823015338118406E-04   0.313590E-01   0.513940E+00   0.585510E+03  -0.144471E-16
  Finished solving LPB equations
  A_corr:   -0.590751479194993     
 End minimization
 Ecorr=   1462.95282390537     
 A_corr= -0.590751479194993     
 Ecorr_band=  -1463.54357538456     
 End Solvation calculations
RMM:   3    -0.137019137938E+03    0.32413E-04   -0.45267E-05  2614   0.144E-02    0.197E-02
 Begin Solvation calculations
  rms_SCF =   1.324656322252749E-003 tol =   1.324656322252749E-004
 Begin minimization
 Creating dielectric and ionic cavities
  area:      149.396567118285     
  volume:    677.492113282036     
  Acav:     7.843319773709959E-002
  Solving linear dielectric/ionic screening model
        iter                  A_solv                     rms
   LPB:       -0.669208975152456E+00   0.207716182905132E-01
   LPB:    0  -0.669208962983731E+00   0.206846039771100E-01  -0.271847E-04   0.000000E+00   0.329325E+02  -0.895261E-03
   LPB:    1  -0.669207690897985E+00   0.217460056095394E-02   0.899826E-02   0.000000E+00   0.733760E+02  -0.371384E-19
   LPB:    2  -0.669207547520145E+00   0.389880579851080E-03   0.173416E-01   0.584838E-01   0.133487E+03  -0.261392E-17
   LPB:    3  -0.669207528341484E+00   0.206836084279293E-03   0.236676E-01   0.980100E-01   0.276259E+03  -0.408947E-17
   LPB:    4  -0.669207521573601E+00   0.968739252282023E-04   0.280531E-01   0.297720E+00   0.396134E+03  -0.257684E-17
  Finished solving LPB equations
  A_corr:   -0.590774323836501     
 End minimization
 Ecorr=   1462.95163443176     
 A_corr= -0.590774323836501     
 Ecorr_band=  -1463.54240875559     
 End Solvation calculations
RMM:   4    -0.137019134785E+03    0.31531E-05   -0.61099E-06  2322   0.106E-02
 Begin Solvation calculations
  rms_SCF =   1.324656322252749E-003 tol =   1.324656322252749E-004
 Begin minimization
 Creating dielectric and ionic cavities
  area:      149.396089522923     
  volume:    677.492380523516     
  Acav:     7.843294699953464E-002
  Solving linear dielectric/ionic screening model
        iter                  A_solv                     rms
   LPB:       -0.669269947687686E+00   0.149792663008768E-01
   LPB:    0  -0.669269931220801E+00   0.147295958039936E-01  -0.316234E-04   0.000000E+00   0.329325E+02  -0.104144E-02
   LPB:    1  -0.669269128366970E+00   0.174448841164967E-02   0.951205E-02   0.000000E+00   0.811815E+02  -0.124999E-19
   LPB:    2  -0.669269037688026E+00   0.289824824099968E-03   0.148172E-01   0.725067E-01   0.281809E+03   0.451484E-17
   LPB:    3  -0.669269019272580E+00   0.199976982580522E-03   0.268344E-01   0.112137E+00   0.756122E+03   0.111262E-16
   LPB:    4  -0.669269013056089E+00   0.213440528185224E-03   0.283170E-01   0.319895E+00   0.306268E+03   0.129161E-16
   LPB:    5  -0.669269009844465E+00   0.228177507089505E-03   0.266449E-01   0.549050E+00   0.343635E+03   0.124588E-16
   LPB:    6  -0.669269007804728E+00   0.145484252134973E-03   0.273988E-01   0.617635E+00   0.119869E+03   0.119421E-16
   LPB:    7  -0.669269006319419E+00   0.708690834827681E-04   0.313579E-01   0.636251E+00   0.494515E+03   0.126396E-16
  Finished solving LPB equations
  A_corr:   -0.590836059319884     
 End minimization
 Ecorr=   1462.93893245784     
 A_corr= -0.590836059319884     
 Ecorr_band=  -1463.52976851716     
 End Solvation calculations
  72 F= -.13701913E+03 E0= -.13701735E+03  d E =0.738095E-05
quench:  g(F)=  0.000E+00 g(S)=  0.000E+00 dE (1.order)= 0.000E+00
 bond charge predicted
       N       E                     dE             d eps       ncg     rms          rms(c)
 Begin Solvation calculations
  rms_SCF =   1.324656322252749E-003 tol =   1.324656322252749E-004
 Begin minimization
 Creating dielectric and ionic cavities
  area:      149.397466872755     
  volume:    677.484639471862     
  Acav:     7.843367010819653E-002
  Solving linear dielectric/ionic screening model
        iter                  A_solv                     rms
   LPB:       -0.669381617392573E+00   0.748187136787175E-03
   LPB:    0  -0.669381617380840E+00   0.762618679410363E-03  -0.844107E-06   0.000000E+00   0.329328E+02  -0.277988E-04
   LPB:    1  -0.669341765126870E+00   0.282072108014450E-03   0.158234E-01   0.000000E+00   0.467159E+06   0.469990E-21
   LPB:    2  -0.669337876232912E+00   0.287006039028584E-03   0.263298E-01   0.586442E-01   0.130966E+06   0.249173E-17
   LPB:    3  -0.669336702742449E+00   0.620915618384116E-03   0.319778E-01   0.248458E+00   0.311222E+05   0.301194E-17
   LPB:    4  -0.669336214135079E+00   0.158666749061041E-02   0.347879E-01   0.382737E+00   0.250539E+04   0.264761E-17
   LPB:    5  -0.669336007121648E+00   0.297246736590841E-02   0.282184E-01   0.522317E+00   0.295292E+03   0.488931E-17
   LPB:    6  -0.669335887652009E+00   0.132999035803860E-02   0.188276E-01   0.864962E+00   0.195747E+03   0.461508E-17
   LPB:    7  -0.669335786564390E+00   0.634542225786242E-03   0.319489E-01   0.498631E+00   0.752328E+03   0.440209E-17
   LPB:    8  -0.669335729098935E+00   0.103883597384130E-02   0.331443E-01   0.547968E+00   0.394596E+03   0.508537E-17
   LPB:    9  -0.669335696255699E+00   0.705264824538049E-03   0.242161E-01   0.782247E+00   0.149672E+03  -0.167311E-17
   LPB:   10  -0.669335669961422E+00   0.229245017914192E-03   0.306230E-01   0.633099E+00   0.576104E+03  -0.465986E-17
   LPB:   11  -0.669335651572815E+00   0.874875633972334E-04   0.390669E-01   0.548184E+00   0.163854E+04  -0.113406E-16
  Finished solving LPB equations
  A_corr:   -0.590901981464619     
 End minimization
 Ecorr=   1462.93121930044     
 A_corr= -0.590901981464619     
 Ecorr_band=  -1463.52212128191     
 End Solvation calculations
DAV:   1    -0.137019048250E+03    0.89688E-04   -0.67414E-03  4227   0.217E-01    0.238E-02
 Begin Solvation calculations
  rms_SCF =   1.324656322252749E-003 tol =   1.324656322252749E-004
 Begin minimization
 Creating dielectric and ionic cavities
  area:      149.399540318971     
  volume:    677.484550379938     
  Acav:     7.843475866745991E-002
  Solving linear dielectric/ionic screening model
        iter                  A_solv                     rms
   LPB:       -0.669470094297269E+00   0.156324181257846E-01
   LPB:    0  -0.669470021164094E+00   0.146397686123790E-01  -0.666435E-04   0.000000E+00   0.329328E+02  -0.219476E-02
   LPB:    1  -0.669469014004870E+00   0.298849626157552E-02   0.104639E-01   0.000000E+00   0.831238E+02  -0.666747E-19
   LPB:    2  -0.669468721998345E+00   0.111539945971392E-02   0.197807E-01   0.153372E+00   0.341099E+03   0.391420E-17
   LPB:    3  -0.669468650708049E+00   0.106076088452805E-02   0.231637E-01   0.208483E+00   0.184657E+03   0.452598E-17
   LPB:    4  -0.669468618571682E+00   0.671766428343953E-03   0.238523E-01   0.437769E+00   0.141956E+03   0.174952E-17
   LPB:    5  -0.669468600649763E+00   0.297044077189599E-03   0.263924E-01   0.504009E+00   0.300086E+03   0.670411E-17
   LPB:    6  -0.669468588527636E+00   0.133288740471068E-03   0.316773E-01   0.563541E+00   0.703425E+03   0.988089E-17
   LPB:    7  -0.669468580442490E+00   0.969211659689174E-04   0.371663E-01   0.568471E+00   0.949559E+03   0.118526E-16
  Finished solving LPB equations
  A_corr:   -0.591033821775031     
 End minimization
 Ecorr=   1462.93047507869     
 A_corr= -0.591033821775031     
 Ecorr_band=  -1463.52150890046     
 End Solvation calculations
RMM:   2    -0.137019150036E+03   -0.10179E-03   -0.82107E-04  5891   0.609E-02    0.557E-02
 Begin Solvation calculations
  rms_SCF =   1.324656322252749E-003 tol =   1.324656322252749E-004
 Begin minimization
 Creating dielectric and ionic cavities
  area:      149.397372187277     
  volume:    677.486730401248     
  Acav:     7.843362039832064E-002
  Solving linear dielectric/ionic screening model
        iter                  A_solv                     rms
   LPB:       -0.669394319427376E+00   0.342493771361412E-01
   LPB:    0  -0.669394290436542E+00   0.340742298989879E-01   0.419596E-04   0.000000E+00   0.329327E+02   0.138184E-02
   LPB:    1  -0.669390857699311E+00   0.326003597310497E-02   0.895052E-02   0.000000E+00   0.736609E+02   0.435800E-19
   LPB:    2  -0.669390531660219E+00   0.778012713822123E-03   0.165019E-01   0.515161E-01   0.149768E+03  -0.391853E-17
   LPB:    3  -0.669390479304292E+00   0.591455500845644E-03   0.238420E-01   0.111144E+00   0.199101E+03  -0.710886E-17
   LPB:    4  -0.669390460241344E+00   0.483903363645613E-03   0.261057E-01   0.332531E+00   0.193574E+03  -0.112270E-16
   LPB:    5  -0.669390451389372E+00   0.270043449594086E-03   0.230840E-01   0.525139E+00   0.226626E+03  -0.112126E-16
   LPB:    6  -0.669390446238021E+00   0.146478524912983E-03   0.283911E-01   0.473161E+00   0.359219E+03  -0.834221E-17
   LPB:    7  -0.669390443030085E+00   0.828066669706249E-04   0.324704E-01   0.544503E+00   0.516515E+03  -0.563653E-17
  Finished solving LPB equations
  A_corr:   -0.590956822631765     
 End minimization
 Ecorr=   1462.92526057344     
 A_corr= -0.590956822631765     
 Ecorr_band=  -1463.51621739607     
 End Solvation calculations
RMM:   3    -0.137019115866E+03    0.34170E-04   -0.49359E-05  2604   0.146E-02    0.188E-02
 Begin Solvation calculations
  rms_SCF =   1.324656322252749E-003 tol =   1.324656322252749E-004
 Begin minimization
 Creating dielectric and ionic cavities
  area:      149.397817007998     
  volume:    677.488828982632     
  Acav:     7.843385392919890E-002
  Solving linear dielectric/ionic screening model
        iter                  A_solv                     rms
   LPB:       -0.669402648408102E+00   0.239768710209578E-01
   LPB:    0  -0.669402640006816E+00   0.239361654768818E-01   0.225878E-04   0.000000E+00   0.329326E+02   0.743877E-03
   LPB:    1  -0.669400974856993E+00   0.229204727682518E-02   0.882945E-02   0.000000E+00   0.745465E+02  -0.511032E-19
   LPB:    2  -0.669400826123269E+00   0.405513687008122E-03   0.169190E-01   0.466139E-01   0.132017E+03   0.504533E-18
   LPB:    3  -0.669400804934707E+00   0.197240524278924E-03   0.236999E-01   0.101700E+00   0.277727E+03   0.431382E-18
   LPB:    4  -0.669400797439393E+00   0.855286845066564E-04   0.291527E-01   0.287579E+00   0.420596E+03   0.138794E-18
  Finished solving LPB equations
  A_corr:   -0.590966943510194     
 End minimization
 Ecorr=   1462.92080448773     
 A_corr= -0.590966943510194     
 Ecorr_band=  -1463.51177143124     
 End Solvation calculations
RMM:   4    -0.137019114295E+03    0.15712E-05   -0.64344E-06  2253   0.114E-02
 Begin Solvation calculations
  rms_SCF =   1.324656322252749E-003 tol =   1.324656322252749E-004
 Begin minimization
 Creating dielectric and ionic cavities
  area:      149.397837043619     
  volume:    677.489007884051     
  Acav:     7.843386444789972E-002
  Solving linear dielectric/ionic screening model
        iter                  A_solv                     rms
   LPB:       -0.669399923337023E+00   0.142097093090612E-01
   LPB:    0  -0.669399923280762E+00   0.142083137191712E-01   0.184844E-05   0.000000E+00   0.329326E+02   0.608740E-04
   LPB:    1  -0.669399291613234E+00   0.136183642788793E-02   0.914415E-02   0.000000E+00   0.748410E+02  -0.881118E-21
   LPB:    2  -0.669399224419652E+00   0.284772160545785E-03   0.160871E-01   0.604652E-01   0.202597E+03   0.403712E-18
   LPB:    3  -0.669399211507149E+00   0.128737664646382E-03   0.252365E-01   0.122498E+00   0.396624E+03   0.441028E-18
   LPB:    4  -0.669399207035618E+00   0.102724845116107E-03   0.308354E-01   0.283417E+00   0.633948E+03   0.130235E-17
  Finished solving LPB equations
  A_corr:   -0.590965342587718     
 End minimization
 Ecorr=   1462.92152732720     
 A_corr= -0.590965342587718     
 Ecorr_band=  -1463.51249266979     
 End Solvation calculations
  73 F= -.13701911E+03 E0= -.13701734E+03  d E =0.204904E-04
quench:  g(F)=  0.000E+00 g(S)=  0.000E+00 dE (1.order)= 0.000E+00
 reached required accuracy - stopping structural energy minimisation
