 vasp.5.4.4.18Apr17-6-g9f103f2a35 (build Feb 06 2024 13:54:16) complex          
  
 POSCAR found type information on POSCAR  Rh N  O 
 05/POSCAR found :  3 types and      40 ions
 scaLAPACK will be used

 ----------------------------------------------------------------------------- 
|                                                                             |
|  ADVICE TO THIS USER RUNNING 'VASP/VAMP'   (HEAR YOUR MASTER'S VOICE ...):  |
|                                                                             |
|      You enforced a specific xc-type in the INCAR file,                     |
|      a different type was found on the POTCAR file                          |
|          I HOPE YOU KNOW, WHAT YOU ARE  DOING                               |
|                                                                             |
 ----------------------------------------------------------------------------- 

 LDA part: xc-table for Pade appr. of Perdew
 POSCAR found type information on POSCAR  Rh N  O 
 00/POSCAR found :  3 types and      40 ions
 POSCAR found type information on POSCAR  Rh N  O 
 06/POSCAR found :  3 types and      40 ions
 Jacobian:    21.3215267681110     
 POSCAR, INCAR and KPOINTS ok, starting setup
 FFT: planning ...
 WAVECAR not read
 entering main loop
       N       E                     dE             d eps       ncg     rms          rms(c)
  Solvation turned off during non-self-consistent phase (first NELMDL steps)
DAV:   1     0.613958434548E+04    0.61396E+04   -0.35768E+05  6567   0.164E+03
DAV:   2    -0.175936824317E+02   -0.61572E+04   -0.59725E+04  5883   0.478E+02
DAV:   3    -0.255557520269E+03   -0.23796E+03   -0.22026E+03  6078   0.913E+01
DAV:   4    -0.262519490876E+03   -0.69620E+01   -0.68118E+01  5997   0.141E+01
DAV:   5    -0.262758350059E+03   -0.23886E+00   -0.23855E+00  6609   0.240E+00    0.499E+01
 Begin Solvation calculations
  rms_SCF =    2.41520836609860      tol =   0.241520836609860     
 Begin minimization
 Creating dielectric and ionic cavities
  area:      166.829224977931     
  volume:    791.352645595806     
  Acav:     8.758534311341398E-002
  Solving linear dielectric/ionic screening model
        iter                  A_solv                     rms
   LPB:       -0.683528048460610E+03   0.312921406984282E+03
   LPB:    0  -0.197903020875951E+01   0.525607986160666E+01  -0.626303E+01   0.000000E+00   0.347503E+02  -0.217642E+03
   LPB:    1  -0.526720322537813E+00   0.101057884177401E+01   0.177594E-01   0.000000E+00   0.192823E+03  -0.925690E-14
   LPB:    2  -0.288697479693838E+00   0.559365252241171E+00   0.274230E-01   0.106138E+00   0.173360E+03  -0.253836E-13
   LPB:    3  -0.214887126404392E+00   0.104347097413777E+01   0.289727E-01   0.293512E+00   0.164172E+03  -0.293831E-13
   LPB:    4  -0.184947204412765E+00   0.969727609635311E+00   0.214260E-01   0.548506E+00   0.833776E+02  -0.264228E-13
   LPB:    5  -0.163816681641720E+00   0.399793968368994E+00   0.229066E-01   0.660145E+00   0.127809E+03  -0.302647E-13
   LPB:    6  -0.150480115910227E+00   0.340544546164046E+00   0.300519E-01   0.481085E+00   0.140996E+03  -0.329245E-13
   LPB:    7  -0.142852106667533E+00   0.296996765725490E+00   0.271349E-01   0.633449E+00   0.653421E+02  -0.360988E-13
   LPB:    8  -0.137738810583869E+00   0.247299359216053E+00   0.278087E-01   0.654089E+00   0.378373E+03  -0.382647E-13
   LPB:    9  -0.134328862079201E+00   0.116197891462845E+00   0.312557E-01   0.593333E+00   0.551250E+02  -0.390558E-13
  Finished solving LPB equations
  A_corr:   -4.674351896578693E-002
 End minimization
 Ecorr=   3309.61239222864     
 A_corr= -4.674351896578693E-002
 Ecorr_band=  -3309.65913574761     
 End Solvation calculations
RMM:   6    -0.253025322795E+03    0.97330E+01   -0.76437E+01  5428   0.169E+01    0.322E+01
 Begin Solvation calculations
  rms_SCF =    2.41520836609860      tol =   0.241520836609860     
 Begin minimization
 Creating dielectric and ionic cavities
  area:      166.904193313795     
  volume:    809.798592438513     
  Acav:     8.762470148974262E-002
  Solving linear dielectric/ionic screening model
        iter                  A_solv                     rms
   LPB:       -0.231505075209512E+02   0.792774686354685E+02
   LPB:    0  -0.214641028608411E+02   0.765915210960841E+02   0.315493E+00   0.000000E+00   0.338855E+02   0.106906E+02
   LPB:    1  -0.206389274605704E+01   0.704368514349743E+01   0.910146E-02   0.000000E+00   0.794629E+02  -0.105999E-16
   LPB:    2  -0.716926773233165E+00   0.128257111843486E+01   0.159729E-01   0.395619E-01   0.143291E+03   0.275607E-13
   LPB:    3  -0.526721282158842E+00   0.713438030550738E+00   0.227273E-01   0.992438E-01   0.236365E+03   0.319662E-13
   LPB:    4  -0.472915983351250E+00   0.805692102544945E+00   0.250092E-01   0.257069E+00   0.216122E+03   0.333300E-13
   LPB:    5  -0.450780853979193E+00   0.422445513156591E+00   0.233595E-01   0.440446E+00   0.108331E+03   0.341086E-13
   LPB:    6  -0.439361013708591E+00   0.207871718330020E+00   0.271898E-01   0.443236E+00   0.294789E+03   0.430146E-13
  Finished solving LPB equations
  A_corr:   -0.351736312218849     
 End minimization
 Ecorr=   3188.55901682494     
 A_corr= -0.351736312218849     
 Ecorr_band=  -3188.91075313716     
 End Solvation calculations
RMM:   7    -0.339591928379E+03   -0.86567E+02   -0.53807E+01  5430   0.104E+01    0.734E+01
 Begin Solvation calculations
  rms_SCF =    2.41520836609860      tol =   0.241520836609860     
 Begin minimization
 Creating dielectric and ionic cavities
  area:      171.551746585125     
  volume:    813.788444907517     
  Acav:     9.006466695719074E-002
  Solving linear dielectric/ionic screening model
        iter                  A_solv                     rms
   LPB:       -0.297416795833075E+02   0.907334886484458E+02
   LPB:    0  -0.296674051054895E+02   0.906759749818159E+02   0.663942E-01   0.000000E+00   0.336984E+02   0.223738E+01
   LPB:    1  -0.256611753313006E+01   0.846778421715916E+01   0.914650E-02   0.000000E+00   0.787995E+02   0.693149E-16
   LPB:    2  -0.584644102330099E+00   0.147374446172535E+01   0.162730E-01   0.410948E-01   0.139140E+03   0.352481E-14
   LPB:    3  -0.288895123019316E+00   0.538327186236953E+00   0.235541E-01   0.103118E+00   0.239271E+03   0.488835E-14
   LPB:    4  -0.211569111737017E+00   0.362392834435090E+00   0.269496E-01   0.228516E+00   0.333282E+03   0.377251E-14
   LPB:    5  -0.184708101483199E+00   0.286799328508837E+00   0.277402E-01   0.337474E+00   0.237209E+03   0.322694E-14
   LPB:    6  -0.174145761639931E+00   0.363062682229172E+00   0.267704E-01   0.407466E+00   0.334826E+03   0.157170E-14
   LPB:    7  -0.169307172167080E+00   0.198293260496289E+00   0.246228E-01   0.498054E+00   0.863542E+02   0.147090E-15
  Finished solving LPB equations
  A_corr:   -7.924250520988972E-002
 End minimization
 Ecorr=   3116.09234101700     
 A_corr= -7.924250520988972E-002
 Ecorr_band=  -3116.17158352221     
 End Solvation calculations
RMM:   8    -0.271035225330E+03    0.68557E+02   -0.26028E+01  5434   0.753E+00    0.443E+01
 Begin Solvation calculations
  rms_SCF =    2.41520836609860      tol =   0.241520836609860     
 Begin minimization
 Creating dielectric and ionic cavities
  area:      164.183488662416     
  volume:    800.748030920210     
  Acav:     8.619633154776843E-002
  Solving linear dielectric/ionic screening model
        iter                  A_solv                     rms
   LPB:       -0.201961299225972E+01   0.226256708990817E+02
   LPB:    0  -0.150376912631258E+01   0.185415787978741E+02  -0.173406E+00   0.000000E+00   0.343098E+02  -0.594954E+01
   LPB:    1  -0.270746850798013E+00   0.162648383933882E+01   0.923282E-02   0.000000E+00   0.782266E+02  -0.323534E-15
   LPB:    2  -0.197692343616602E+00   0.580516484649134E+00   0.144661E-01   0.378144E-01   0.160989E+03  -0.168162E-13
   LPB:    3  -0.186539149117213E+00   0.404782267376024E+00   0.194891E-01   0.113322E+00   0.146571E+03  -0.204337E-13
   LPB:    4  -0.182143037611826E+00   0.122660393103447E+00   0.224087E-01   0.342802E+00   0.137881E+03  -0.208614E-13
  Finished solving LPB equations
  A_corr:   -9.594670606405717E-002
 End minimization
 Ecorr=   3145.47446180312     
 A_corr= -9.594670606405717E-002
 Ecorr_band=  -3145.57040850918     
 End Solvation calculations
RMM:   9    -0.249784682174E+03    0.21251E+02   -0.23757E+01  5424   0.773E+00    0.213E+01
 Begin Solvation calculations
  rms_SCF =    2.41520836609860      tol =   0.241520836609860     
 Begin minimization
 Creating dielectric and ionic cavities
  area:      155.816952881299     
  volume:    798.095554626196     
  Acav:     8.180390026268204E-002
  Solving linear dielectric/ionic screening model
        iter                  A_solv                     rms
   LPB:       -0.137854190248655E+01   0.163596653995962E+02
   LPB:    0  -0.128715375544392E+01   0.159476339161189E+02   0.728560E-01   0.000000E+00   0.344341E+02   0.250873E+01
   LPB:    1  -0.378919903026971E+00   0.163291230981955E+01   0.953752E-02   0.000000E+00   0.785146E+02  -0.148332E-15
   LPB:    2  -0.272717008720410E+00   0.353600266736159E+00   0.164161E-01   0.679365E-01   0.213192E+03   0.135120E-15
   LPB:    3  -0.249757236007366E+00   0.153080389504098E+00   0.258461E-01   0.137312E+00   0.352425E+03   0.211813E-14
   LPB:    4  -0.241734028518339E+00   0.233299370216861E+00   0.301765E-01   0.299300E+00   0.530062E+03   0.254286E-14
  Finished solving LPB equations
  A_corr:   -0.159930128255657     
 End minimization
 Ecorr=   3091.09064888634     
 A_corr= -0.159930128255657     
 Ecorr_band=  -3091.25057901459     
 End Solvation calculations
RMM:  10    -0.248932001335E+03    0.85268E+00   -0.89508E+00  5430   0.469E+00    0.198E+01
 Begin Solvation calculations
  rms_SCF =    2.41520836609860      tol =   0.241520836609860     
 Begin minimization
 Creating dielectric and ionic cavities
  area:      153.045280833729     
  volume:    794.812379666822     
  Acav:     8.034877243770784E-002
  Solving linear dielectric/ionic screening model
        iter                  A_solv                     rms
   LPB:       -0.358283107406948E+00   0.494621756531362E+01
   LPB:    0  -0.357984176978794E+00   0.489084684891918E+01  -0.415755E-02   0.000000E+00   0.345881E+02  -0.143801E+00
   LPB:    1  -0.268828652901976E+00   0.608715313467380E+00   0.958552E-02   0.000000E+00   0.771436E+02  -0.122785E-17
   LPB:    2  -0.252152611664619E+00   0.246169050077369E+00   0.211574E-01   0.847419E-01   0.122551E+03   0.125680E-14
   LPB:    3  -0.246655564716321E+00   0.292966938101807E+00   0.253306E-01   0.275330E+00   0.317938E+03   0.138096E-14
   LPB:    4  -0.243050486754674E+00   0.195759150825753E+00   0.297377E-01   0.558629E+00   0.681073E+02   0.110042E-14
  Finished solving LPB equations
  A_corr:   -0.162701714316966     
 End minimization
 Ecorr=   3066.26097465237     
 A_corr= -0.162701714316966     
 Ecorr_band=  -3066.42367636668     
 End Solvation calculations
RMM:  11    -0.247293260091E+03    0.16387E+01   -0.39817E+00  5430   0.320E+00    0.149E+01
 Begin Solvation calculations
  rms_SCF =    2.41520836609860      tol =   0.241520836609860     
 Begin minimization
 Creating dielectric and ionic cavities
  area:      152.756925496581     
  volume:    793.245472452730     
  Acav:     8.019738588570528E-002
  Solving linear dielectric/ionic screening model
        iter                  A_solv                     rms
   LPB:       -0.256609752583829E+00   0.157178126124261E+01
   LPB:    0  -0.254313454792280E+00   0.148628488146509E+01   0.115108E-01   0.000000E+00   0.346615E+02   0.398982E+00
   LPB:    1  -0.242559281248753E+00   0.336284293568726E+00   0.110887E-01   0.000000E+00   0.864367E+02  -0.224657E-16
   LPB:    2  -0.238598491395725E+00   0.112864184932408E+00   0.208375E-01   0.179318E+00   0.283504E+03  -0.822409E-17
   LPB:    3  -0.236394045476674E+00   0.835545340181219E-01   0.347753E-01   0.333497E+00   0.231397E+03  -0.165393E-15
   LPB:    4  -0.234645544200438E+00   0.166187745517753E+00   0.397072E-01   0.694654E+00   0.210175E+03  -0.738153E-15
  Finished solving LPB equations
  A_corr:   -0.154448158314732     
 End minimization
 Ecorr=   3051.41822151840     
 A_corr= -0.154448158314732     
 Ecorr_band=  -3051.57266967671     
 End Solvation calculations
RMM:  12    -0.245459007121E+03    0.18343E+01   -0.11048E+00  5435   0.170E+00    0.481E+00
 Begin Solvation calculations
  rms_SCF =   0.921106651428601      tol =   9.211066514286008E-002
 Begin minimization
 Creating dielectric and ionic cavities
  area:      152.371404680292     
  volume:    790.946304562524     
  Acav:     7.999498745715333E-002
  Solving linear dielectric/ionic screening model
        iter                  A_solv                     rms
   LPB:       -0.246150056376486E+00   0.660249892089505E+00
   LPB:    0  -0.245655419412914E+00   0.776021593149646E+00   0.533409E-02   0.000000E+00   0.347693E+02   0.185463E+00
   LPB:    1  -0.240349132742363E+00   0.226690689668344E+00   0.120556E-01   0.000000E+00   0.977186E+02   0.159286E-18
   LPB:    2  -0.238816043964690E+00   0.125692284284670E+00   0.215723E-01   0.161462E+00   0.270802E+03   0.128196E-14
   LPB:    3  -0.237824394094613E+00   0.150541055193417E+00   0.267764E-01   0.521116E+00   0.283442E+03   0.136816E-14
   LPB:    4  -0.236999873836477E+00   0.130074353779864E+00   0.297845E-01   0.747489E+00   0.645154E+02   0.136851E-14
   LPB:    5  -0.235785459720321E+00   0.105075366629982E+00   0.413007E-01   0.106218E+01   0.950234E+02   0.785289E-15
   LPB:    6  -0.234898696787807E+00   0.428430340530001E-01   0.336391E-01   0.896506E+00   0.475971E+02  -0.908701E-15
  Finished solving LPB equations
  A_corr:   -0.154903709330653     
 End minimization
 Ecorr=   3029.81663718562     
 A_corr= -0.154903709330653     
 Ecorr_band=  -3029.97154089495     
 End Solvation calculations
RMM:  13    -0.245475912588E+03   -0.16905E-01   -0.47780E-01  5429   0.111E+00    0.527E+00
 Begin Solvation calculations
  rms_SCF =   0.921106651428601      tol =   9.211066514286008E-002
 Begin minimization
 Creating dielectric and ionic cavities
  area:      152.872344074751     
  volume:    786.114723871776     
  Acav:     8.025798063924433E-002
  Solving linear dielectric/ionic screening model
        iter                  A_solv                     rms
   LPB:       -0.274095942053287E+00   0.865483500481552E+00
   LPB:    0  -0.273069069925316E+00   0.108540204736731E+01   0.766064E-02   0.000000E+00   0.349958E+02   0.268090E+00
   LPB:    1  -0.254436819325186E+00   0.459668030335737E+00   0.138238E-01   0.000000E+00   0.124153E+03   0.128895E-16
   LPB:    2  -0.250576867832986E+00   0.147734168538417E+00   0.174952E-01   0.163692E+00   0.189606E+03   0.232615E-14
   LPB:    3  -0.249497826398372E+00   0.129699421251681E+00   0.202946E-01   0.240987E+00   0.378279E+03   0.254048E-14
   LPB:    4  -0.248992617398080E+00   0.111024655217305E+00   0.222544E-01   0.426971E+00   0.129927E+03   0.237590E-14
   LPB:    5  -0.248597015244663E+00   0.591332126548926E-01   0.271223E-01   0.642504E+00   0.297597E+03   0.209624E-14
  Finished solving LPB equations
  A_corr:   -0.168339034605419     
 End minimization
 Ecorr=   3015.96225076262     
 A_corr= -0.168339034605419     
 Ecorr_band=  -3016.13058979723     
 End Solvation calculations
RMM:  14    -0.245431622449E+03    0.44290E-01   -0.25202E-01  5430   0.775E-01    0.490E+00
 Begin Solvation calculations
  rms_SCF =   0.921106651428601      tol =   9.211066514286008E-002
 Begin minimization
 Creating dielectric and ionic cavities
  area:      153.149401062790     
  volume:    783.877386081597     
  Acav:     8.040343555796467E-002
  Solving linear dielectric/ionic screening model
        iter                  A_solv                     rms
   LPB:       -0.268266685108870E+00   0.958789168418869E+00
   LPB:    0  -0.265071364662453E+00   0.875612853530947E+00   0.134932E-01   0.000000E+00   0.351007E+02   0.473620E+00
   LPB:    1  -0.258641620195937E+00   0.301456208662786E+00   0.117776E-01   0.000000E+00   0.116999E+03  -0.106380E-17
   LPB:    2  -0.257272027101779E+00   0.651266586606293E-01   0.156638E-01   0.160161E+00   0.266897E+03  -0.646180E-15
   LPB:    3  -0.256779767067195E+00   0.686063184012033E-01   0.271616E-01   0.207274E+00   0.346749E+03  -0.760948E-15
   LPB:    4  -0.256421271889138E+00   0.793064107564118E-01   0.335761E-01   0.589135E+00   0.102818E+03  -0.479187E-15
  Finished solving LPB equations
  A_corr:   -0.176017836331173     
 End minimization
 Ecorr=   3004.07332057570     
 A_corr= -0.176017836331173     
 Ecorr_band=  -3004.24933841203     
 End Solvation calculations
RMM:  15    -0.245274667917E+03    0.15695E+00   -0.15498E-01  5428   0.648E-01    0.210E+00
 Begin Solvation calculations
  rms_SCF =   0.921106651428601      tol =   9.211066514286008E-002
 Begin minimization
 Creating dielectric and ionic cavities
  area:      153.802021020772     
  volume:    778.702848900954     
  Acav:     8.074606103590511E-002
  Solving linear dielectric/ionic screening model
        iter                  A_solv                     rms
   LPB:       -0.302190070447420E+00   0.725184833012648E+00
   LPB:    0  -0.296408200929098E+00   0.926973738634615E+00   0.180882E-01   0.000000E+00   0.353433E+02   0.639297E+00
   LPB:    1  -0.275334887679441E+00   0.457542724977565E+00   0.143418E-01   0.000000E+00   0.188528E+03   0.287375E-16
   LPB:    2  -0.272271783716762E+00   0.152536604545357E+00   0.162114E-01   0.128591E+00   0.125467E+03   0.217609E-14
   LPB:    3  -0.271171956266843E+00   0.113473255917492E+00   0.231695E-01   0.251228E+00   0.263653E+03   0.284687E-14
   LPB:    4  -0.270559999629481E+00   0.143426773805167E+00   0.249541E-01   0.516620E+00   0.128874E+03   0.306492E-14
   LPB:    5  -0.269996833060182E+00   0.928836527061006E-01   0.268720E-01   0.854590E+00   0.258761E+03   0.286269E-14
   LPB:    6  -0.269468552296365E+00   0.374189010392208E-01   0.364894E-01   0.690815E+00   0.103453E+03   0.279033E-14
  Finished solving LPB equations
  A_corr:   -0.188722491260460     
 End minimization
 Ecorr=   2983.75609102762     
 A_corr= -0.188722491260460     
 Ecorr_band=  -2983.94481351888     
 End Solvation calculations
RMM:  16    -0.245293068581E+03   -0.18401E-01   -0.83428E-02  5429   0.482E-01    0.241E+00
 Begin Solvation calculations
  rms_SCF =   0.921106651428601      tol =   9.211066514286008E-002
 Begin minimization
 Creating dielectric and ionic cavities
  area:      154.448805148588     
  volume:    774.782964024538     
  Acav:     8.108562270300863E-002
  Solving linear dielectric/ionic screening model
        iter                  A_solv                     rms
   LPB:       -0.300580219953880E+00   0.105336514459969E+01
   LPB:    0  -0.297850210871729E+00   0.116944193358572E+01   0.123970E-01   0.000000E+00   0.355271E+02   0.440430E+00
   LPB:    1  -0.283547426916441E+00   0.413313926013719E+00   0.115468E-01   0.000000E+00   0.141735E+03   0.909261E-17
   LPB:    2  -0.281407521198134E+00   0.102168660019953E+00   0.147495E-01   0.117127E+00   0.187806E+03  -0.304603E-15
   LPB:    3  -0.280867118001526E+00   0.818167998383578E-01   0.197559E-01   0.188540E+00   0.333105E+03  -0.339182E-15
   LPB:    4  -0.280574389391114E+00   0.789291717512999E-01   0.280043E-01   0.382137E+00   0.106039E+03  -0.302483E-15
  Finished solving LPB equations
  A_corr:   -0.199488766688105     
 End minimization
 Ecorr=   2971.01371416314     
 A_corr= -0.199488766688105     
 Ecorr_band=  -2971.21320292983     
 End Solvation calculations
RMM:  17    -0.245254404955E+03    0.38664E-01   -0.52229E-02  5430   0.383E-01    0.147E+00
 Begin Solvation calculations
  rms_SCF =   0.921106651428601      tol =   9.211066514286008E-002
 Begin minimization
 Creating dielectric and ionic cavities
  area:      154.631378400075     
  volume:    773.631633105307     
  Acav:     8.118147366003919E-002
  Solving linear dielectric/ionic screening model
        iter                  A_solv                     rms
   LPB:       -0.285748488599041E+00   0.442620523951067E+00
   LPB:    0  -0.285594955287122E+00   0.461245187608576E+00   0.293770E-02   0.000000E+00   0.355810E+02   0.104526E+00
   LPB:    1  -0.283432486550575E+00   0.143460760778969E+00   0.134257E-01   0.000000E+00   0.108813E+03  -0.399350E-17
   LPB:    2  -0.283003818022279E+00   0.738255436695643E-01   0.154702E-01   0.172034E+00   0.255685E+03   0.847822E-16
   LPB:    3  -0.282681364952526E+00   0.860745664316661E-01   0.345547E-01   0.336769E+00   0.108270E+03   0.418488E-15
   LPB:    4  -0.282320001931552E+00   0.814914587354537E-01   0.347061E-01   0.111578E+01   0.976403E+02   0.535120E-15
  Finished solving LPB equations
  A_corr:   -0.201138528271512     
 End minimization
 Ecorr=   2965.99275063355     
 A_corr= -0.201138528271512     
 Ecorr_band=  -2966.19388916182     
 End Solvation calculations
RMM:  18    -0.245244769534E+03    0.96354E-02   -0.73023E-03  5427   0.132E-01    0.107E+00
 Begin Solvation calculations
  rms_SCF =   0.921106651428601      tol =   9.211066514286008E-002
 Begin minimization
 Creating dielectric and ionic cavities
  area:      155.061688158714     
  volume:    771.120564195134     
  Acav:     8.140738628332490E-002
  Solving linear dielectric/ionic screening model
        iter                  A_solv                     rms
   LPB:       -0.300727286523308E+00   0.657418012183392E+00
   LPB:    0  -0.298528510227423E+00   0.598896267187320E+00   0.110989E-01   0.000000E+00   0.356988E+02   0.396216E+00
   LPB:    1  -0.289401696175258E+00   0.197349490308972E+00   0.146433E-01   0.000000E+00   0.229742E+03   0.432769E-17
   LPB:    2  -0.288397408366294E+00   0.103755356504059E+00   0.161522E-01   0.997578E-01   0.161075E+03   0.110276E-14
   LPB:    3  -0.288034226425377E+00   0.732574383235319E-01   0.242337E-01   0.241034E+00   0.110983E+03   0.112048E-14
   LPB:    4  -0.287751202637459E+00   0.973473799759662E-01   0.323938E-01   0.582983E+00   0.251694E+03   0.465083E-16
   LPB:    5  -0.287502448109540E+00   0.860555481519485E-01   0.259433E-01   0.109745E+01   0.121328E+03  -0.865608E-15
  Finished solving LPB equations
  A_corr:   -0.206095061826215     
 End minimization
 Ecorr=   2958.23481739971     
 A_corr= -0.206095061826215     
 Ecorr_band=  -2958.44091246154     
 End Solvation calculations
RMM:  19    -0.245235628790E+03    0.91407E-02   -0.58847E-03  5429   0.128E-01    0.577E-01
 Begin Solvation calculations
  rms_SCF =   0.787703561166773      tol =   7.877035611667725E-002
 Begin minimization
 Creating dielectric and ionic cavities
  area:      155.198662219724     
  volume:    770.311858567017     
  Acav:     8.147929766535503E-002
  Solving linear dielectric/ionic screening model
        iter                  A_solv                     rms
   LPB:       -0.291283007338999E+00   0.319222184921893E+00
   LPB:    0  -0.291140306240696E+00   0.352877479135681E+00   0.282600E-02   0.000000E+00   0.357367E+02   0.100992E+00
   LPB:    1  -0.289152829734809E+00   0.110628808227929E+00   0.141624E-01   0.000000E+00   0.147082E+03  -0.297938E-17
   LPB:    2  -0.288898817674244E+00   0.412226785072211E-01   0.152841E-01   0.118426E+00   0.152321E+03   0.112863E-15
   LPB:    3  -0.288790622313895E+00   0.474919250375293E-01   0.336450E-01   0.193497E+00   0.102891E+03   0.138255E-15
   LPB:    4  -0.288624585209459E+00   0.892942973654190E-01   0.426635E-01   0.121021E+01   0.151495E+03   0.204179E-15
   LPB:    5  -0.288434524471315E+00   0.658106666117354E-01   0.261664E-01   0.186638E+01   0.857744E+02   0.396812E-16
  Finished solving LPB equations
  A_corr:   -0.206955226805960     
 End minimization
 Ecorr=   2954.20351591136     
 A_corr= -0.206955226805960     
 Ecorr_band=  -2954.41047113817     
 End Solvation calculations
RMM:  20    -0.245234369588E+03    0.12592E-02   -0.23001E-03  5424   0.751E-02    0.561E-01
 Begin Solvation calculations
  rms_SCF =   0.716439377604365      tol =   7.164393776043645E-002
 Begin minimization
 Creating dielectric and ionic cavities
  area:      155.522070472493     
  volume:    768.562011317236     
  Acav:     8.164908699805891E-002
  Solving linear dielectric/ionic screening model
        iter                  A_solv                     rms
   LPB:       -0.304913262016093E+00   0.713162985668569E+00
   LPB:    0  -0.304314711176348E+00   0.758079505610818E+00   0.578110E-02   0.000000E+00   0.358187E+02   0.207072E+00
   LPB:    1  -0.293552335121628E+00   0.242296556565910E+00   0.140655E-01   0.000000E+00   0.182721E+03   0.812017E-17
   LPB:    2  -0.292376300571853E+00   0.853612644046430E-01   0.151567E-01   0.101405E+00   0.135033E+03   0.144439E-14
   LPB:    3  -0.292121675074518E+00   0.475822344590195E-01   0.211774E-01   0.154958E+00   0.144749E+03   0.263749E-14
   LPB:    4  -0.292011804276170E+00   0.552081543783719E-01   0.258986E-01   0.352840E+00   0.258653E+03   0.380895E-14
  Finished solving LPB equations
  A_corr:   -0.210362717278111     
 End minimization
 Ecorr=   2949.98714337947     
 A_corr= -0.210362717278111     
 Ecorr_band=  -2950.19750609675     
 End Solvation calculations
RMM:  21    -0.245232936381E+03    0.14332E-02   -0.27968E-03  5433   0.776E-02    0.490E-01
 Begin Solvation calculations
  rms_SCF =   0.513476164595697      tol =   5.134761645956970E-002
 Begin minimization
 Creating dielectric and ionic cavities
  area:      155.703072908133     
  volume:    767.702283120079     
  Acav:     8.174411327677004E-002
  Solving linear dielectric/ionic screening model
        iter                  A_solv                     rms
   LPB:       -0.298611198499573E+00   0.456514310890052E+00
   LPB:    0  -0.298421071528432E+00   0.466683405071149E+00   0.325640E-02   0.000000E+00   0.358590E+02   0.116771E+00
   LPB:    1  -0.294818141470506E+00   0.129311331268858E+00   0.141281E-01   0.000000E+00   0.164031E+03   0.538339E-17
   LPB:    2  -0.294399555641606E+00   0.708186532980329E-01   0.159131E-01   0.103147E+00   0.154519E+03  -0.104474E-15
   LPB:    3  -0.294239909560872E+00   0.570554216789300E-01   0.235753E-01   0.257438E+00   0.107793E+03   0.715429E-15
   LPB:    4  -0.294129991222116E+00   0.588163808391288E-01   0.264440E-01   0.613822E+00   0.237433E+03   0.964349E-15
   LPB:    5  -0.294045340494818E+00   0.406581311716502E-01   0.248859E-01   0.818341E+00   0.974375E+02   0.116682E-14
  Finished solving LPB equations
  A_corr:   -0.212301227218048     
 End minimization
 Ecorr=   2948.42119257271     
 A_corr= -0.212301227218048     
 Ecorr_band=  -2948.63349379993     
 End Solvation calculations
RMM:  22    -0.245232634477E+03    0.30190E-03   -0.15761E-03  5404   0.616E-02    0.472E-01
 Begin Solvation calculations
  rms_SCF =   0.513476164595697      tol =   5.134761645956970E-002
 Begin minimization
 Creating dielectric and ionic cavities
  area:      155.961196958630     
  volume:    766.622162928998     
  Acav:     8.187962840328074E-002
  Solving linear dielectric/ionic screening model
        iter                  A_solv                     rms
   LPB:       -0.307022056116110E+00   0.773695120092113E+00
   LPB:    0  -0.306807903066090E+00   0.799179072702313E+00   0.345360E-02   0.000000E+00   0.359097E+02   0.124017E+00
   LPB:    1  -0.298394465427272E+00   0.205700885423908E+00   0.138708E-01   0.000000E+00   0.134450E+03  -0.295449E-17
   LPB:    2  -0.297472683904035E+00   0.953661508872603E-01   0.144440E-01   0.105212E+00   0.177724E+03  -0.118889E-14
   LPB:    3  -0.297256807314562E+00   0.587488528352887E-01   0.191281E-01   0.176846E+00   0.124937E+03  -0.157377E-14
   LPB:    4  -0.297140870679246E+00   0.611037095658965E-01   0.241666E-01   0.425080E+00   0.237996E+03  -0.175251E-14
   LPB:    5  -0.297041588450061E+00   0.395256599564723E-01   0.279108E-01   0.741470E+00   0.841181E+02  -0.184031E-14
  Finished solving LPB equations
  A_corr:   -0.215161960046780     
 End minimization
 Ecorr=   2946.20464862891     
 A_corr= -0.215161960046780     
 Ecorr_band=  -2946.41981058895     
 End Solvation calculations
RMM:  23    -0.245232275363E+03    0.35911E-03   -0.13453E-03  5428   0.508E-02    0.422E-01
 Begin Solvation calculations
  rms_SCF =   0.456470054077732      tol =   4.564700540777322E-002
 Begin minimization
 Creating dielectric and ionic cavities
  area:      156.209380453406     
  volume:    765.769427744538     
  Acav:     8.200992473803811E-002
  Solving linear dielectric/ionic screening model
        iter                  A_solv                     rms
   LPB:       -0.310194922327876E+00   0.740209167222677E+00
   LPB:    0  -0.309982295740310E+00   0.758976643349901E+00   0.343935E-02   0.000000E+00   0.359496E+02   0.123643E+00
   LPB:    1  -0.301223921008332E+00   0.191326667773278E+00   0.139884E-01   0.000000E+00   0.153913E+03  -0.574934E-17
   LPB:    2  -0.300362361547784E+00   0.874737340371072E-01   0.151377E-01   0.909010E-01   0.153069E+03   0.507576E-15
   LPB:    3  -0.300145659562935E+00   0.579007551132738E-01   0.208082E-01   0.182980E+00   0.117099E+03   0.497406E-15
   LPB:    4  -0.300014664935631E+00   0.692979797928171E-01   0.267508E-01   0.470207E+00   0.234313E+03   0.306600E-15
   LPB:    5  -0.299911986789710E+00   0.488686407933640E-01   0.246991E-01   0.848947E+00   0.767110E+02   0.303960E-15
   LPB:    6  -0.299814040160480E+00   0.176326941782224E-01   0.309943E-01   0.760169E+00   0.172225E+03   0.402011E-15
  Finished solving LPB equations
  A_corr:   -0.217804115422441     
 End minimization
 Ecorr=   2944.18860097668     
 A_corr= -0.217804115422441     
 Ecorr_band=  -2944.40640509211     
 End Solvation calculations
RMM:  24    -0.245233040389E+03   -0.76503E-03   -0.10565E-03  5429   0.514E-02    0.512E-01
 Begin Solvation calculations
  rms_SCF =   0.456470054077732      tol =   4.564700540777322E-002
 Begin minimization
 Creating dielectric and ionic cavities
  area:      156.293835343646     
  volume:    765.506176816833     
  Acav:     8.205426355541424E-002
  Solving linear dielectric/ionic screening model
        iter                  A_solv                     rms
   LPB:       -0.302722113724316E+00   0.377418725843328E+00
   LPB:    0  -0.302701896271929E+00   0.380110438875688E+00   0.106037E-02   0.000000E+00   0.359620E+02   0.381329E-01
   LPB:    1  -0.301265430029746E+00   0.886111939368023E-01   0.135008E-01   0.000000E+00   0.108933E+03   0.127041E-17
   LPB:    2  -0.301099449548155E+00   0.447571586442756E-01   0.135975E-01   0.114727E+00   0.260188E+03   0.252861E-15
   LPB:    3  -0.301058198764034E+00   0.199283466405020E-01   0.179944E-01   0.187801E+00   0.135044E+03   0.282286E-15
   LPB:    4  -0.301023226504767E+00   0.336755304506485E-01   0.385651E-01   0.395580E+00   0.180096E+03   0.277610E-15
  Finished solving LPB equations
  A_corr:   -0.218968962949353     
 End minimization
 Ecorr=   2943.24689045854     
 A_corr= -0.218968962949353     
 Ecorr_band=  -2943.46585942149     
 End Solvation calculations
RMM:  25    -0.245232198531E+03    0.84186E-03   -0.30389E-04  4756   0.235E-02    0.377E-01
 Begin Solvation calculations
  rms_SCF =   0.456470054077732      tol =   4.564700540777322E-002
 Begin minimization
 Creating dielectric and ionic cavities
  area:      156.571999014864     
  volume:    764.932554893938     
  Acav:     8.220029948280372E-002
  Solving linear dielectric/ionic screening model
        iter                  A_solv                     rms
   LPB:       -0.331111165838222E+00   0.149937536775279E+01
   LPB:    0  -0.330974046413238E+00   0.150638261734154E+01   0.276045E-02   0.000000E+00   0.359889E+02   0.993456E-01
   LPB:    1  -0.308762671912918E+00   0.319319376533269E+00   0.136002E-01   0.000000E+00   0.105798E+03  -0.227581E-17
   LPB:    2  -0.306621160574308E+00   0.168515942861120E+00   0.133459E-01   0.982519E-01   0.248827E+03   0.392264E-15
   LPB:    3  -0.306083558818729E+00   0.668971128254180E-01   0.176163E-01   0.190184E+00   0.128468E+03   0.684437E-15
   LPB:    4  -0.305855703018439E+00   0.677669180079159E-01   0.243620E-01   0.306479E+00   0.297756E+03   0.976756E-15
   LPB:    5  -0.305727594521580E+00   0.459538881093235E-01   0.254244E-01   0.538742E+00   0.834122E+02   0.109101E-14
   LPB:    6  -0.305625570369873E+00   0.209056785023545E-01   0.314715E-01   0.643366E+00   0.167734E+03   0.109886E-14
  Finished solving LPB equations
  A_corr:   -0.223425270887070     
 End minimization
 Ecorr=   2942.21105736394     
 A_corr= -0.223425270887070     
 Ecorr_band=  -2942.43448263483     
 End Solvation calculations
RMM:  26    -0.245232919949E+03   -0.72142E-03   -0.88158E-04  4820   0.362E-02    0.250E-01
 Begin Solvation calculations
  rms_SCF =   0.336704625137194      tol =   3.367046251371937E-002
 Begin minimization
 Creating dielectric and ionic cavities
  area:      156.648645915522     
  volume:    764.823989556083     
  Acav:     8.224053910564900E-002
  Solving linear dielectric/ionic screening model
        iter                  A_solv                     rms
   LPB:       -0.309494980206062E+00   0.472663232666731E+00
   LPB:    0  -0.309485983409429E+00   0.473649295630790E+00   0.707040E-03   0.000000E+00   0.359940E+02   0.254492E-01
   LPB:    1  -0.307397950864100E+00   0.989606997635468E-01   0.135520E-01   0.000000E+00   0.101356E+03   0.154064E-19
   LPB:    2  -0.307183770535946E+00   0.548672106840539E-01   0.134903E-01   0.103044E+00   0.271189E+03  -0.209600E-16
   LPB:    3  -0.307124874866807E+00   0.226225644963614E-01   0.182988E-01   0.202723E+00   0.121979E+03   0.579351E-16
   LPB:    4  -0.307070017242332E+00   0.379093180898625E-01   0.410647E-01   0.415057E+00   0.190169E+03   0.197503E-15
   LPB:    5  -0.306998709173597E+00   0.424608219373999E-01   0.371926E-01   0.143521E+01   0.572060E+02   0.327336E-15
   LPB:    6  -0.306939806070203E+00   0.159064326659373E-01   0.274002E-01   0.112125E+01   0.988290E+02   0.685213E-15
  Finished solving LPB equations
  A_corr:   -0.224699266964554     
 End minimization
 Ecorr=   2941.94664611759     
 A_corr= -0.224699266964554     
 Ecorr_band=  -2942.17134538456     
 End Solvation calculations
RMM:  27    -0.245233592441E+03   -0.67249E-03   -0.24619E-04  4629   0.223E-02    0.318E-01
 Begin Solvation calculations
  rms_SCF =   0.336704625137194      tol =   3.367046251371937E-002
 Begin minimization
 Creating dielectric and ionic cavities
  area:      156.734104299912     
  volume:    764.761105327456     
  Acav:     8.228540475745397E-002
  Solving linear dielectric/ionic screening model
        iter                  A_solv                     rms
   LPB:       -0.313444320606419E+00   0.729544769528613E+00
   LPB:    0  -0.313439807462400E+00   0.730785706702545E+00   0.500751E-03   0.000000E+00   0.359969E+02   0.180255E-01
   LPB:    1  -0.309501569161572E+00   0.153657676674105E+00   0.129813E-01   0.000000E+00   0.875047E+02   0.412178E-18
   LPB:    2  -0.309091929073567E+00   0.600501703197746E-01   0.123858E-01   0.109017E+00   0.288760E+03  -0.114633E-15
   LPB:    3  -0.309013413631985E+00   0.167115988445438E-01   0.168144E-01   0.141187E+00   0.162362E+03   0.574364E-16
   LPB:    4  -0.308988841543904E+00   0.201302960977776E-01   0.254315E-01   0.206917E+00   0.291433E+03   0.253960E-16
  Finished solving LPB equations
  A_corr:   -0.226703436786450     
 End minimization
 Ecorr=   2941.44529649900     
 A_corr= -0.226703436786450     
 Ecorr_band=  -2941.67199993579     
 End Solvation calculations
RMM:  28    -0.245233456040E+03    0.13640E-03   -0.29704E-04  4538   0.200E-02    0.152E-01
 Begin Solvation calculations
  rms_SCF =   0.195051408892402      tol =   1.950514088924022E-002
 Begin minimization
 Creating dielectric and ionic cavities
  area:      156.832592754976     
  volume:    764.841956758552     
  Acav:     8.233711119636243E-002
  Solving linear dielectric/ionic screening model
        iter                  A_solv                     rms
   LPB:       -0.321179705886697E+00   0.108778599899190E+01
   LPB:    0  -0.321179705166118E+00   0.108780309786015E+01   0.632770E-05   0.000000E+00   0.359931E+02   0.227754E-03
   LPB:    1  -0.313054531667234E+00   0.220931212773405E+00   0.129059E-01   0.000000E+00   0.824392E+02  -0.249903E-20
   LPB:    2  -0.312227890595368E+00   0.878738135699455E-01   0.123212E-01   0.106566E+00   0.283107E+03  -0.122054E-16
   LPB:    3  -0.312031192808455E+00   0.270653877374718E-01   0.189185E-01   0.154971E+00   0.144974E+03  -0.884172E-16
   LPB:    4  -0.311950909554047E+00   0.320324692107015E-01   0.273684E-01   0.282139E+00   0.291248E+03  -0.765106E-16
   LPB:    5  -0.311907119322211E+00   0.291465184343154E-01   0.275462E-01   0.541926E+00   0.936342E+02  -0.655989E-16
   LPB:    6  -0.311873149357505E+00   0.165412653429919E-01   0.296138E-01   0.721581E+00   0.134937E+03  -0.212441E-15
  Finished solving LPB equations
  A_corr:   -0.229536038161143     
 End minimization
 Ecorr=   2941.24147487677     
 A_corr= -0.229536038161143     
 Ecorr_band=  -2941.47101091493     
 End Solvation calculations
RMM:  29    -0.245234050449E+03   -0.59441E-03   -0.36341E-04  4558   0.228E-02    0.997E-02
 Begin Solvation calculations
  rms_SCF =   5.941983385963114E-002 tol =   5.941983385963114E-003
 Begin minimization
 Creating dielectric and ionic cavities
  area:      156.848569243345     
  volume:    765.061566453897     
  Acav:     8.234549885275635E-002
  Solving linear dielectric/ionic screening model
        iter                  A_solv                     rms
   LPB:       -0.314799950109267E+00   0.526875279163652E+00
   LPB:    0  -0.314788987668610E+00   0.525028305502957E+00  -0.780586E-03   0.000000E+00   0.359828E+02  -0.280877E-01
   LPB:    1  -0.313077700723963E+00   0.974702132212291E-01   0.124848E-01   0.000000E+00   0.796536E+02  -0.332619E-19
   LPB:    2  -0.312922419342444E+00   0.375376287778169E-01   0.119347E-01   0.949219E-01   0.295440E+03   0.406626E-17
   LPB:    3  -0.312889534881752E+00   0.854821255801181E-02   0.183081E-01   0.138051E+00   0.133431E+03   0.212443E-16
   LPB:    4  -0.312869655064749E+00   0.106295003235465E-01   0.419262E-01   0.263985E+00   0.204425E+03   0.273639E-17
   LPB:    5  -0.312839500532605E+00   0.172964112156639E-01   0.534277E-01   0.119031E+01   0.741043E+02  -0.783056E-17
   LPB:    6  -0.312816120273870E+00   0.192893601625973E-01   0.309396E-01   0.133890E+01   0.892688E+02   0.726727E-16
   LPB:    7  -0.312804736998682E+00   0.905431841079117E-02   0.228476E-01   0.659313E+00   0.130119E+03   0.242759E-15
   LPB:    8  -0.312797297003466E+00   0.453428958421548E-02   0.308886E-01   0.483445E+00   0.449368E+03   0.204276E-15
  Finished solving LPB equations
  A_corr:   -0.230451798150710     
 End minimization
 Ecorr=   2941.31971599294     
 A_corr= -0.230451798150710     
 Ecorr_band=  -2941.55016779109     
 End Solvation calculations
RMM:  30    -0.245234589874E+03   -0.53942E-03   -0.21514E-04  4653   0.196E-02    0.197E-01
 Begin Solvation calculations
  rms_SCF =   5.941983385963114E-002 tol =   5.941983385963114E-003
 Begin minimization
 Creating dielectric and ionic cavities
  area:      156.847410921440     
  volume:    765.399179572603     
  Acav:     8.234489073375591E-002
  Solving linear dielectric/ionic screening model
        iter                  A_solv                     rms
   LPB:       -0.316660534474632E+00   0.684470503102617E+00
   LPB:    0  -0.316617155720313E+00   0.678376361495022E+00  -0.155311E-02   0.000000E+00   0.359670E+02  -0.558606E-01
   LPB:    1  -0.314081122874179E+00   0.120455191143840E+00   0.119585E-01   0.000000E+00   0.770529E+02   0.697431E-18
   LPB:    2  -0.313852386263918E+00   0.374459027519472E-01   0.115797E-01   0.931448E-01   0.300657E+03   0.158598E-16
   LPB:    3  -0.313814790370165E+00   0.640981047439787E-02   0.179727E-01   0.105899E+00   0.150057E+03  -0.472117E-16
   LPB:    4  -0.313806241022419E+00   0.378827455440068E-02   0.247481E-01   0.165144E+00   0.469575E+03  -0.356730E-16
  Finished solving LPB equations
  A_corr:   -0.231461350288663     
 End minimization
 Ecorr=   2941.58981026957     
 A_corr= -0.231461350288663     
 Ecorr_band=  -2941.82127161986     
 End Solvation calculations
RMM:  31    -0.245234863681E+03   -0.27381E-03   -0.15317E-04  4585   0.158E-02    0.158E-01
 Begin Solvation calculations
  rms_SCF =   5.941983385963114E-002 tol =   5.941983385963114E-003
 Begin minimization
 Creating dielectric and ionic cavities
  area:      156.856215477069     
  volume:    765.522921723811     
  Acav:     8.234951312546122E-002
  Solving linear dielectric/ionic screening model
        iter                  A_solv                     rms
   LPB:       -0.315471440702617E+00   0.397313698572368E+00
   LPB:    0  -0.315460527373557E+00   0.393579377932563E+00  -0.779070E-03   0.000000E+00   0.359612E+02  -0.280163E-01
   LPB:    1  -0.314668449497648E+00   0.697651648620077E-01   0.117679E-01   0.000000E+00   0.737522E+02   0.874790E-18
   LPB:    2  -0.314588281885379E+00   0.213494727640968E-01   0.118609E-01   0.100418E+00   0.283666E+03  -0.363393E-16
   LPB:    3  -0.314572818252767E+00   0.514834226257505E-02   0.204472E-01   0.111891E+00   0.137346E+03  -0.304585E-16
   LPB:    4  -0.314566224314008E+00   0.460000774998479E-02   0.314586E-01   0.277159E+00   0.230071E+03  -0.194579E-16
  Finished solving LPB equations
  A_corr:   -0.232216711188547     
 End minimization
 Ecorr=   2941.52040631359     
 A_corr= -0.232216711188547     
 Ecorr_band=  -2941.75262302478     
 End Solvation calculations
RMM:  32    -0.245234872633E+03   -0.89527E-05   -0.74502E-05  4091   0.993E-03
 Begin Solvation calculations
  rms_SCF =   5.941983385963114E-002 tol =   5.941983385963114E-003
 Begin minimization
 Creating dielectric and ionic cavities
  area:      156.885073279373     
  volume:    765.595044001713     
  Acav:     8.236466347167086E-002
  Solving linear dielectric/ionic screening model
        iter                  A_solv                     rms
   LPB:       -0.317603561987206E+00   0.540482485483797E+00
   LPB:    0  -0.317592208073652E+00   0.536292244808312E+00  -0.794678E-03   0.000000E+00   0.359578E+02  -0.285749E-01
   LPB:    1  -0.316151585077052E+00   0.961663814452178E-01   0.117256E-01   0.000000E+00   0.726731E+02  -0.179260E-17
   LPB:    2  -0.315994589457557E+00   0.277969166688876E-01   0.120375E-01   0.106154E+00   0.280412E+03  -0.237274E-15
   LPB:    3  -0.315966588712872E+00   0.728400657464698E-02   0.199007E-01   0.107882E+00   0.156586E+03  -0.248026E-15
   LPB:    4  -0.315955148611484E+00   0.804371464264093E-02   0.309346E-01   0.262835E+00   0.213124E+03  -0.230735E-15
   LPB:    5  -0.315948263290508E+00   0.102575756852758E-01   0.325359E-01   0.572237E+00   0.142031E+03  -0.208310E-15
   LPB:    6  -0.315943410799264E+00   0.871669126682888E-02   0.292588E-01   0.783696E+00   0.971063E+02  -0.269350E-15
   LPB:    7  -0.315939117371511E+00   0.438483226357874E-02   0.313504E-01   0.825758E+00   0.164817E+03  -0.187871E-15
  Finished solving LPB equations
  A_corr:   -0.233574453899840     
 End minimization
 Ecorr=   2941.18610288729     
 A_corr= -0.233574453899840     
 Ecorr_band=  -2941.41967734119     
 End Solvation calculations
   1 F= -.24523487E+03 E0= -.24523017E+03  d E =-.245235E+03
quench:  g(F)=  0.000E+00 g(S)=  0.000E+00 dE (1.order)= 0.000E+00
 bond charge predicted
       N       E                     dE             d eps       ncg     rms          rms(c)
 Begin Solvation calculations
  rms_SCF =   5.941983385963114E-002 tol =   5.941983385963114E-003
 Begin minimization
 Creating dielectric and ionic cavities
  area:      156.952124950116     
  volume:    765.632244313285     
  Acav:     8.239986559881107E-002
  Solving linear dielectric/ionic screening model
        iter                  A_solv                     rms
   LPB:       -0.318914779117251E+00   0.775040816649947E-02
   LPB:    0  -0.318914778980455E+00   0.782763027421585E-02   0.275844E-05   0.000000E+00   0.359561E+02   0.991828E-04
   LPB:    1  -0.316273006892569E+00   0.453190528600919E-02   0.159112E-01   0.000000E+00   0.265829E+06   0.261248E-20
   LPB:    2  -0.315997822858935E+00   0.681223314860547E-02   0.276321E-01   0.599817E-01   0.277678E+05   0.667646E-16
   LPB:    3  -0.315904306555938E+00   0.126736112802382E-01   0.324618E-01   0.289271E+00   0.362599E+04   0.893816E-16
   LPB:    4  -0.315865272716023E+00   0.218867222051334E-01   0.317575E-01   0.426659E+00   0.497343E+03   0.646675E-16
   LPB:    5  -0.315847195945430E+00   0.175212155038082E-01   0.237295E-01   0.619780E+00   0.179889E+03   0.195165E-15
   LPB:    6  -0.315834121842875E+00   0.678498810423029E-02   0.275984E-01   0.621864E+00   0.379494E+03   0.161808E-15
   LPB:    7  -0.315826029562541E+00   0.109756839401917E-01   0.340940E-01   0.501031E+00   0.990546E+03   0.279023E-15
   LPB:    8  -0.315822127118370E+00   0.128882570484029E-01   0.231460E-01   0.710342E+00   0.165779E+03   0.331959E-15
   LPB:    9  -0.315818599364134E+00   0.423525979450138E-02   0.237286E-01   0.881792E+00   0.414677E+03   0.366654E-15
  Finished solving LPB equations
  A_corr:   -0.233418733765323     
 End minimization
 Ecorr=   2941.11973303925     
 A_corr= -0.233418733765323     
 Ecorr_band=  -2941.35315177302     
 End Solvation calculations
DAV:   1    -0.245236879012E+03   -0.20153E-02   -0.28182E-01  5592   0.944E-01    0.356E-01
 Begin Solvation calculations
  rms_SCF =   5.941983385963114E-002 tol =   5.941983385963114E-003
 Begin minimization
 Creating dielectric and ionic cavities
  area:      156.848564201472     
  volume:    765.473903502028     
  Acav:     8.234549620577268E-002
  Solving linear dielectric/ionic screening model
        iter                  A_solv                     rms
   LPB:       -0.349052776428708E+00   0.290832407044950E+01
   LPB:    0  -0.348755084416924E+00   0.289044294560991E+01  -0.406881E-02   0.000000E+00   0.359635E+02  -0.146329E+00
   LPB:    1  -0.322666262336855E+00   0.294646472062210E+00   0.888009E-02   0.000000E+00   0.790081E+02   0.180899E-17
   LPB:    2  -0.320217605994092E+00   0.453947382727830E-01   0.162602E-01   0.512583E-01   0.139482E+03   0.511703E-15
   LPB:    3  -0.319937023037219E+00   0.184524780111274E-01   0.220565E-01   0.844740E-01   0.319020E+03   0.704053E-15
   LPB:    4  -0.319855522007362E+00   0.117115919405194E-01   0.269929E-01   0.237350E+00   0.363433E+03   0.727994E-15
   LPB:    5  -0.319824821937599E+00   0.121520076474699E-01   0.288639E-01   0.352266E+00   0.324308E+03   0.743876E-15
   LPB:    6  -0.319810947384243E+00   0.129891650489021E-01   0.287866E-01   0.453153E+00   0.183526E+03   0.746619E-15
   LPB:    7  -0.319804148604201E+00   0.920988157656103E-02   0.248238E-01   0.568244E+00   0.168331E+03   0.798159E-15
   LPB:    8  -0.319799574714603E+00   0.362574603255871E-02   0.275517E-01   0.606141E+00   0.224143E+03   0.717983E-15
  Finished solving LPB equations
  A_corr:   -0.237454078508831     
 End minimization
 Ecorr=   2940.48392157813     
 A_corr= -0.237454078508831     
 Ecorr_band=  -2940.72137565664     
 End Solvation calculations
RMM:   2    -0.245385214241E+03   -0.14834E+00   -0.40945E-02  5454   0.316E-01    0.431E+00
 Begin Solvation calculations
  rms_SCF =   5.941983385963114E-002 tol =   5.941983385963114E-003
 Begin minimization
 Creating dielectric and ionic cavities
  area:      156.940167672817     
  volume:    765.547334162034     
  Acav:     8.239358802822903E-002
  Solving linear dielectric/ionic screening model
        iter                  A_solv                     rms
   LPB:       -0.342308026679626E+00   0.268685564921062E+01
   LPB:    0  -0.342231513140242E+00   0.268149662889287E+01   0.206288E-02   0.000000E+00   0.359601E+02   0.741813E-01
   LPB:    1  -0.319951076188388E+00   0.260550662316831E+00   0.881675E-02   0.000000E+00   0.796449E+02  -0.511446E-17
   LPB:    2  -0.318056928704648E+00   0.382293123602699E-01   0.160009E-01   0.468440E-01   0.143828E+03   0.153483E-15
   LPB:    3  -0.317843673111573E+00   0.146351689145337E-01   0.224015E-01   0.804181E-01   0.319707E+03   0.312991E-16
   LPB:    4  -0.317785340672365E+00   0.893408036928427E-02   0.271921E-01   0.225343E+00   0.425684E+03   0.116570E-15
   LPB:    5  -0.317764768453212E+00   0.767593431932440E-02   0.275297E-01   0.348346E+00   0.419009E+03   0.134122E-15
   LPB:    6  -0.317756507788230E+00   0.811023042310436E-02   0.284484E-01   0.388578E+00   0.330474E+03   0.200358E-15
   LPB:    7  -0.317753113330424E+00   0.690227244699833E-02   0.252686E-01   0.462628E+00   0.179987E+03   0.277408E-15
   LPB:    8  -0.317751185216506E+00   0.316141579136355E-02   0.243749E-01   0.588844E+00   0.298773E+03   0.272327E-15
  Finished solving LPB equations
  A_corr:   -0.235357597188277     
 End minimization
 Ecorr=   2940.76184124612     
 A_corr= -0.235357597188277     
 Ecorr_band=  -2940.99719884331     
 End Solvation calculations
RMM:   3    -0.245238467180E+03    0.14675E+00   -0.17614E-02  5440   0.210E-01    0.188E-01
 Begin Solvation calculations
  rms_SCF =   5.941983385963114E-002 tol =   5.941983385963114E-003
 Begin minimization
 Creating dielectric and ionic cavities
  area:      156.942773444143     
  volume:    765.484271812293     
  Acav:     8.239495605817497E-002
  Solving linear dielectric/ionic screening model
        iter                  A_solv                     rms
   LPB:       -0.318424485662415E+00   0.150158340659409E+00
   LPB:    0  -0.318376364778420E+00   0.854608654360162E-01  -0.163589E-02   0.000000E+00   0.359630E+02  -0.588315E-01
   LPB:    1  -0.318330896274303E+00   0.176162364266100E-01   0.109977E-01   0.000000E+00   0.791402E+02   0.233340E-17
   LPB:    2  -0.318325046973901E+00   0.606748996468119E-02   0.142525E-01   0.992663E-01   0.225252E+03   0.103284E-15
   LPB:    3  -0.318323360341843E+00   0.585053735292416E-02   0.225652E-01   0.182125E+00   0.292456E+03   0.134008E-15
   LPB:    4  -0.318322401723253E+00   0.311085744361045E-02   0.233738E-01   0.548700E+00   0.126941E+03   0.162858E-15
  Finished solving LPB equations
  A_corr:   -0.235927445665078     
 End minimization
 Ecorr=   2940.90007863324     
 A_corr= -0.235927445665078     
 Ecorr_band=  -2941.13600607890     
 End Solvation calculations
RMM:   4    -0.245238228404E+03    0.23878E-03   -0.16894E-03  5425   0.690E-02    0.319E-01
 Begin Solvation calculations
  rms_SCF =   5.941983385963114E-002 tol =   5.941983385963114E-003
 Begin minimization
 Creating dielectric and ionic cavities
  area:      156.931555000014     
  volume:    765.538934309613     
  Acav:     8.238906637500738E-002
  Solving linear dielectric/ionic screening model
        iter                  A_solv                     rms
   LPB:       -0.318991227702152E+00   0.491658241124668E-01
   LPB:    0  -0.318988746380265E+00   0.435105568115546E-01   0.371487E-03   0.000000E+00   0.359604E+02   0.133589E-01
   LPB:    1  -0.318956184311951E+00   0.207361914012789E-01   0.130136E-01   0.000000E+00   0.202016E+03  -0.926701E-18
   LPB:    2  -0.318950980359734E+00   0.658818402362713E-02   0.148330E-01   0.140213E+00   0.101032E+03  -0.125879E-19
   LPB:    3  -0.318949378477805E+00   0.623428033729115E-02   0.220538E-01   0.207034E+00   0.138353E+03  -0.811134E-16
   LPB:    4  -0.318948418973412E+00   0.397937017050276E-02   0.229145E-01   0.576486E+00   0.265946E+03  -0.102333E-15
  Finished solving LPB equations
  A_corr:   -0.236559352598404     
 End minimization
 Ecorr=   2940.43944478825     
 A_corr= -0.236559352598404     
 Ecorr_band=  -2940.67600414085     
 End Solvation calculations
RMM:   5    -0.245237782237E+03    0.44617E-03   -0.74240E-04  5393   0.437E-02    0.218E-01
 Begin Solvation calculations
  rms_SCF =   5.941983385963114E-002 tol =   5.941983385963114E-003
 Begin minimization
 Creating dielectric and ionic cavities
  area:      156.925926719269     
  volume:    765.517744897097     
  Acav:     8.238611152761618E-002
  Solving linear dielectric/ionic screening model
        iter                  A_solv                     rms
   LPB:       -0.320448136028604E+00   0.186985768166807E+00
   LPB:    0  -0.320414316500888E+00   0.152418475742816E+00  -0.137145E-02   0.000000E+00   0.359614E+02  -0.493193E-01
   LPB:    1  -0.320267503832444E+00   0.424384799356332E-01   0.118425E-01   0.000000E+00   0.824066E+02  -0.378160E-17
   LPB:    2  -0.320239765995490E+00   0.789849696976969E-02   0.137603E-01   0.162602E+00   0.198442E+03  -0.220177E-15
   LPB:    3  -0.320233975676336E+00   0.528062073547521E-02   0.241615E-01   0.118887E+00   0.359641E+03  -0.284691E-15
   LPB:    4  -0.320231344313722E+00   0.352325167911627E-02   0.278517E-01   0.394232E+00   0.148429E+03  -0.296192E-15
  Finished solving LPB equations
  A_corr:   -0.237845232786106     
 End minimization
 Ecorr=   2940.12584607625     
 A_corr= -0.237845232786106     
 Ecorr_band=  -2940.36369130903     
 End Solvation calculations
RMM:   6    -0.245237722271E+03    0.59966E-04   -0.35511E-04  5044   0.303E-02    0.184E-01
 Begin Solvation calculations
  rms_SCF =   5.941983385963114E-002 tol =   5.941983385963114E-003
 Begin minimization
 Creating dielectric and ionic cavities
  area:      156.928522730307     
  volume:    765.511047256222     
  Acav:     8.238747443341143E-002
  Solving linear dielectric/ionic screening model
        iter                  A_solv                     rms
   LPB:       -0.321270303749811E+00   0.122373447915214E+00
   LPB:    0  -0.321252271352283E+00   0.941086215506580E-01  -0.100143E-02   0.000000E+00   0.359618E+02  -0.360132E-01
   LPB:    1  -0.321184679449688E+00   0.307694414941368E-01   0.128748E-01   0.000000E+00   0.819475E+02  -0.267629E-17
   LPB:    2  -0.321172441974069E+00   0.644965971279585E-02   0.131451E-01   0.177327E+00   0.192350E+03  -0.234926E-15
   LPB:    3  -0.321168597270890E+00   0.474873956000587E-02   0.284500E-01   0.145162E+00   0.270090E+03  -0.258897E-15
   LPB:    4  -0.321166257918344E+00   0.347147896615204E-02   0.312286E-01   0.554322E+00   0.112682E+03  -0.256880E-15
  Finished solving LPB equations
  A_corr:   -0.238778783484933     
 End minimization
 Ecorr=   2939.82197765956     
 A_corr= -0.238778783484933     
 Ecorr_band=  -2940.06075644304     
 End Solvation calculations
RMM:   7    -0.245237517283E+03    0.20499E-03   -0.20651E-04  4817   0.236E-02    0.786E-02
 Begin Solvation calculations
  rms_SCF =   5.941983385963114E-002 tol =   5.941983385963114E-003
 Begin minimization
 Creating dielectric and ionic cavities
  area:      156.931992053434     
  volume:    765.528783143528     
  Acav:     8.238929582805297E-002
  Solving linear dielectric/ionic screening model
        iter                  A_solv                     rms
   LPB:       -0.321858524178346E+00   0.682770527903639E-01
   LPB:    0  -0.321854871311684E+00   0.574165576364217E-01  -0.450730E-03   0.000000E+00   0.359609E+02  -0.162087E-01
   LPB:    1  -0.321822735783143E+00   0.212343940517123E-01   0.136357E-01   0.000000E+00   0.955234E+02  -0.969703E-18
   LPB:    2  -0.321817898064662E+00   0.499908244432517E-02   0.124467E-01   0.164922E+00   0.163024E+03  -0.138405E-15
   LPB:    3  -0.321816016706715E+00   0.265741193721667E-02   0.303272E-01   0.159607E+00   0.164609E+03  -0.160538E-15
   LPB:    4  -0.321814414065583E+00   0.249737353442935E-02   0.370280E-01   0.697698E+00   0.149601E+03  -0.168510E-15
  Finished solving LPB equations
  A_corr:   -0.239425118237530     
 End minimization
 Ecorr=   2939.48776197148     
 A_corr= -0.239425118237530     
 Ecorr_band=  -2939.72718708972     
 End Solvation calculations
RMM:   8    -0.245237558030E+03   -0.40747E-04   -0.10503E-04  4600   0.164E-02    0.817E-02
 Begin Solvation calculations
  rms_SCF =   2.702760632129001E-002 tol =   2.702760632129001E-003
 Begin minimization
 Creating dielectric and ionic cavities
  area:      156.944273055375     
  volume:    765.540074631102     
  Acav:     8.239574335407189E-002
  Solving linear dielectric/ionic screening model
        iter                  A_solv                     rms
   LPB:       -0.322856465444390E+00   0.107616909615506E+00
   LPB:    0  -0.322839331568130E+00   0.712888998815752E-01  -0.976182E-03   0.000000E+00   0.359604E+02  -0.351039E-01
   LPB:    1  -0.322776720714388E+00   0.213301378362224E-01   0.147845E-01   0.000000E+00   0.869130E+02  -0.118298E-17
   LPB:    2  -0.322770593675406E+00   0.894487872531816E-02   0.124524E-01   0.116186E+00   0.226398E+03  -0.256107E-16
   LPB:    3  -0.322768403040018E+00   0.493758450898519E-02   0.221677E-01   0.200841E+00   0.164005E+03  -0.285618E-16
   LPB:    4  -0.322766874872538E+00   0.359885297061624E-02   0.324982E-01   0.475841E+00   0.765041E+02  -0.399401E-16
   LPB:    5  -0.322765710547269E+00   0.413735725769936E-02   0.321827E-01   0.769378E+00   0.238408E+03  -0.667623E-16
   LPB:    6  -0.322764840475659E+00   0.261441671196240E-02   0.278231E-01   0.864365E+00   0.753725E+02  -0.496843E-16
  Finished solving LPB equations
  A_corr:   -0.240369097121587     
 End minimization
 Ecorr=   2938.95068857484     
 A_corr= -0.240369097121587     
 Ecorr_band=  -2939.19105767196     
 End Solvation calculations
RMM:   9    -0.245237573794E+03   -0.15764E-04   -0.49881E-05  4361   0.118E-02    0.457E-02
 Begin Solvation calculations
  rms_SCF =   2.702760632129001E-002 tol =   2.702760632129001E-003
 Begin minimization
 Creating dielectric and ionic cavities
  area:      156.950150757095     
  volume:    765.544413594774     
  Acav:     8.239882914747489E-002
  Solving linear dielectric/ionic screening model
        iter                  A_solv                     rms
   LPB:       -0.323057530158954E+00   0.279212337381008E-01
   LPB:    0  -0.323056010655707E+00   0.157529997121153E-01  -0.290707E-03   0.000000E+00   0.359602E+02  -0.104539E-01
   LPB:    1  -0.323051300042943E+00   0.711888341883952E-02   0.142311E-01   0.000000E+00   0.130569E+03  -0.440801E-18
   LPB:    2  -0.323050755691553E+00   0.281318941640020E-02   0.139021E-01   0.118294E+00   0.113624E+03  -0.634492E-16
   LPB:    3  -0.323050510504449E+00   0.125332479465960E-02   0.222716E-01   0.281156E+00   0.347243E+03  -0.716492E-16
   LPB:    4  -0.323050088440161E+00   0.148640188005364E-02   0.623870E-01   0.614522E+00   0.882919E+02  -0.757315E-16
  Finished solving LPB equations
  A_corr:   -0.240651259292686     
 End minimization
 Ecorr=   2938.81796560178     
 A_corr= -0.240651259292686     
 Ecorr_band=  -2939.05861686107     
 End Solvation calculations
RMM:  10    -0.245237570630E+03    0.31641E-05   -0.13829E-05  3011   0.662E-03
 Begin Solvation calculations
  rms_SCF =   2.702760632129001E-002 tol =   2.702760632129001E-003
 Begin minimization
 Creating dielectric and ionic cavities
  area:      156.959109083597     
  volume:    765.555967767859     
  Acav:     8.240353226888819E-002
  Solving linear dielectric/ionic screening model
        iter                  A_solv                     rms
   LPB:       -0.323476414579307E+00   0.395136558364755E-01
   LPB:    0  -0.323473838723015E+00   0.234287740985321E-01  -0.378502E-03   0.000000E+00   0.359596E+02  -0.136108E-01
   LPB:    1  -0.323463353057074E+00   0.952027891014305E-02   0.144442E-01   0.000000E+00   0.124308E+03   0.574505E-18
   LPB:    2  -0.323462558637813E+00   0.321309931370981E-02   0.127336E-01   0.859399E-01   0.109280E+03  -0.147845E-15
   LPB:    3  -0.323462205539544E+00   0.164993698609173E-02   0.230146E-01   0.245919E+00   0.226742E+03  -0.153550E-15
   LPB:    4  -0.323461877863987E+00   0.157446997857061E-02   0.385719E-01   0.553710E+00   0.605358E+02  -0.147503E-15
  Finished solving LPB equations
  A_corr:   -0.241058345595098     
 End minimization
 Ecorr=   2938.61013818494     
 A_corr= -0.241058345595098     
 Ecorr_band=  -2938.85119653053     
 End Solvation calculations
   2 F= -.24523757E+03 E0= -.24523274E+03  d E =-.269800E-02
quench:  g(F)=  0.000E+00 g(S)=  0.000E+00 dE (1.order)= 0.000E+00
 bond charge predicted
       N       E                     dE             d eps       ncg     rms          rms(c)
 Begin Solvation calculations
  rms_SCF =   2.702760632129001E-002 tol =   2.702760632129001E-003
 Begin minimization
 Creating dielectric and ionic cavities
  area:      156.957742887702     
  volume:    765.553411366403     
  Acav:     8.240281501604330E-002
  Solving linear dielectric/ionic screening model
        iter                  A_solv                     rms
   LPB:       -0.323834597528576E+00   0.256369656039725E-02
   LPB:    0  -0.323834597518221E+00   0.258187315169665E-02  -0.758894E-06   0.000000E+00   0.359598E+02  -0.272897E-04
   LPB:    1  -0.323531595451928E+00   0.172638071694970E-02   0.162612E-01   0.000000E+00   0.285426E+06  -0.189281E-20
   LPB:    2  -0.323494549111325E+00   0.235512138599382E-02   0.279659E-01   0.710925E-01   0.257684E+05  -0.243787E-17
   LPB:    3  -0.323482189993693E+00   0.536378877082327E-02   0.325487E-01   0.286641E+00   0.476341E+04  -0.544319E-17
   LPB:    4  -0.323477162366163E+00   0.982676943839486E-02   0.306796E-01   0.431578E+00   0.384801E+03  -0.537810E-17
   LPB:    5  -0.323474895282967E+00   0.761743452514015E-02   0.203935E-01   0.678363E+00   0.205275E+03  -0.101474E-17
   LPB:    6  -0.323473136702921E+00   0.459818692228070E-02   0.256306E-01   0.617203E+00   0.392148E+03  -0.157896E-16
   LPB:    7  -0.323472155454484E+00   0.501600039339678E-02   0.262770E-01   0.544250E+00   0.185898E+03  -0.120897E-16
   LPB:    8  -0.323471471428732E+00   0.221226963809551E-02   0.238593E-01   0.767735E+00   0.302410E+03  -0.625223E-17
  Finished solving LPB equations
  A_corr:   -0.241068656412689     
 End minimization
 Ecorr=   2938.53760944885     
 A_corr= -0.241068656412689     
 Ecorr_band=  -2938.77867810527     
 End Solvation calculations
DAV:   1    -0.245237844253E+03   -0.27046E-03   -0.43240E-02  5538   0.545E-01    0.771E-02
 Begin Solvation calculations
  rms_SCF =   1.381016401609329E-002 tol =   1.381016401609329E-003
 Begin minimization
 Creating dielectric and ionic cavities
  area:      156.967198584610     
  volume:    765.558606196192     
  Acav:     8.240777925692028E-002
  Solving linear dielectric/ionic screening model
        iter                  A_solv                     rms
   LPB:       -0.324339718770057E+00   0.909893251794635E-01
   LPB:    0  -0.324326093704812E+00   0.546463173705490E-01  -0.870517E-03   0.000000E+00   0.359595E+02  -0.313034E-01
   LPB:    1  -0.324297210809092E+00   0.126041271724427E-01   0.138706E-01   0.000000E+00   0.700825E+02  -0.153024E-17
   LPB:    2  -0.324293682944163E+00   0.672885934296097E-02   0.144723E-01   0.117066E+00   0.296596E+03   0.115828E-15
   LPB:    3  -0.324292628365604E+00   0.408900726930940E-02   0.188804E-01   0.229135E+00   0.166476E+03   0.108358E-15
   LPB:    4  -0.324292091058268E+00   0.269187814113590E-02   0.248714E-01   0.386773E+00   0.116994E+03   0.105906E-15
   LPB:    5  -0.324291746479196E+00   0.189020801815716E-02   0.263162E-01   0.606097E+00   0.358252E+03   0.104380E-15
   LPB:    6  -0.324291437783911E+00   0.913639101616803E-03   0.331204E-01   0.711820E+00   0.142208E+03   0.981151E-16
  Finished solving LPB equations
  A_corr:   -0.241883658526990     
 End minimization
 Ecorr=   2938.27114195250     
 A_corr= -0.241883658526990     
 Ecorr_band=  -2938.51302561102     
 End Solvation calculations
RMM:   2    -0.245238449770E+03   -0.60552E-03   -0.33704E-03  5258   0.110E-01    0.187E-01
 Begin Solvation calculations
  rms_SCF =   1.381016401609329E-002 tol =   1.381016401609329E-003
 Begin minimization
 Creating dielectric and ionic cavities
  area:      156.970248882200     
  volume:    765.570850176228     
  Acav:     8.240938066315492E-002
  Solving linear dielectric/ionic screening model
        iter                  A_solv                     rms
   LPB:       -0.324272272060116E+00   0.144139318642173E+00
   LPB:    0  -0.324271608254673E+00   0.143389782176169E+00   0.192146E-03   0.000000E+00   0.359589E+02   0.690938E-02
   LPB:    1  -0.324207539656637E+00   0.137626785663493E-01   0.881632E-02   0.000000E+00   0.800504E+02   0.438842E-18
   LPB:    2  -0.324201990741014E+00   0.196932349914374E-02   0.162027E-01   0.471261E-01   0.147162E+03  -0.518325E-17
   LPB:    3  -0.324201226539878E+00   0.101549276149662E-02   0.244338E-01   0.913265E-01   0.367474E+03  -0.657465E-17
   LPB:    4  -0.324200959572089E+00   0.146542056081335E-02   0.283702E-01   0.300870E+00   0.479372E+03  -0.371328E-17
   LPB:    5  -0.324200826685032E+00   0.141785476207566E-02   0.280775E-01   0.502953E+00   0.130952E+03   0.157762E-18
   LPB:    6  -0.324200717794136E+00   0.125068755586595E-02   0.312195E-01   0.736958E+00   0.425017E+03   0.227329E-17
  Finished solving LPB equations
  A_corr:   -0.241791337130981     
 End minimization
 Ecorr=   2938.21369623062     
 A_corr= -0.241791337130981     
 Ecorr_band=  -2938.45548756775     
 End Solvation calculations
RMM:   3    -0.245238242521E+03    0.20725E-03   -0.16113E-04  4768   0.222E-02    0.149E-01
 Begin Solvation calculations
  rms_SCF =   1.381016401609329E-002 tol =   1.381016401609329E-003
 Begin minimization
 Creating dielectric and ionic cavities
  area:      156.968948954136     
  volume:    765.582035751502     
  Acav:     8.240869820092166E-002
  Solving linear dielectric/ionic screening model
        iter                  A_solv                     rms
   LPB:       -0.324375768503469E+00   0.101988626879987E+00
   LPB:    0  -0.324375765567998E+00   0.101954602342094E+00  -0.127777E-04   0.000000E+00   0.359584E+02  -0.459467E-03
   LPB:    1  -0.324342934050252E+00   0.107456189790529E-01   0.895079E-02   0.000000E+00   0.786449E+02  -0.141537E-19
   LPB:    2  -0.324339735170796E+00   0.184465864065332E-02   0.160708E-01   0.542663E-01   0.139139E+03   0.102785E-16
   LPB:    3  -0.324339304724005E+00   0.772491660506312E-03   0.236047E-01   0.916141E-01   0.225560E+03   0.159183E-16
   LPB:    4  -0.324339148378557E+00   0.660418649901874E-03   0.284760E-01   0.301082E+00   0.369905E+03   0.308075E-16
  Finished solving LPB equations
  A_corr:   -0.241930450177636     
 End minimization
 Ecorr=   2938.08192809590     
 A_corr= -0.241930450177636     
 Ecorr_band=  -2938.32385854607     
 End Solvation calculations
RMM:   4    -0.245238141436E+03    0.10108E-03   -0.83842E-05  4588   0.152E-02    0.791E-02
 Begin Solvation calculations
  rms_SCF =   1.381016401609329E-002 tol =   1.381016401609329E-003
 Begin minimization
 Creating dielectric and ionic cavities
  area:      156.979850886904     
  volume:    765.595442186358     
  Acav:     8.241442171562442E-002
  Solving linear dielectric/ionic screening model
        iter                  A_solv                     rms
   LPB:       -0.324685808254543E+00   0.527133538107233E-01
   LPB:    0  -0.324683612516422E+00   0.425825830114853E-01  -0.349469E-03   0.000000E+00   0.359578E+02  -0.125661E-01
   LPB:    1  -0.324672773723337E+00   0.100888230215600E-01   0.103526E-01   0.000000E+00   0.948577E+02   0.745227E-18
   LPB:    2  -0.324671461168128E+00   0.178512926857076E-02   0.135534E-01   0.924987E-01   0.124023E+03   0.187945E-16
   LPB:    3  -0.324671143441300E+00   0.138870877139197E-02   0.241485E-01   0.135861E+00   0.443883E+03   0.444511E-17
   LPB:    4  -0.324671013499232E+00   0.112450610290583E-02   0.286255E-01   0.345011E+00   0.847027E+02   0.508979E-17
  Finished solving LPB equations
  A_corr:   -0.242256591783607     
 End minimization
 Ecorr=   2937.90683961692     
 A_corr= -0.242256591783607     
 Ecorr_band=  -2938.14909620870     
 End Solvation calculations
RMM:   5    -0.245238193257E+03   -0.51820E-04   -0.87979E-05  4592   0.153E-02    0.972E-02
 Begin Solvation calculations
  rms_SCF =   1.381016401609329E-002 tol =   1.381016401609329E-003
 Begin minimization
 Creating dielectric and ionic cavities
  area:      156.988598731623     
  volume:    765.598339684574     
  Acav:     8.241901433410213E-002
  Solving linear dielectric/ionic screening model
        iter                  A_solv                     rms
   LPB:       -0.325008817016672E+00   0.353268239017894E-01
   LPB:    0  -0.325006637662881E+00   0.200425046412557E-01  -0.348163E-03   0.000000E+00   0.359577E+02  -0.125191E-01
   LPB:    1  -0.325001520986129E+00   0.391864466841175E-02   0.144864E-01   0.000000E+00   0.789595E+02  -0.396733E-18
   LPB:    2  -0.325000882731795E+00   0.307094293512694E-02   0.179412E-01   0.100720E+00   0.346288E+03  -0.208358E-15
   LPB:    3  -0.325000648579519E+00   0.221638593390099E-02   0.201613E-01   0.326466E+00   0.121392E+03  -0.239015E-15
   LPB:    4  -0.325000484584305E+00   0.169247429093669E-02   0.267856E-01   0.527169E+00   0.119520E+03  -0.255442E-15
   LPB:    5  -0.325000369942041E+00   0.149184251620712E-02   0.262893E-01   0.712255E+00   0.215128E+03  -0.263057E-15
   LPB:    6  -0.325000265146834E+00   0.711783976267841E-03   0.294816E-01   0.815125E+00   0.754948E+02  -0.267500E-15
  Finished solving LPB equations
  A_corr:   -0.242581250812732     
 End minimization
 Ecorr=   2937.73441826791     
 A_corr= -0.242581250812732     
 Ecorr_band=  -2937.97699951873     
 End Solvation calculations
RMM:   6    -0.245238184275E+03    0.89815E-05   -0.68684E-05  4546   0.137E-02
 Begin Solvation calculations
  rms_SCF =   1.381016401609329E-002 tol =   1.381016401609329E-003
 Begin minimization
 Creating dielectric and ionic cavities
  area:      156.996201415527     
  volume:    765.613544071930     
  Acav:     8.242300574315141E-002
  Solving linear dielectric/ionic screening model
        iter                  A_solv                     rms
   LPB:       -0.325392801896920E+00   0.482048108858462E-01
   LPB:    0  -0.325391841102775E+00   0.429806171107645E-01  -0.231174E-03   0.000000E+00   0.359569E+02  -0.831231E-02
   LPB:    1  -0.325380613321405E+00   0.102242942103933E-01   0.116589E-01   0.000000E+00   0.803669E+02  -0.439609E-18
   LPB:    2  -0.325379028090248E+00   0.271673525224030E-02   0.131650E-01   0.125036E+00   0.168738E+03   0.107495E-15
   LPB:    3  -0.325378697856618E+00   0.877494871468205E-03   0.196017E-01   0.139912E+00   0.223331E+03   0.133471E-15
   LPB:    4  -0.325378564549724E+00   0.435691522954501E-03   0.330499E-01   0.239417E+00   0.163788E+03   0.137572E-15
  Finished solving LPB equations
  A_corr:   -0.242955558806573     
 End minimization
 Ecorr=   2937.54403970022     
 A_corr= -0.242955558806573     
 Ecorr_band=  -2937.78699525902     
 End Solvation calculations
   3 F= -.24523818E+03 E0= -.24523340E+03  d E =-.613645E-03
quench:  g(F)=  0.000E+00 g(S)=  0.000E+00 dE (1.order)= 0.000E+00
 bond charge predicted
       N       E                     dE             d eps       ncg     rms          rms(c)
 Begin Solvation calculations
  rms_SCF =   1.381016401609329E-002 tol =   1.381016401609329E-003
 Begin minimization
 Creating dielectric and ionic cavities
  area:      157.016311869831     
  volume:    765.626629360996     
  Acav:     8.243356373166111E-002
  Solving linear dielectric/ionic screening model
        iter                  A_solv                     rms
   LPB:       -0.325958704740238E+00   0.218963175396238E-02
   LPB:    0  -0.325958704737565E+00   0.219386237087986E-02   0.385536E-06   0.000000E+00   0.359563E+02   0.138625E-04
   LPB:    1  -0.325433793003040E+00   0.821247130911417E-03   0.161404E-01   0.000000E+00   0.792381E+06  -0.118114E-21
   LPB:    2  -0.325374746485683E+00   0.524634923267377E-03   0.273586E-01   0.663634E-01   0.186327E+06  -0.362226E-18
   LPB:    3  -0.325356136387021E+00   0.101608976995005E-02   0.323881E-01   0.266233E+00   0.969962E+05   0.440786E-17
   LPB:    4  -0.325348235391673E+00   0.211941000764970E-02   0.353762E-01   0.388693E+00   0.101811E+05   0.565896E-17
   LPB:    5  -0.325344455027211E+00   0.588940298257504E-02   0.355024E-01   0.476767E+00   0.193289E+04   0.116330E-16
   LPB:    6  -0.325342818584951E+00   0.859317738164500E-02   0.247612E-01   0.620658E+00   0.217491E+03   0.110494E-16
   LPB:    7  -0.325341619281228E+00   0.294070826440831E-02   0.205304E-01   0.883899E+00   0.293868E+03   0.581398E-17
   LPB:    8  -0.325340678546987E+00   0.185253184190149E-02   0.348794E-01   0.461707E+00   0.144262E+04   0.155968E-17
   LPB:    9  -0.325340124727518E+00   0.291040682697309E-02   0.334645E-01   0.613600E+00   0.289674E+03  -0.234334E-17
   LPB:   10  -0.325339785518143E+00   0.221661509072865E-02   0.254801E-01   0.804422E+00   0.248066E+03  -0.620115E-17
   LPB:   11  -0.325339498023285E+00   0.904058666668453E-03   0.316688E-01   0.681916E+00   0.313964E+03  -0.389208E-16
  Finished solving LPB equations
  A_corr:   -0.242905934291624     
 End minimization
 Ecorr=   2937.42857998158     
 A_corr= -0.242905934291624     
 Ecorr_band=  -2937.67148591587     
 End Solvation calculations
DAV:   1    -0.245237985553E+03    0.20770E-03   -0.86892E-02  5532   0.837E-01    0.124E-01
 Begin Solvation calculations
  rms_SCF =   1.381016401609329E-002 tol =   1.381016401609329E-003
 Begin minimization
 Creating dielectric and ionic cavities
  area:      157.020249611278     
  volume:    765.577641897372     
  Acav:     8.243563104592107E-002
  Solving linear dielectric/ionic screening model
        iter                  A_solv                     rms
   LPB:       -0.326812164475963E+00   0.483999422398192E+00
   LPB:    0  -0.326788733353299E+00   0.476203249771167E+00  -0.114159E-02   0.000000E+00   0.359586E+02  -0.410500E-01
   LPB:    1  -0.326062119264900E+00   0.439625510579397E-01   0.890381E-02   0.000000E+00   0.804847E+02  -0.100956E-17
   LPB:    2  -0.326002246760473E+00   0.847493033587308E-02   0.152020E-01   0.482612E-01   0.177613E+03  -0.251929E-16
   LPB:    3  -0.325994726903389E+00   0.640665233832311E-02   0.233505E-01   0.817686E-01   0.251587E+03  -0.846000E-16
   LPB:    4  -0.325992624283161E+00   0.472571157355300E-02   0.236312E-01   0.276289E+00   0.165338E+03  -0.128488E-15
   LPB:    5  -0.325991665546775E+00   0.276104194302268E-02   0.230264E-01   0.467947E+00   0.285866E+03  -0.124778E-15
   LPB:    6  -0.325991130529204E+00   0.129769711674955E-02   0.283451E-01   0.453333E+00   0.224770E+03  -0.137088E-15
  Finished solving LPB equations
  A_corr:   -0.243555499483282     
 End minimization
 Ecorr=   2937.52687387951     
 A_corr= -0.243555499483282     
 Ecorr_band=  -2937.77042937899     
 End Solvation calculations
RMM:   2    -0.245242542993E+03   -0.45574E-02   -0.84298E-03  5451   0.179E-01    0.702E-01
 Begin Solvation calculations
  rms_SCF =   1.381016401609329E-002 tol =   1.381016401609329E-003
 Begin minimization
 Creating dielectric and ionic cavities
  area:      157.009015703214     
  volume:    765.580833396654     
  Acav:     8.242973324418723E-002
  Solving linear dielectric/ionic screening model
        iter                  A_solv                     rms
   LPB:       -0.326944852634699E+00   0.432727382118351E+00
   LPB:    0  -0.326944573420239E+00   0.432568325661176E+00  -0.124619E-03   0.000000E+00   0.359585E+02  -0.448110E-02
   LPB:    1  -0.326364495999711E+00   0.420066701457316E-01   0.881623E-02   0.000000E+00   0.797417E+02  -0.444388E-18
   LPB:    2  -0.326314907116737E+00   0.665156908303695E-02   0.160622E-01   0.469220E-01   0.143904E+03   0.391697E-16
   LPB:    3  -0.326309102867257E+00   0.266135678582374E-02   0.227333E-01   0.826998E-01   0.277116E+03   0.478257E-16
   LPB:    4  -0.326307595735935E+00   0.146915932708773E-02   0.260073E-01   0.226972E+00   0.459901E+03   0.504497E-16
   LPB:    5  -0.326307108385491E+00   0.127724779562441E-02   0.266433E-01   0.315644E+00   0.443076E+03   0.476220E-16
  Finished solving LPB equations
  A_corr:   -0.243877375141304     
 End minimization
 Ecorr=   2937.37655251619     
 A_corr= -0.243877375141304     
 Ecorr_band=  -2937.62042989133     
 End Solvation calculations
RMM:   3    -0.245238672125E+03    0.38709E-02   -0.68109E-04  5425   0.454E-02    0.184E-01
 Begin Solvation calculations
  rms_SCF =   1.381016401609329E-002 tol =   1.381016401609329E-003
 Begin minimization
 Creating dielectric and ionic cavities
  area:      157.008643216612     
  volume:    765.609408193598     
  Acav:     8.242953768872119E-002
  Solving linear dielectric/ionic screening model
        iter                  A_solv                     rms
   LPB:       -0.326321160942247E+00   0.111430963145733E+00
   LPB:    0  -0.326318114061304E+00   0.107244519842528E+00   0.411671E-03   0.000000E+00   0.359571E+02   0.148025E-01
   LPB:    1  -0.326280772157569E+00   0.101189689485019E-01   0.892117E-02   0.000000E+00   0.808023E+02  -0.711125E-18
   LPB:    2  -0.326277172679446E+00   0.224611435962870E-02   0.164909E-01   0.521458E-01   0.172557E+03   0.606798E-16
   LPB:    3  -0.326276595432879E+00   0.196864759633941E-02   0.225515E-01   0.117271E+00   0.318401E+03   0.659277E-16
   LPB:    4  -0.326276435706425E+00   0.165486129918494E-02   0.206953E-01   0.301522E+00   0.238794E+03   0.692757E-16
   LPB:    5  -0.326276349400505E+00   0.662527633372197E-03   0.259508E-01   0.430908E+00   0.127455E+03   0.722859E-16
  Finished solving LPB equations
  A_corr:   -0.243846811711784     
 End minimization
 Ecorr=   2937.22944433787     
 A_corr= -0.243846811711784     
 Ecorr_band=  -2937.47329114958     
 End Solvation calculations
RMM:   4    -0.245238630856E+03    0.41269E-04   -0.38337E-04  5187   0.316E-02    0.178E-01
 Begin Solvation calculations
  rms_SCF =   1.381016401609329E-002 tol =   1.381016401609329E-003
 Begin minimization
 Creating dielectric and ionic cavities
  area:      157.011430395278     
  volume:    765.618425588982     
  Acav:     8.243100095752075E-002
  Solving linear dielectric/ionic screening model
        iter                  A_solv                     rms
   LPB:       -0.326685997943189E+00   0.630966893877541E-01
   LPB:    0  -0.326684015043234E+00   0.563877682586164E-01  -0.332105E-03   0.000000E+00   0.359567E+02  -0.119414E-01
   LPB:    1  -0.326669788782986E+00   0.109834503062939E-01   0.105180E-01   0.000000E+00   0.757459E+02   0.553413E-18
   LPB:    2  -0.326666897189529E+00   0.228934470867763E-02   0.158956E-01   0.134494E+00   0.162643E+03  -0.146876E-16
   LPB:    3  -0.326666365227592E+00   0.158130059595597E-02   0.223613E-01   0.130775E+00   0.427403E+03  -0.102341E-16
   LPB:    4  -0.326666172324050E+00   0.107911624952321E-02   0.261214E-01   0.310427E+00   0.153648E+03  -0.975559E-17
  Finished solving LPB equations
  A_corr:   -0.244235171366529     
 End minimization
 Ecorr=   2937.10171839178     
 A_corr= -0.244235171366529     
 Ecorr_band=  -2937.34595356315     
 End Solvation calculations
RMM:   5    -0.245238533402E+03    0.97454E-04   -0.16606E-04  4781   0.210E-02    0.126E-01
 Begin Solvation calculations
  rms_SCF =   1.381016401609329E-002 tol =   1.381016401609329E-003
 Begin minimization
 Creating dielectric and ionic cavities
  area:      157.014901046770     
  volume:    765.608943089212     
  Acav:     8.243282304955429E-002
  Solving linear dielectric/ionic screening model
        iter                  A_solv                     rms
[...]
 Ecorr_band=  -2935.05325269831     
 End Solvation calculations
RMM:   3    -0.245231191843E+03    0.39569E-05   -0.16242E-05  3000   0.775E-03
 Begin Solvation calculations
  rms_SCF =   1.905012168232890E-003 tol =   1.905012168232890E-004
 Begin minimization
 Creating dielectric and ionic cavities
  area:      157.142193558956     
  volume:    765.816804831601     
  Acav:     8.249965161845191E-002
  Solving linear dielectric/ionic screening model
        iter                  A_solv                     rms
   LPB:       -0.331771624298384E+00   0.391468084072478E-01
   LPB:    0  -0.331771592657687E+00   0.389935855771026E-01  -0.419570E-04   0.000000E+00   0.359474E+02  -0.150824E-02
   LPB:    1  -0.331766858315652E+00   0.390526009263826E-02   0.883463E-02   0.000000E+00   0.796465E+02  -0.571123E-19
   LPB:    2  -0.331766421139208E+00   0.573352450653741E-03   0.165199E-01   0.493832E-01   0.137511E+03   0.299383E-17
   LPB:    3  -0.331766368686440E+00   0.250693920609932E-03   0.231495E-01   0.856204E-01   0.332519E+03   0.522251E-17
   LPB:    4  -0.331766352822933E+00   0.157587295813966E-03   0.272741E-01   0.256698E+00   0.415274E+03   0.622461E-17
  Finished solving LPB equations
  A_corr:   -0.249266701204481     
 End minimization
 Ecorr=   2934.79467662986     
 A_corr= -0.249266701204481     
 Ecorr_band=  -2935.04394333107     
 End Solvation calculations
  32 F= -.24523119E+03 E0= -.24522639E+03  d E =0.428821E-03
quench:  g(F)=  0.000E+00 g(S)=  0.000E+00 dE (1.order)= 0.000E+00
 bond charge predicted
       N       E                     dE             d eps       ncg     rms          rms(c)
 Begin Solvation calculations
  rms_SCF =   1.905012168232890E-003 tol =   1.905012168232890E-004
 Begin minimization
 Creating dielectric and ionic cavities
  area:      157.141000741854     
  volume:    765.816772844152     
  Acav:     8.249902538947329E-002
  Solving linear dielectric/ionic screening model
        iter                  A_solv                     rms
   LPB:       -0.331780457725018E+00   0.364447237284252E-03
   LPB:    0  -0.331780457724989E+00   0.365098326459164E-03  -0.400337E-07   0.000000E+00   0.359474E+02  -0.143911E-05
   LPB:    1  -0.331768976544583E+00   0.182232808680360E-03   0.163190E-01   0.000000E+00   0.596472E+06   0.115241E-21
   LPB:    2  -0.331767585533887E+00   0.201997346776477E-03   0.277356E-01   0.712852E-01   0.968455E+05  -0.262994E-18
   LPB:    3  -0.331767128587550E+00   0.369777362274390E-03   0.326385E-01   0.279152E+00   0.193604E+05  -0.114847E-17
   LPB:    4  -0.331766931931955E+00   0.730428656953782E-03   0.348202E-01   0.403405E+00   0.230985E+04  -0.293867E-17
   LPB:    5  -0.331766842055748E+00   0.118537542081579E-02   0.312147E-01   0.509812E+00   0.371755E+03  -0.247042E-17
   LPB:    6  -0.331766794988240E+00   0.769696120980009E-03   0.234488E-01   0.697133E+00   0.189448E+03   0.281327E-17
   LPB:    7  -0.331766759922783E+00   0.262123020317333E-03   0.302049E-01   0.578363E+00   0.504207E+03   0.170941E-16
   LPB:    8  -0.331766737506893E+00   0.262725553272830E-03   0.374987E-01   0.514918E+00   0.202691E+04   0.420114E-16
   LPB:    9  -0.331766725053903E+00   0.545654032883163E-03   0.335517E-01   0.620896E+00   0.521406E+03   0.601042E-16
   LPB:   10  -0.331766718379113E+00   0.472393399977400E-03   0.215588E-01   0.834170E+00   0.197784E+03   0.704218E-16
   LPB:   11  -0.331766712212985E+00   0.159016769903948E-03   0.260019E-01   0.765939E+00   0.499980E+03   0.760527E-16
  Finished solving LPB equations
  A_corr:   -0.249267686823512     
 End minimization
 Ecorr=   2934.79593876558     
 A_corr= -0.249267686823512     
 Ecorr_band=  -2935.04520645240     
 End Solvation calculations
DAV:   1    -0.245231031470E+03    0.16433E-03   -0.13196E-03  5097   0.590E-02    0.420E-02
 Begin Solvation calculations
  rms_SCF =   1.905012168232890E-003 tol =   1.905012168232890E-004
 Begin minimization
 Creating dielectric and ionic cavities
  area:      157.151922704222     
  volume:    765.814428584598     
  Acav:     8.250475941971640E-002
  Solving linear dielectric/ionic screening model
        iter                  A_solv                     rms
   LPB:       -0.331844776198427E+00   0.299278363274400E+00
   LPB:    0  -0.331844760519304E+00   0.299253090321331E+00   0.295353E-04   0.000000E+00   0.359475E+02   0.106172E-02
   LPB:    1  -0.331566984372581E+00   0.290731261396794E-01   0.881278E-02   0.000000E+00   0.798589E+02   0.282377E-19
   LPB:    2  -0.331543231627003E+00   0.470537589668135E-02   0.161163E-01   0.467593E-01   0.143271E+03  -0.613090E-17
   LPB:    3  -0.331540517342526E+00   0.202035450294263E-02   0.223655E-01   0.823432E-01   0.274191E+03   0.162556E-16
   LPB:    4  -0.331539769692852E+00   0.115182883219138E-02   0.268811E-01   0.229178E+00   0.383240E+03   0.597737E-16
   LPB:    5  -0.331539497520801E+00   0.117296805319385E-02   0.274468E-01   0.356534E+00   0.371558E+03   0.356435E-16
   LPB:    6  -0.331539377539308E+00   0.121863567090223E-02   0.266981E-01   0.453191E+00   0.216482E+03   0.291617E-16
   LPB:    7  -0.331539317665550E+00   0.808990601179852E-03   0.240464E-01   0.554056E+00   0.181737E+03   0.300084E-16
   LPB:    8  -0.331539279440679E+00   0.284774566670480E-03   0.288912E-01   0.531365E+00   0.230134E+03   0.304653E-16
   LPB:    9  -0.331539257177790E+00   0.140943646549543E-03   0.347596E-01   0.484090E+00   0.513179E+03   0.451273E-16
  Finished solving LPB equations
  A_corr:   -0.249034497758073     
 End minimization
 Ecorr=   2934.89179423328     
 A_corr= -0.249034497758073     
 Ecorr_band=  -2935.14082873104     
 End Solvation calculations
RMM:   2    -0.245232710874E+03   -0.16794E-02   -0.43479E-04  5166   0.339E-02    0.456E-01
 Begin Solvation calculations
  rms_SCF =   1.905012168232890E-003 tol =   1.905012168232890E-004
 Begin minimization
 Creating dielectric and ionic cavities
  area:      157.143326799029     
  volume:    765.812448429072     
  Acav:     8.250024656949005E-002
  Solving linear dielectric/ionic screening model
        iter                  A_solv                     rms
   LPB:       -0.332068053094382E+00   0.298813396123953E+00
   LPB:    0  -0.332067720563910E+00   0.298566796251763E+00  -0.136018E-03   0.000000E+00   0.359476E+02  -0.488952E-02
   LPB:    1  -0.331791455569094E+00   0.290827884948631E-01   0.882000E-02   0.000000E+00   0.796301E+02  -0.153704E-18
   LPB:    2  -0.331767885425963E+00   0.445329223457789E-02   0.160280E-01   0.469490E-01   0.143293E+03   0.445374E-16
   LPB:    3  -0.331765241866711E+00   0.174126838534745E-02   0.222867E-01   0.806603E-01   0.295990E+03   0.544923E-16
   LPB:    4  -0.331764528197276E+00   0.819982611944255E-03   0.270212E-01   0.222663E+00   0.411912E+03   0.511264E-16
   LPB:    5  -0.331764266430904E+00   0.522231274540672E-03   0.285101E-01   0.347634E+00   0.484421E+03   0.563057E-16
   LPB:    6  -0.331764155011664E+00   0.450715054796911E-03   0.304244E-01   0.398863E+00   0.484135E+03   0.581367E-16
   LPB:    7  -0.331764107890120E+00   0.676848068792387E-03   0.303799E-01   0.423540E+00   0.342603E+03   0.573932E-16
   LPB:    8  -0.331764086560368E+00   0.576768176551831E-03   0.245571E-01   0.559984E+00   0.161397E+03   0.538820E-16
   LPB:    9  -0.331764073079707E+00   0.249434438355293E-03   0.263075E-01   0.589961E+00   0.231646E+03   0.510991E-16
   LPB:   10  -0.331764064793614E+00   0.118862434729990E-03   0.324035E-01   0.499029E+00   0.408691E+03   0.527612E-16
  Finished solving LPB equations
  A_corr:   -0.249263818224124     
 End minimization
 Ecorr=   2934.82167810862     
 A_corr= -0.249263818224124     
 Ecorr_band=  -2935.07094192684     
 End Solvation calculations
RMM:   3    -0.245231077544E+03    0.16333E-02   -0.23033E-04  4880   0.237E-02    0.762E-02
 Begin Solvation calculations
  rms_SCF =   1.905012168232890E-003 tol =   1.905012168232890E-004
 Begin minimization
 Creating dielectric and ionic cavities
  area:      157.142380072597     
  volume:    765.819804787197     
  Acav:     8.249974953811329E-002
  Solving linear dielectric/ionic screening model
        iter                  A_solv                     rms
   LPB:       -0.331745420621286E+00   0.214234912532216E-01
   LPB:    0  -0.331745111036064E+00   0.192064063052832E-01   0.131242E-03   0.000000E+00   0.359473E+02   0.471778E-02
   LPB:    1  -0.331743851913427E+00   0.191891189262810E-02   0.908503E-02   0.000000E+00   0.804540E+02   0.315820E-18
   LPB:    2  -0.331743703843269E+00   0.627965911084960E-03   0.173284E-01   0.616550E-01   0.180785E+03   0.109191E-17
   LPB:    3  -0.331743673890572E+00   0.596599089972881E-03   0.221670E-01   0.158132E+00   0.263554E+03   0.111626E-17
   LPB:    4  -0.331743662338374E+00   0.384666129151631E-03   0.221624E-01   0.385763E+00   0.170567E+03  -0.893560E-18
   LPB:    5  -0.331743655708926E+00   0.171389411588454E-03   0.273205E-01   0.465523E+00   0.287206E+03  -0.522189E-18
  Finished solving LPB equations
  A_corr:   -0.249243906170813     
 End minimization
 Ecorr=   2934.78610500980     
 A_corr= -0.249243906170813     
 Ecorr_band=  -2935.03534891597     
 End Solvation calculations
RMM:   4    -0.245231027234E+03    0.50310E-04   -0.38561E-05  3966   0.101E-02    0.172E-02
 Begin Solvation calculations
  rms_SCF =   1.905012168232890E-003 tol =   1.905012168232890E-004
 Begin minimization
 Creating dielectric and ionic cavities
  area:      157.142217265583     
  volume:    765.819441004924     
  Acav:     8.249966406443125E-002
  Solving linear dielectric/ionic screening model
        iter                  A_solv                     rms
   LPB:       -0.331742396184646E+00   0.221191123103854E-02
   LPB:    0  -0.331742395720465E+00   0.218340754428246E-02  -0.508189E-05   0.000000E+00   0.359473E+02  -0.182680E-03
   LPB:    1  -0.331742346484876E+00   0.113912664600721E-02   0.139992E-01   0.000000E+00   0.105030E+03  -0.242400E-20
   LPB:    2  -0.331742327402420E+00   0.209181936182386E-03   0.169456E-01   0.320186E+00   0.310360E+03  -0.223327E-18
   LPB:    3  -0.331742321599560E+00   0.103529715127287E-03   0.237756E-01   0.216737E+00   0.649886E+03  -0.286230E-18
   LPB:    4  -0.331742318567407E+00   0.824860228950133E-04   0.334522E-01   0.371377E+00   0.107404E+04  -0.700044E-18
  Finished solving LPB equations
  A_corr:   -0.249242654502976     
 End minimization
 Ecorr=   2934.78837704002     
 A_corr= -0.249242654502976     
 Ecorr_band=  -2935.03761969452     
 End Solvation calculations
RMM:   5    -0.245231029407E+03   -0.21728E-05   -0.73428E-06  2868   0.449E-03
 Begin Solvation calculations
  rms_SCF =   1.905012168232890E-003 tol =   1.905012168232890E-004
 Begin minimization
 Creating dielectric and ionic cavities
  area:      157.142704158117     
  volume:    765.818319482890     
  Acav:     8.249991968301157E-002
  Solving linear dielectric/ionic screening model
        iter                  A_solv                     rms
   LPB:       -0.331741302451043E+00   0.223946503693351E-02
   LPB:    0  -0.331741292397753E+00   0.131860592812932E-02  -0.236502E-04   0.000000E+00   0.359473E+02  -0.850164E-03
   LPB:    1  -0.331741257085038E+00   0.842436025778501E-03   0.146210E-01   0.000000E+00   0.146155E+03   0.376604E-19
   LPB:    2  -0.331741246066825E+00   0.322200326977994E-03   0.174011E-01   0.262169E+00   0.191637E+03  -0.593911E-17
   LPB:    3  -0.331741242720802E+00   0.275816289197407E-03   0.210863E-01   0.250608E+00   0.186244E+03  -0.123948E-16
   LPB:    4  -0.331741240808705E+00   0.156443199309109E-03   0.227341E-01   0.530032E+00   0.222098E+03  -0.136903E-16
  Finished solving LPB equations
  A_corr:   -0.249241321125693     
 End minimization
 Ecorr=   2934.79458586775     
 A_corr= -0.249241321125693     
 Ecorr_band=  -2935.04382718887     
 End Solvation calculations
  33 F= -.24523103E+03 E0= -.24522619E+03  d E =0.162437E-03
quench:  g(F)=  0.000E+00 g(S)=  0.000E+00 dE (1.order)= 0.000E+00
 bond charge predicted
       N       E                     dE             d eps       ncg     rms          rms(c)
 Begin Solvation calculations
  rms_SCF =   1.905012168232890E-003 tol =   1.905012168232890E-004
 Begin minimization
 Creating dielectric and ionic cavities
  area:      157.145511277215     
  volume:    765.822080298393     
  Acav:     8.250139342053775E-002
  Solving linear dielectric/ionic screening model
        iter                  A_solv                     rms
   LPB:       -0.331738085410978E+00   0.304722853902572E-03
   LPB:    0  -0.331738085409076E+00   0.305668103184760E-03   0.325321E-06   0.000000E+00   0.359472E+02   0.116944E-04
   LPB:    1  -0.331730821816593E+00   0.160777207747932E-03   0.155609E-01   0.000000E+00   0.618565E+06   0.448801E-21
   LPB:    2  -0.331730160627269E+00   0.270331557533574E-03   0.271600E-01   0.521529E-01   0.672341E+05   0.168651E-18
   LPB:    3  -0.331729939250188E+00   0.689867599948759E-03   0.326748E-01   0.278306E+00   0.702728E+04  -0.693489E-19
   LPB:    4  -0.331729851438892E+00   0.152237373295624E-02   0.303235E-01   0.427417E+00   0.542164E+03   0.115886E-18
   LPB:    5  -0.331729813270685E+00   0.977476740333534E-03   0.182032E-01   0.724076E+00   0.190310E+03   0.220924E-18
   LPB:    6  -0.331729779805610E+00   0.226539986295456E-03   0.277245E-01   0.575669E+00   0.701422E+03  -0.685540E-18
   LPB:    7  -0.331729758871410E+00   0.199227216959490E-03   0.374061E-01   0.463646E+00   0.363417E+04  -0.831674E-18
   LPB:    8  -0.331729747080367E+00   0.378450948942814E-03   0.353804E-01   0.595491E+00   0.495803E+03  -0.128412E-17
   LPB:    9  -0.331729740366910E+00   0.347881448810772E-03   0.259071E-01   0.777567E+00   0.212371E+03  -0.381801E-17
   LPB:   10  -0.331729735018414E+00   0.129685713610533E-03   0.286748E-01   0.719787E+00   0.306488E+03  -0.246117E-17
  Finished solving LPB equations
  A_corr:   -0.249228341597876     
 End minimization
 Ecorr=   2934.79943763643     
 A_corr= -0.249228341597876     
 Ecorr_band=  -2935.04866597803     
 End Solvation calculations
DAV:   1    -0.245230862496E+03    0.16474E-03   -0.62698E-04  5460   0.522E-02    0.108E-02
 Begin Solvation calculations
  rms_SCF =   1.905012168232890E-003 tol =   1.905012168232890E-004
 Begin minimization
 Creating dielectric and ionic cavities
  area:      157.144441353704     
  volume:    765.827320827930     
  Acav:     8.250083171069483E-002
  Solving linear dielectric/ionic screening model
        iter                  A_solv                     rms
   LPB:       -0.331739904030239E+00   0.144730376236502E-01
   LPB:    0  -0.331739810887957E+00   0.137189095465763E-01   0.719876E-04   0.000000E+00   0.359469E+02   0.258773E-02
   LPB:    1  -0.331739175034615E+00   0.144218005496027E-02   0.918710E-02   0.000000E+00   0.796426E+02   0.185295E-18
   LPB:    2  -0.331739095695912E+00   0.460831012148148E-03   0.168896E-01   0.678713E-01   0.189125E+03   0.627421E-17
   LPB:    3  -0.331739081832913E+00   0.399922103157068E-03   0.225009E-01   0.131157E+00   0.170681E+03   0.668798E-17
   LPB:    4  -0.331739076533769E+00   0.248870932671243E-03   0.232127E-01   0.370530E+00   0.186858E+03   0.723092E-17
   LPB:    5  -0.331739073387370E+00   0.119454426745603E-03   0.267659E-01   0.514934E+00   0.342573E+03   0.736557E-17
  Finished solving LPB equations
  A_corr:   -0.249238241676675     
 End minimization
 Ecorr=   2934.76399830005     
 A_corr= -0.249238241676675     
 Ecorr_band=  -2935.01323654173     
 End Solvation calculations
RMM:   2    -0.245230879852E+03   -0.17355E-04   -0.35550E-05  3358   0.113E-02    0.440E-02
 Begin Solvation calculations
  rms_SCF =   1.905012168232890E-003 tol =   1.905012168232890E-004
 Begin minimization
 Creating dielectric and ionic cavities
  area:      157.145510793379     
  volume:    765.823769791887     
  Acav:     8.250139316652372E-002
  Solving linear dielectric/ionic screening model
        iter                  A_solv                     rms
   LPB:       -0.331723227567106E+00   0.233380184804539E-01
   LPB:    0  -0.331723189097494E+00   0.231479310333264E-01  -0.462639E-04   0.000000E+00   0.359471E+02  -0.166305E-02
   LPB:    1  -0.331721501913846E+00   0.223519620747674E-02   0.887177E-02   0.000000E+00   0.799559E+02   0.358825E-19
   LPB:    2  -0.331721348055835E+00   0.502344994591480E-03   0.162848E-01   0.496804E-01   0.154447E+03  -0.294367E-17
   LPB:    3  -0.331721326608754E+00   0.305551508966032E-03   0.224907E-01   0.100932E+00   0.202143E+03  -0.336525E-17
   LPB:    4  -0.331721320946850E+00   0.235183972548334E-03   0.232719E-01   0.255132E+00   0.269709E+03  -0.797259E-17
   LPB:    5  -0.331721318656643E+00   0.138509894287893E-03   0.228372E-01   0.412193E+00   0.212265E+03  -0.937751E-17
  Finished solving LPB equations
  A_corr:   -0.249219925490120     
 End minimization
 Ecorr=   2934.79077009204     
 A_corr= -0.249219925490120     
 Ecorr_band=  -2935.03999001753     
 End Solvation calculations
RMM:   3    -0.245230866880E+03    0.12972E-04   -0.76961E-06  2832   0.585E-03    0.198E-02
 Begin Solvation calculations
  rms_SCF =   1.905012168232890E-003 tol =   1.905012168232890E-004
 Begin minimization
 Creating dielectric and ionic cavities
  area:      157.145294895410     
  volume:    765.822215574639     
  Acav:     8.250127982009024E-002
  Solving linear dielectric/ionic screening model
        iter                  A_solv                     rms
   LPB:       -0.331736617001881E+00   0.158025680001321E-01
   LPB:    0  -0.331736601087196E+00   0.156294962695388E-01  -0.297565E-04   0.000000E+00   0.359472E+02  -0.106966E-02
   LPB:    1  -0.331735841119820E+00   0.153035517574447E-02   0.882946E-02   0.000000E+00   0.794955E+02  -0.143636E-19
   LPB:    2  -0.331735775029658E+00   0.221908218644123E-03   0.161699E-01   0.474863E-01   0.141575E+03  -0.154059E-17
   LPB:    3  -0.331735767074251E+00   0.120629528409509E-03   0.219917E-01   0.885064E-01   0.387686E+03  -0.347348E-18
   LPB:    4  -0.331735765022939E+00   0.139189458384480E-03   0.246487E-01   0.230057E+00   0.315287E+03  -0.185890E-18
  Finished solving LPB equations
  A_corr:   -0.249234485202849     
 End minimization
 Ecorr=   2934.79221083870     
 A_corr= -0.249234485202849     
 Ecorr_band=  -2935.04144532390     
 End Solvation calculations
RMM:   4    -0.245230864675E+03    0.22046E-05   -0.15227E-06  2750   0.227E-03
 Begin Solvation calculations
  rms_SCF =   1.905012168232890E-003 tol =   1.905012168232890E-004
 Begin minimization
 Creating dielectric and ionic cavities
  area:      157.145673700476     
  volume:    765.821420442610     
  Acav:     8.250147869274987E-002
  Solving linear dielectric/ionic screening model
        iter                  A_solv                     rms
   LPB:       -0.331745006770582E+00   0.657085642989651E-02
   LPB:    0  -0.331745005099450E+00   0.653593637643115E-02  -0.964246E-05   0.000000E+00   0.359472E+02  -0.346619E-03
   LPB:    1  -0.331744861210612E+00   0.587710390552771E-03   0.900658E-02   0.000000E+00   0.829930E+02  -0.262343E-19
   LPB:    2  -0.331744847125156E+00   0.116911198017401E-03   0.158860E-01   0.554994E-01   0.231886E+03   0.304059E-18
   LPB:    3  -0.331744844587173E+00   0.696477479088366E-04   0.253951E-01   0.112716E+00   0.538950E+03   0.332041E-18
   LPB:    4  -0.331744843579297E+00   0.778390685321820E-04   0.319205E-01   0.315935E+00   0.527476E+03   0.559101E-18
  Finished solving LPB equations
  A_corr:   -0.249243364886547     
 End minimization
 Ecorr=   2934.79393902092     
 A_corr= -0.249243364886547     
 Ecorr_band=  -2935.04318238581     
 End Solvation calculations
  34 F= -.24523086E+03 E0= -.24522601E+03  d E =0.164731E-03
quench:  g(F)=  0.000E+00 g(S)=  0.000E+00 dE (1.order)= 0.000E+00
 reached required accuracy - stopping structural energy minimisation
