 vasp.5.4.4.18Apr17-6-g9f103f2a35 (build Feb 06 2024 13:54:16) complex          
  
 POSCAR found type information on POSCAR  Pd N  O 
 05/POSCAR found :  3 types and      40 ions
 scaLAPACK will be used

 ----------------------------------------------------------------------------- 
|                                                                             |
|  ADVICE TO THIS USER RUNNING 'VASP/VAMP'   (HEAR YOUR MASTER'S VOICE ...):  |
|                                                                             |
|      You enforced a specific xc-type in the INCAR file,                     |
|      a different type was found on the POTCAR file                          |
|          I HOPE YOU KNOW, WHAT YOU ARE  DOING                               |
|                                                                             |
 ----------------------------------------------------------------------------- 

 LDA part: xc-table for Pade appr. of Perdew
 POSCAR found type information on POSCAR  Pd N  O 
 00/POSCAR found :  3 types and      40 ions
 POSCAR found type information on POSCAR  Pd N  O 
 06/POSCAR found :  3 types and      40 ions
 Jacobian:    21.7506536142030     
 POSCAR, INCAR and KPOINTS ok, starting setup
 FFT: planning ...
 WAVECAR not read
 entering main loop
       N       E                     dE             d eps       ncg     rms          rms(c)
  Solvation turned off during non-self-consistent phase (first NELMDL steps)
DAV:   1     0.264386310585E+04    0.26439E+04   -0.17599E+05  3696   0.147E+03
DAV:   2     0.248278517181E+01   -0.26414E+04   -0.24708E+04  4119   0.314E+02
DAV:   3    -0.180516352263E+03   -0.18300E+03   -0.16440E+03  4494   0.729E+01
DAV:   4    -0.188928435074E+03   -0.84121E+01   -0.79736E+01  4368   0.148E+01
DAV:   5    -0.189135069094E+03   -0.20663E+00   -0.20340E+00  4416   0.250E+00    0.371E+01
 Begin Solvation calculations
  rms_SCF =    2.38835433443636      tol =   0.238835433443636     
 Begin minimization
 Creating dielectric and ionic cavities
  area:      193.707819218689     
  volume:    849.400009993113     
  Acav:     0.101696605089811     
  Solving linear dielectric/ionic screening model
        iter                  A_solv                     rms
   LPB:       -0.584848086547735E+03   0.287382574315379E+03
   LPB:    0  -0.318551438195170E+01   0.152392555564715E+02  -0.564900E+01   0.000000E+00   0.364551E+02  -0.205935E+03
   LPB:    1  -0.944429153233500E+00   0.562161823313618E+01   0.132317E-01   0.000000E+00   0.924832E+02   0.540926E-14
   LPB:    2  -0.515965546085113E+00   0.137958246661109E+01   0.146309E-01   0.172902E+00   0.147770E+03  -0.524010E-14
   LPB:    3  -0.327583987092567E+00   0.717571714985892E+00   0.259255E-01   0.248124E+00   0.249422E+03  -0.356603E-14
   LPB:    4  -0.256253271319679E+00   0.594483911861038E+00   0.307253E-01   0.319499E+00   0.914080E+02  -0.441394E-14
   LPB:    5  -0.223008680945782E+00   0.745889689285129E+00   0.265819E-01   0.538709E+00   0.446744E+03  -0.234084E-14
   LPB:    6  -0.202787428167767E+00   0.313840343419633E+00   0.261445E-01   0.618434E+00   0.601424E+02   0.161366E-14
   LPB:    7  -0.189890526894942E+00   0.171750444685477E+00   0.313372E-01   0.532105E+00   0.227598E+03  -0.392024E-15
  Finished solving LPB equations
  A_corr:   -8.819392180513055E-002
 End minimization
 Ecorr=   2004.57076769705     
 A_corr= -8.819392180513055E-002
 Ecorr_band=  -2004.65896161886     
 End Solvation calculations
RMM:   6    -0.184010462034E+03    0.51246E+01   -0.39403E+01  3698   0.131E+01    0.269E+01
 Begin Solvation calculations
  rms_SCF =    2.38835433443636      tol =   0.238835433443636     
 Begin minimization
 Creating dielectric and ionic cavities
  area:      191.931505723307     
  volume:    868.792525941001     
  Acav:     0.100764040504736     
  Solving linear dielectric/ionic screening model
        iter                  A_solv                     rms
   LPB:       -0.534265174093474E+01   0.347233424089727E+02
   LPB:    0  -0.335123858351990E+01   0.269327159110198E+02   0.334735E+00   0.000000E+00   0.355459E+02   0.118985E+02
   LPB:    1  -0.505579344261410E+00   0.242070807649156E+01   0.949421E-02   0.000000E+00   0.836180E+02  -0.411335E-15
   LPB:    2  -0.264243942881619E+00   0.103899980172270E+01   0.158389E-01   0.508359E-01   0.231739E+03  -0.214046E-13
   LPB:    3  -0.205109124216050E+00   0.784729708691932E+00   0.235851E-01   0.164555E+00   0.141729E+03  -0.314680E-13
   LPB:    4  -0.180457188683912E+00   0.449191581948431E+00   0.227645E-01   0.431904E+00   0.289459E+03  -0.394131E-13
   LPB:    5  -0.166048020962229E+00   0.160255063697820E+00   0.292561E-01   0.454809E+00   0.212762E+03  -0.382801E-13
  Finished solving LPB equations
  A_corr:   -6.528398045749312E-002
 End minimization
 Ecorr=   1912.71725274884     
 A_corr= -6.528398045749312E-002
 Ecorr_band=  -1912.78253672929     
 End Solvation calculations
RMM:   7    -0.190710538298E+03   -0.67001E+01   -0.28770E+01  3713   0.713E+00    0.277E+01
 Begin Solvation calculations
  rms_SCF =    2.38835433443636      tol =   0.238835433443636     
 Begin minimization
 Creating dielectric and ionic cavities
  area:      199.969694178004     
  volume:    863.174469861903     
  Acav:     0.104984089443452     
  Solving linear dielectric/ionic screening model
        iter                  A_solv                     rms
   LPB:       -0.992633479976078E+01   0.509676514510167E+02
   LPB:    0  -0.991698725244537E+01   0.509133557793261E+02  -0.228489E-01   0.000000E+00   0.358093E+02  -0.818204E+00
   LPB:    1  -0.104463549033047E+01   0.473911860715535E+01   0.910151E-02   0.000000E+00   0.825555E+02  -0.157731E-16
   LPB:    2  -0.382223429260572E+00   0.100659196659253E+01   0.161866E-01   0.419805E-01   0.149969E+03   0.447029E-14
   LPB:    3  -0.279355018346729E+00   0.491957041007130E+00   0.226394E-01   0.111031E+00   0.210268E+03   0.705115E-14
   LPB:    4  -0.253526159430894E+00   0.326134962437090E+00   0.258495E-01   0.219906E+00   0.234284E+03   0.539271E-14
   LPB:    5  -0.243492525947701E+00   0.345593915848029E+00   0.250540E-01   0.400801E+00   0.325984E+03   0.122148E-13
   LPB:    6  -0.237764423959204E+00   0.178358541118716E+00   0.273402E-01   0.523151E+00   0.976054E+02   0.168469E-13
  Finished solving LPB equations
  A_corr:   -0.132780334515752     
 End minimization
 Ecorr=   1901.87822401444     
 A_corr= -0.132780334515752     
 Ecorr_band=  -1902.01100434896     
 End Solvation calculations
RMM:   8    -0.200811176518E+03   -0.10101E+02   -0.14187E+01  3700   0.665E+00    0.397E+01
 Begin Solvation calculations
  rms_SCF =    2.38835433443636      tol =   0.238835433443636     
 Begin minimization
 Creating dielectric and ionic cavities
  area:      199.183835170026     
  volume:    857.866546210787     
  Acav:     0.104571513464264     
  Solving linear dielectric/ionic screening model
        iter                  A_solv                     rms
   LPB:       -0.618123140451430E+01   0.397655163566828E+02
   LPB:    0  -0.618111154352614E+01   0.397741453421551E+02   0.257841E-02   0.000000E+00   0.360581E+02   0.929727E-01
   LPB:    1  -0.799130392155189E+00   0.404976730697720E+01   0.906274E-02   0.000000E+00   0.824867E+02   0.120166E-17
   LPB:    2  -0.309085565367559E+00   0.716639137587795E+00   0.176486E-01   0.467566E-01   0.123469E+03   0.125706E-14
   LPB:    3  -0.231667068455760E+00   0.308249905625558E+00   0.230969E-01   0.120716E+00   0.266389E+03   0.209168E-14
   LPB:    4  -0.208885209385807E+00   0.148115611693687E+00   0.273604E-01   0.248414E+00   0.251705E+03   0.462740E-14
  Finished solving LPB equations
  A_corr:   -0.104313695921543     
 End minimization
 Ecorr=   1859.88911573368     
 A_corr= -0.104313695921543     
 Ecorr_band=  -1859.99342942960     
 End Solvation calculations
RMM:   9    -0.185169256653E+03    0.15642E+02   -0.12548E+01  3696   0.649E+00    0.237E+01
 Begin Solvation calculations
  rms_SCF =    2.38835433443636      tol =   0.238835433443636     
 Begin minimization
 Creating dielectric and ionic cavities
  area:      195.718789561361     
  volume:    856.490603016113     
  Acav:     0.102752364519715     
  Solving linear dielectric/ionic screening model
        iter                  A_solv                     rms
   LPB:       -0.155544666632789E+01   0.184209023505321E+02
   LPB:    0  -0.152503916772531E+01   0.182829083851998E+02   0.410313E-01   0.000000E+00   0.361227E+02   0.148216E+01
   LPB:    1  -0.359706839824713E+00   0.171160914388716E+01   0.919051E-02   0.000000E+00   0.825252E+02  -0.105774E-15
   LPB:    2  -0.254093174527919E+00   0.322496797971799E+00   0.165922E-01   0.502004E-01   0.172993E+03  -0.124646E-15
   LPB:    3  -0.234691083738883E+00   0.142569641147312E+00   0.233436E-01   0.130576E+00   0.386721E+03  -0.427509E-15
   LPB:    4  -0.228618887414755E+00   0.154656871474540E+00   0.307672E-01   0.237453E+00   0.451844E+03  -0.256145E-15
  Finished solving LPB equations
  A_corr:   -0.125866522895040     
 End minimization
 Ecorr=   1840.96137761979     
 A_corr= -0.125866522895040     
 Ecorr_band=  -1841.08724414268     
 End Solvation calculations
RMM:  10    -0.181585639725E+03    0.35836E+01   -0.61533E+00  3698   0.457E+00    0.137E+01
 Begin Solvation calculations
  rms_SCF =    2.38835433443636      tol =   0.238835433443636     
 Begin minimization
 Creating dielectric and ionic cavities
  area:      184.266512044989     
  volume:    848.581839809707     
  Acav:     9.673991882361924E-002
  Solving linear dielectric/ionic screening model
        iter                  A_solv                     rms
   LPB:       -0.444110702944441E+00   0.653580621081305E+01
   LPB:    0  -0.372920129748799E+00   0.385878597278976E+01  -0.624624E-01   0.000000E+00   0.364934E+02  -0.227947E+01
   LPB:    1  -0.269610364204923E+00   0.675370140921836E+00   0.112730E-01   0.000000E+00   0.750432E+02  -0.750929E-16
   LPB:    2  -0.254641668700016E+00   0.421223164752067E+00   0.168220E-01   0.970969E-01   0.208613E+03   0.144173E-13
   LPB:    3  -0.249778454706461E+00   0.402304810948506E+00   0.225261E-01   0.242622E+00   0.124842E+03   0.158552E-13
   LPB:    4  -0.245688724332134E+00   0.144052978365785E+00   0.271976E-01   0.696510E+00   0.924439E+02   0.172988E-13
  Finished solving LPB equations
  A_corr:   -0.148948805508515     
 End minimization
 Ecorr=   1833.66669102765     
 A_corr= -0.148948805508515     
 Ecorr_band=  -1833.81563983316     
 End Solvation calculations
RMM:  11    -0.179740331068E+03    0.18453E+01   -0.42399E+00  3698   0.379E+00    0.110E+01
 Begin Solvation calculations
  rms_SCF =    2.38835433443636      tol =   0.238835433443636     
 Begin minimization
 Creating dielectric and ionic cavities
  area:      186.942484956532     
  volume:    847.584917455265     
  Acav:     9.814480460217953E-002
  Solving linear dielectric/ionic screening model
        iter                  A_solv                     rms
   LPB:       -0.372608405750409E+00   0.475876274925585E+01
   LPB:    0  -0.316530868046303E+00   0.315087653716190E+01   0.554018E-01   0.000000E+00   0.365402E+02   0.202439E+01
   LPB:    1  -0.267281648169134E+00   0.560811534543202E+00   0.105707E-01   0.000000E+00   0.828335E+02   0.125230E-15
   LPB:    2  -0.253196150431934E+00   0.235144877387723E+00   0.205079E-01   0.147420E+00   0.236436E+03   0.333016E-14
   LPB:    3  -0.249482864002085E+00   0.189269667992378E+00   0.238579E-01   0.226607E+00   0.253770E+03   0.442461E-14
   LPB:    4  -0.246823843428497E+00   0.211310825270381E+00   0.292630E-01   0.583818E+00   0.393383E+03   0.573287E-14
  Finished solving LPB equations
  A_corr:   -0.148679038826318     
 End minimization
 Ecorr=   1819.76869857157     
 A_corr= -0.148679038826318     
 Ecorr_band=  -1819.91737761040     
 End Solvation calculations
RMM:  12    -0.179047533014E+03    0.69280E+00   -0.13922E+00  3702   0.221E+00    0.649E+00
 Begin Solvation calculations
  rms_SCF =    2.38835433443636      tol =   0.238835433443636     
 Begin minimization
 Creating dielectric and ionic cavities
  area:      177.746812432834     
  volume:    840.846700528163     
  Acav:     9.331707652723803E-002
  Solving linear dielectric/ionic screening model
        iter                  A_solv                     rms
   LPB:       -0.370585447166157E+00   0.388859285403811E+01
   LPB:    0  -0.353703008494116E+00   0.259191048784886E+01  -0.302676E-01   0.000000E+00   0.368561E+02  -0.111554E+01
   LPB:    1  -0.283163471159225E+00   0.659346199002888E+00   0.123960E-01   0.000000E+00   0.948993E+02   0.149690E-16
   LPB:    2  -0.273591560105842E+00   0.222624495507130E+00   0.165741E-01   0.101489E+00   0.234141E+03   0.276961E-13
   LPB:    3  -0.270073092229639E+00   0.250593886395997E+00   0.242053E-01   0.251695E+00   0.291174E+03   0.316512E-13
   LPB:    4  -0.268093131558779E+00   0.243780725375610E+00   0.226763E-01   0.600678E+00   0.999737E+02   0.319620E-13
   LPB:    5  -0.265752063010436E+00   0.133095127279955E+00   0.345589E-01   0.775835E+00   0.179800E+03   0.326745E-13
  Finished solving LPB equations
  A_corr:   -0.172434986483198     
 End minimization
 Ecorr=   1809.47505790639     
 A_corr= -0.172434986483198     
 Ecorr_band=  -1809.64749289288     
 End Solvation calculations
RMM:  13    -0.178813909635E+03    0.23362E+00   -0.51518E-01  3702   0.135E+00    0.590E+00
 Begin Solvation calculations
  rms_SCF =    2.38835433443636      tol =   0.238835433443636     
 Begin minimization
 Creating dielectric and ionic cavities
  area:      180.788601501184     
  volume:    838.605027792495     
  Acav:     9.491401578812161E-002
  Solving linear dielectric/ionic screening model
        iter                  A_solv                     rms
   LPB:       -0.298085968589971E+00   0.271153091663373E+01
   LPB:    0  -0.289719218880490E+00   0.249445541055061E+01   0.212775E-01   0.000000E+00   0.369612E+02   0.786441E+00
   LPB:    1  -0.264020919278439E+00   0.321094977024085E+00   0.996046E-02   0.000000E+00   0.832558E+02   0.562235E-16
   LPB:    2  -0.259541191302018E+00   0.738502239514591E-01   0.171957E-01   0.100973E+00   0.280198E+03   0.382633E-16
   LPB:    3  -0.257920558697264E+00   0.606122612448776E-01   0.305892E-01   0.203369E+00   0.789714E+03  -0.337939E-15
   LPB:    4  -0.256920628394159E+00   0.592588711736125E-01   0.381381E-01   0.494873E+00   0.280926E+03  -0.531831E-15
  Finished solving LPB equations
  A_corr:   -0.162006612606038     
 End minimization
 Ecorr=   1801.33164738748     
 A_corr= -0.162006612606038     
 Ecorr_band=  -1801.49365400009     
 End Solvation calculations
RMM:  14    -0.178728072578E+03    0.85837E-01   -0.20040E-01  3700   0.852E-01    0.404E+00
 Begin Solvation calculations
  rms_SCF =    1.09818488733929      tol =   0.109818488733929     
 Begin minimization
 Creating dielectric and ionic cavities
  area:      179.454289729424     
  volume:    836.340201295993     
  Acav:     9.421350210794757E-002
  Solving linear dielectric/ionic screening model
        iter                  A_solv                     rms
   LPB:       -0.288567907239554E+00   0.148671595490314E+01
   LPB:    0  -0.288506426271504E+00   0.151132570535481E+01   0.182133E-02   0.000000E+00   0.370673E+02   0.675120E-01
   LPB:    1  -0.270798239064659E+00   0.425392736250520E+00   0.111118E-01   0.000000E+00   0.119583E+03  -0.117412E-17
   LPB:    2  -0.268127022189733E+00   0.874429820663491E-01   0.145037E-01   0.115569E+00   0.231787E+03   0.172858E-15
   LPB:    3  -0.267059310993345E+00   0.780478135477916E-01   0.282701E-01   0.205067E+00   0.398200E+03  -0.150934E-15
   LPB:    4  -0.266458382900616E+00   0.925120099182689E-01   0.315426E-01   0.504427E+00   0.119487E+03  -0.301771E-15
  Finished solving LPB equations
  A_corr:   -0.172244880792669     
 End minimization
 Ecorr=   1794.58324491658     
 A_corr= -0.172244880792669     
 Ecorr_band=  -1794.75548979737     
 End Solvation calculations
RMM:  15    -0.178620586300E+03    0.10749E+00   -0.10346E-01  3706   0.619E-01    0.249E+00
 Begin Solvation calculations
  rms_SCF =    1.09818488733929      tol =   0.109818488733929     
 Begin minimization
 Creating dielectric and ionic cavities
  area:      176.844900988876     
  volume:    831.248161648785     
  Acav:     9.284357301915989E-002
  Solving linear dielectric/ionic screening model
        iter                  A_solv                     rms
   LPB:       -0.322462514072038E+00   0.142569928003271E+01
   LPB:    0  -0.322446777058412E+00   0.139502766581828E+01  -0.918515E-03   0.000000E+00   0.373061E+02  -0.342662E-01
   LPB:    1  -0.287827665859499E+00   0.451133927206606E+00   0.143393E-01   0.000000E+00   0.138118E+03   0.126731E-17
   LPB:    2  -0.282851412716303E+00   0.216142051873362E+00   0.160541E-01   0.128389E+00   0.209444E+03  -0.296417E-14
   LPB:    3  -0.281112854987667E+00   0.191971065488533E+00   0.234074E-01   0.239619E+00   0.133485E+03  -0.494144E-14
   LPB:    4  -0.280232739557828E+00   0.157048063339344E+00   0.236575E-01   0.500882E+00   0.167567E+03  -0.631077E-14
   LPB:    5  -0.279453680277991E+00   0.804103115950419E-01   0.261375E-01   0.801192E+00   0.275506E+03  -0.705530E-14
  Finished solving LPB equations
  A_corr:   -0.186610107258831     
 End minimization
 Ecorr=   1787.22982313206     
 A_corr= -0.186610107258831     
 Ecorr_band=  -1787.41643323932     
 End Solvation calculations
RMM:  16    -0.178616873667E+03    0.37126E-02   -0.95082E-02  3698   0.560E-01    0.258E+00
 Begin Solvation calculations
  rms_SCF =   0.958172905546985      tol =   9.581729055469848E-002
 Begin minimization
 Creating dielectric and ionic cavities
  area:      175.681041934885     
  volume:    827.447249859228     
  Acav:     9.223254701581467E-002
  Solving linear dielectric/ionic screening model
        iter                  A_solv                     rms
   LPB:       -0.331724500787108E+00   0.137761308996002E+01
   LPB:    0  -0.331694865975928E+00   0.141377605526415E+01   0.125745E-02   0.000000E+00   0.374843E+02   0.471347E-01
   LPB:    1  -0.302316762082407E+00   0.641488447713625E+00   0.125199E-01   0.000000E+00   0.157366E+03   0.252256E-17
   LPB:    2  -0.298026860713144E+00   0.152237009336101E+00   0.142195E-01   0.128570E+00   0.141213E+03   0.186628E-14
   LPB:    3  -0.296789340836670E+00   0.128996944062922E+00   0.214611E-01   0.191134E+00   0.347903E+03   0.144931E-14
   LPB:    4  -0.296020687413610E+00   0.115442111979792E+00   0.263968E-01   0.504986E+00   0.124414E+03   0.141300E-14
   LPB:    5  -0.295232452701889E+00   0.856159354230520E-01   0.333434E-01   0.811832E+00   0.294174E+03  -0.143939E-15
  Finished solving LPB equations
  A_corr:   -0.202999905686074     
 End minimization
 Ecorr=   1779.66353307659     
 A_corr= -0.202999905686074     
 Ecorr_band=  -1779.86653298227     
 End Solvation calculations
RMM:  17    -0.178576912610E+03    0.39961E-01   -0.51072E-02  3698   0.436E-01    0.181E+00
 Begin Solvation calculations
  rms_SCF =   0.774102672195521      tol =   7.741026721955205E-002
 Begin minimization
 Creating dielectric and ionic cavities
  area:      176.179723557723     
  volume:    824.530867952001     
  Acav:     9.249435486780479E-002
  Solving linear dielectric/ionic screening model
        iter                  A_solv                     rms
   LPB:       -0.334736189274845E+00   0.105740922682667E+01
   LPB:    0  -0.334689971226355E+00   0.110484336953840E+01   0.156749E-02   0.000000E+00   0.376210E+02   0.589706E-01
   LPB:    1  -0.313518268015493E+00   0.544208845565806E+00   0.127630E-01   0.000000E+00   0.176381E+03   0.267949E-17
   LPB:    2  -0.310507566911021E+00   0.134456362851588E+00   0.142854E-01   0.127050E+00   0.124392E+03   0.280232E-14
   LPB:    3  -0.309684461275942E+00   0.111423951050652E+00   0.208696E-01   0.187139E+00   0.343456E+03   0.343438E-14
   LPB:    4  -0.309137690471298E+00   0.990987791384528E-01   0.264530E-01   0.524070E+00   0.126045E+03   0.363157E-14
   LPB:    5  -0.308551446214283E+00   0.746943648704225E-01   0.340431E-01   0.833141E+00   0.278886E+03   0.470756E-14
  Finished solving LPB equations
  A_corr:   -0.216057091346479     
 End minimization
 Ecorr=   1773.71295816014     
 A_corr= -0.216057091346479     
 Ecorr_band=  -1773.92901525149     
 End Solvation calculations
RMM:  18    -0.178583144726E+03   -0.62321E-02   -0.30857E-02  3701   0.342E-01    0.247E+00
 Begin Solvation calculations
  rms_SCF =   0.774102672195521      tol =   7.741026721955205E-002
 Begin minimization
 Creating dielectric and ionic cavities
  area:      180.343074320893     
  volume:    824.070300271418     
  Acav:     9.468011401846872E-002
  Solving linear dielectric/ionic screening model
        iter                  A_solv                     rms
   LPB:       -0.313842405186735E+00   0.100582957162847E+01
   LPB:    0  -0.311763280630681E+00   0.825158209589102E+00   0.105103E-01   0.000000E+00   0.376426E+02   0.395635E+00
   LPB:    1  -0.306467572704993E+00   0.219508219700291E+00   0.133536E-01   0.000000E+00   0.864804E+02   0.274821E-16
   LPB:    2  -0.305722257161935E+00   0.633501878815063E-01   0.128737E-01   0.145986E+00   0.305286E+03   0.293575E-15
   LPB:    3  -0.305413592173949E+00   0.295918073384125E-01   0.270894E-01   0.196812E+00   0.307652E+03   0.435042E-15
   LPB:    4  -0.305138063044215E+00   0.403868716210131E-01   0.415832E-01   0.581517E+00   0.359293E+03   0.306333E-15
  Finished solving LPB equations
  A_corr:   -0.210457949025746     
 End minimization
 Ecorr=   1770.50803037938     
 A_corr= -0.210457949025746     
 Ecorr_band=  -1770.71848832840     
 End Solvation calculations
RMM:  19    -0.178567458590E+03    0.15686E-01   -0.15977E-02  3700   0.225E-01    0.140E+00
 Begin Solvation calculations
  rms_SCF =   0.774102672195521      tol =   7.741026721955205E-002
 Begin minimization
 Creating dielectric and ionic cavities
  area:      175.886319712194     
  volume:    823.395040216427     
  Acav:     9.234031784890194E-002
  Solving linear dielectric/ionic screening model
        iter                  A_solv                     rms
   LPB:       -0.310174375337760E+00   0.268567954940117E+00
   LPB:    0  -0.310170054084346E+00   0.253327932690460E+00  -0.478958E-03   0.000000E+00   0.376742E+02  -0.180444E-01
   LPB:    1  -0.308264109259505E+00   0.101843481580936E+00   0.151169E-01   0.000000E+00   0.219692E+03  -0.819764E-18
   LPB:    2  -0.308017420787916E+00   0.624384778571596E-01   0.180878E-01   0.108172E+00   0.133853E+03  -0.838683E-15
   LPB:    3  -0.307859360246085E+00   0.412789098209752E-01   0.290789E-01   0.398549E+00   0.138520E+03  -0.831299E-15
   LPB:    4  -0.307697757244843E+00   0.652387408837955E-01   0.346107E-01   0.859001E+00   0.171472E+03  -0.103096E-14
  Finished solving LPB equations
  A_corr:   -0.215357439395941     
 End minimization
 Ecorr=   1768.68663288046     
 A_corr= -0.215357439395941     
 Ecorr_band=  -1768.90199031986     
 End Solvation calculations
RMM:  20    -0.178561147375E+03    0.63112E-02   -0.61166E-03  3702   0.182E-01    0.104E+00
 Begin Solvation calculations
  rms_SCF =   0.774102672195521      tol =   7.741026721955205E-002
 Begin minimization
 Creating dielectric and ionic cavities
  area:      176.345490904652     
  volume:    822.293476504610     
  Acav:     9.258138272494229E-002
  Solving linear dielectric/ionic screening model
        iter                  A_solv                     rms
   LPB:       -0.325238735318333E+00   0.801313388086079E+00
   LPB:    0  -0.325166401263307E+00   0.830460659434948E+00   0.195824E-02   0.000000E+00   0.377259E+02   0.738765E-01
   LPB:    1  -0.314616276063160E+00   0.207557458877532E+00   0.147248E-01   0.000000E+00   0.134433E+03  -0.558978E-17
   LPB:    2  -0.313499647687452E+00   0.107333489298061E+00   0.147124E-01   0.105929E+00   0.219130E+03  -0.555189E-16
   LPB:    3  -0.313183786425385E+00   0.726598046168300E-01   0.204068E-01   0.203938E+00   0.125018E+03   0.286672E-15
   LPB:    4  -0.313009070317390E+00   0.678956711062079E-01   0.241411E-01   0.467578E+00   0.240262E+03  -0.226055E-16
  Finished solving LPB equations
  A_corr:   -0.220427687592448     
 End minimization
 Ecorr=   1765.93671658385     
 A_corr= -0.220427687592448     
 Ecorr_band=  -1766.15714427144     
 End Solvation calculations
RMM:  21    -0.178561308386E+03   -0.16101E-03   -0.39691E-03  3700   0.110E-01    0.115E+00
 Begin Solvation calculations
  rms_SCF =   0.528714908221850      tol =   5.287149082218502E-002
 Begin minimization
 Creating dielectric and ionic cavities
  area:      177.390848823895     
  volume:    821.188688205188     
  Acav:     9.313019563254486E-002
  Solving linear dielectric/ionic screening model
        iter                  A_solv                     rms
   LPB:       -0.331443439561696E+00   0.702139181331021E+00
   LPB:    0  -0.331419646912960E+00   0.670638357486093E+00  -0.112233E-02   0.000000E+00   0.377777E+02  -0.423988E-01
   LPB:    1  -0.322042446215067E+00   0.222674020216499E+00   0.143983E-01   0.000000E+00   0.178371E+03  -0.144288E-17
   LPB:    2  -0.321011174687407E+00   0.848371941094644E-01   0.160236E-01   0.988213E-01   0.139875E+03  -0.104304E-14
   LPB:    3  -0.320638339842854E+00   0.487180932278174E-01   0.260657E-01   0.222246E+00   0.139095E+03  -0.119088E-14
   LPB:    4  -0.320377956287587E+00   0.405398267782780E-01   0.338019E-01   0.538548E+00   0.225813E+03  -0.562160E-15
  Finished solving LPB equations
  A_corr:   -0.227247760655042     
 End minimization
 Ecorr=   1763.85432111476     
 A_corr= -0.227247760655042     
 Ecorr_band=  -1764.08156887541     
 End Solvation calculations
RMM:  22    -0.178555424173E+03    0.58842E-02   -0.21845E-03  3702   0.848E-02    0.534E-01
 Begin Solvation calculations
  rms_SCF =   0.487430354903142      tol =   4.874303549031424E-002
 Begin minimization
 Creating dielectric and ionic cavities
  area:      176.622061228599     
  volume:    820.333279029560     
  Acav:     9.272658214501450E-002
  Solving linear dielectric/ionic screening model
        iter                  A_solv                     rms
   LPB:       -0.337629438398490E+00   0.726902123358436E+00
   LPB:    0  -0.337621610228591E+00   0.710441813603445E+00  -0.643424E-03   0.000000E+00   0.378178E+02  -0.243329E-01
   LPB:    1  -0.328536345698387E+00   0.219148890126601E+00   0.144080E-01   0.000000E+00   0.155853E+03   0.192280E-17
   LPB:    2  -0.327582324710891E+00   0.756927808146544E-01   0.152905E-01   0.989470E-01   0.141422E+03   0.914140E-16
   LPB:    3  -0.327263531776660E+00   0.461952327119605E-01   0.270380E-01   0.188972E+00   0.133982E+03   0.687884E-16
   LPB:    4  -0.327005915049569E+00   0.333247546824274E-01   0.372283E-01   0.586903E+00   0.197388E+03   0.688618E-15
  Finished solving LPB equations
  A_corr:   -0.234279332904554     
 End minimization
 Ecorr=   1761.73883162541     
 A_corr= -0.234279332904554     
 Ecorr_band=  -1761.97311095831     
 End Solvation calculations
RMM:  23    -0.178555070224E+03    0.35395E-03   -0.14845E-03  3700   0.714E-02    0.434E-01
 Begin Solvation calculations
  rms_SCF =   0.484397292264595      tol =   4.843972922645947E-002
 Begin minimization
 Creating dielectric and ionic cavities
  area:      176.751396753479     
  volume:    819.368114760202     
  Acav:     9.279448329557657E-002
  Solving linear dielectric/ionic screening model
        iter                  A_solv                     rms
   LPB:       -0.364350738194833E+00   0.120061538333831E+01
   LPB:    0  -0.364348844228414E+00   0.120684048726658E+01   0.316296E-03   0.000000E+00   0.378630E+02   0.119759E-01
   LPB:    1  -0.340856071287335E+00   0.303591330589291E+00   0.144907E-01   0.000000E+00   0.144056E+03  -0.276698E-18
   LPB:    2  -0.338542548883353E+00   0.128086338582401E+00   0.150496E-01   0.948207E-01   0.180590E+03  -0.296231E-14
   LPB:    3  -0.337931283715790E+00   0.876833132203617E-01   0.223733E-01   0.177727E+00   0.122238E+03  -0.346415E-14
   LPB:    4  -0.337586610641798E+00   0.100659127150920E+00   0.265985E-01   0.474296E+00   0.253994E+03  -0.339683E-14
   LPB:    5  -0.337345327081288E+00   0.808767042063212E-01   0.238632E-01   0.780278E+00   0.107154E+03  -0.280603E-14
   LPB:    6  -0.337121212617866E+00   0.323914842866998E-01   0.281347E-01   0.787822E+00   0.154265E+03  -0.246307E-14
  Finished solving LPB equations
  A_corr:   -0.244326729322289     
 End minimization
 Ecorr=   1758.06810870688     
 A_corr= -0.244326729322289     
 Ecorr_band=  -1758.31243543620     
 End Solvation calculations
RMM:  24    -0.178556989762E+03   -0.19195E-02   -0.18326E-03  3700   0.794E-02    0.544E-01
 Begin Solvation calculations
  rms_SCF =   0.484397292264595      tol =   4.843972922645947E-002
 Begin minimization
 Creating dielectric and ionic cavities
  area:      176.897155297956     
  volume:    819.227534935557     
  Acav:     9.287100653142666E-002
  Solving linear dielectric/ionic screening model
        iter                  A_solv                     rms
   LPB:       -0.348757390600654E+00   0.840042567986101E+00
   LPB:    0  -0.348756542441407E+00   0.837892356016188E+00  -0.211645E-03   0.000000E+00   0.378696E+02  -0.801492E-02
   LPB:    1  -0.341857625428882E+00   0.183141973107718E+00   0.138470E-01   0.000000E+00   0.101163E+03   0.210554E-18
   LPB:    2  -0.341130065282970E+00   0.917354647165777E-01   0.131094E-01   0.111394E+00   0.303340E+03  -0.670841E-15
   LPB:    3  -0.340966946461791E+00   0.354266858046213E-01   0.171547E-01   0.171330E+00   0.134875E+03  -0.964504E-15
   LPB:    4  -0.340863472548581E+00   0.469130198376352E-01   0.326439E-01   0.333357E+00   0.201333E+03  -0.948012E-15
  Finished solving LPB equations
  A_corr:   -0.247992466017154     
 End minimization
 Ecorr=   1756.72765706925     
 A_corr= -0.247992466017154     
 Ecorr_band=  -1756.97564953527     
 End Solvation calculations
RMM:  25    -0.178557665044E+03   -0.67528E-03   -0.86216E-04  3703   0.508E-02    0.598E-01
 Begin Solvation calculations
  rms_SCF =   0.484397292264595      tol =   4.843972922645947E-002
 Begin minimization
 Creating dielectric and ionic cavities
  area:      177.344181266510     
  volume:    818.844016318773     
  Acav:     9.310569516491762E-002
  Solving linear dielectric/ionic screening model
        iter                  A_solv                     rms
   LPB:       -0.381566701028149E+00   0.159348731059680E+01
   LPB:    0  -0.381407006248612E+00   0.154663995049732E+01  -0.290343E-02   0.000000E+00   0.378876E+02  -0.110004E+00
   LPB:    1  -0.355417602807976E+00   0.326498392904022E+00   0.141504E-01   0.000000E+00   0.105005E+03  -0.817830E-18
   LPB:    2  -0.352869524959702E+00   0.175545470587835E+00   0.135342E-01   0.102507E+00   0.281024E+03   0.264440E-14
   LPB:    3  -0.352236617756101E+00   0.865715808150746E-01   0.181682E-01   0.185033E+00   0.122107E+03   0.263822E-14
   LPB:    4  -0.351902674057770E+00   0.796158609628971E-01   0.248501E-01   0.385760E+00   0.241403E+03   0.240463E-14
   LPB:    5  -0.351679524177976E+00   0.620924619996967E-01   0.272266E-01   0.609898E+00   0.110780E+03   0.222119E-14
   LPB:    6  -0.351483488662874E+00   0.277685929979217E-01   0.323881E-01   0.738493E+00   0.130615E+03   0.185266E-14
  Finished solving LPB equations
  A_corr:   -0.258377793497956     
 End minimization
 Ecorr=   1754.23437849750     
 A_corr= -0.258377793497956     
 Ecorr_band=  -1754.49275629100     
 End Solvation calculations
RMM:  26    -0.178558334096E+03   -0.66905E-03   -0.10527E-03  3699   0.531E-02    0.433E-01
 Begin Solvation calculations
  rms_SCF =   0.484397292264595      tol =   4.843972922645947E-002
 Begin minimization
 Creating dielectric and ionic cavities
  area:      177.460371223017     
  volume:    818.703972608523     
  Acav:     9.316669489208367E-002
  Solving linear dielectric/ionic screening model
        iter                  A_solv                     rms
   LPB:       -0.375133062796328E+00   0.121205146915967E+01
   LPB:    0  -0.375036397509752E+00   0.117828327217354E+01  -0.225873E-02   0.000000E+00   0.378942E+02  -0.855926E-01
   LPB:    1  -0.361409440210053E+00   0.249629512355164E+00   0.139369E-01   0.000000E+00   0.982799E+02   0.637385E-17
   LPB:    2  -0.360016332966418E+00   0.124141865104898E+00   0.131369E-01   0.108457E+00   0.302218E+03  -0.305084E-15
   LPB:    3  -0.359728645556646E+00   0.491364251100530E-01   0.166679E-01   0.162760E+00   0.135220E+03  -0.120152E-14
   LPB:    4  -0.359579781491123E+00   0.550082387863382E-01   0.276921E-01   0.311454E+00   0.217571E+03  -0.944520E-15
   LPB:    5  -0.359442504094355E+00   0.553817391355568E-01   0.331121E-01   0.771220E+00   0.937400E+02  -0.756130E-15
   LPB:    6  -0.359292357544816E+00   0.246133762596849E-01   0.340121E-01   0.106481E+01   0.912960E+02   0.982513E-16
  Finished solving LPB equations
  A_corr:   -0.266125662652732     
 End minimization
 Ecorr=   1752.30037889564     
 A_corr= -0.266125662652732     
 Ecorr_band=  -1752.56650455829     
 End Solvation calculations
RMM:  27    -0.178559093405E+03   -0.75931E-03   -0.79874E-04  3718   0.443E-02    0.389E-01
 Begin Solvation calculations
  rms_SCF =   0.480512043628737      tol =   4.805120436287365E-002
 Begin minimization
 Creating dielectric and ionic cavities
  area:      177.609076802435     
  volume:    818.690835015557     
  Acav:     9.324476532127839E-002
  Solving linear dielectric/ionic screening model
        iter                  A_solv                     rms
   LPB:       -0.379445022188352E+00   0.119610164596513E+01
   LPB:    0  -0.379308368239443E+00   0.115775589277979E+01  -0.268557E-02   0.000000E+00   0.378948E+02  -0.101769E+00
   LPB:    1  -0.368064432351597E+00   0.248478040256124E+00   0.135366E-01   0.000000E+00   0.893094E+02  -0.631885E-17
   LPB:    2  -0.366878147935017E+00   0.104089337365508E+00   0.125448E-01   0.113845E+00   0.308983E+03   0.181505E-14
   LPB:    3  -0.366660093999042E+00   0.346900338208875E-01   0.163820E-01   0.140758E+00   0.153706E+03   0.211244E-14
   LPB:    4  -0.366570391062510E+00   0.394567354722507E-01   0.267875E-01   0.251580E+00   0.217145E+03   0.233279E-14
  Finished solving LPB equations
  A_corr:   -0.273325625741232     
 End minimization
 Ecorr=   1750.92451744856     
 A_corr= -0.273325625741232     
 Ecorr_band=  -1751.19784307430     
 End Solvation calculations
RMM:  28    -0.178559037549E+03    0.55856E-04   -0.91636E-04  3702   0.415E-02    0.179E-01
 Begin Solvation calculations
  rms_SCF =   0.132423955647404      tol =   1.324239556474045E-002
 Begin minimization
 Creating dielectric and ionic cavities
  area:      177.706544009980     
  volume:    818.769085908573     
  Acav:     9.329593560523933E-002
  Solving linear dielectric/ionic screening model
        iter                  A_solv                     rms
   LPB:       -0.378144704223162E+00   0.872449986474717E+00
   LPB:    0  -0.378037568358132E+00   0.840035958287666E+00  -0.237801E-02   0.000000E+00   0.378911E+02  -0.901054E-01
   LPB:    1  -0.372498644286694E+00   0.175629005762229E+00   0.134908E-01   0.000000E+00   0.844741E+02   0.786111E-17
   LPB:    2  -0.371928528035801E+00   0.791683432039757E-01   0.125909E-01   0.110285E+00   0.290772E+03   0.598588E-15
   LPB:    3  -0.371765289688657E+00   0.332508379972825E-01   0.203334E-01   0.177298E+00   0.123637E+03   0.565291E-15
   LPB:    4  -0.371646351756818E+00   0.399951057640662E-01   0.330624E-01   0.448099E+00   0.174288E+03   0.669135E-15
   LPB:    5  -0.371555250388394E+00   0.439811013151538E-01   0.309654E-01   0.817830E+00   0.108145E+03   0.828090E-15
   LPB:    6  -0.371474211564290E+00   0.227142890967523E-01   0.306942E-01   0.897405E+00   0.106665E+03   0.967170E-15
   LPB:    7  -0.371407118256133E+00   0.104886695235054E-01   0.350521E-01   0.724983E+00   0.228106E+03   0.162251E-14
  Finished solving LPB equations
  A_corr:   -0.278111182650894     
 End minimization
 Ecorr=   1749.77604578313     
 A_corr= -0.278111182650894     
 Ecorr_band=  -1750.05415696578     
 End Solvation calculations
RMM:  29    -0.178559695802E+03   -0.65825E-03   -0.49153E-04  3734   0.346E-02    0.232E-01
 Begin Solvation calculations
  rms_SCF =   0.132423955647404      tol =   1.324239556474045E-002
 Begin minimization
 Creating dielectric and ionic cavities
  area:      177.780666998919     
  volume:    818.876366440591     
  Acav:     9.333485017443240E-002
  Solving linear dielectric/ionic screening model
        iter                  A_solv                     rms
   LPB:       -0.380503389599474E+00   0.820616457722440E+00
   LPB:    0  -0.380402972916440E+00   0.787214288144573E+00  -0.230239E-02   0.000000E+00   0.378861E+02  -0.872284E-01
   LPB:    1  -0.376220421832902E+00   0.162488942737931E+00   0.129301E-01   0.000000E+00   0.784855E+02   0.607890E-18
   LPB:    2  -0.375752962790550E+00   0.561567943476221E-01   0.122869E-01   0.117615E+00   0.304577E+03  -0.121284E-15
   LPB:    3  -0.375667045155525E+00   0.181773830497190E-01   0.172256E-01   0.131101E+00   0.184244E+03  -0.212590E-15
   LPB:    4  -0.375642012420639E+00   0.179703089059604E-01   0.236307E-01   0.212385E+00   0.238909E+03  -0.233809E-15
   LPB:    5  -0.375625686027819E+00   0.194557428458022E-01   0.312884E-01   0.492579E+00   0.127245E+03  -0.268611E-15
   LPB:    6  -0.375600667853603E+00   0.127867046416578E-01   0.438925E-01   0.109234E+01   0.811855E+02  -0.359135E-15
  Finished solving LPB equations
  A_corr:   -0.282265817679171     
 End minimization
 Ecorr=   1748.80452896292     
 A_corr= -0.282265817679171     
 Ecorr_band=  -1749.08679478060     
 End Solvation calculations
RMM:  30    -0.178559738874E+03   -0.43072E-04   -0.30509E-04  3744   0.238E-02    0.148E-01
 Begin Solvation calculations
  rms_SCF =   0.132423955647404      tol =   1.324239556474045E-002
 Begin minimization
 Creating dielectric and ionic cavities
  area:      177.848063983445     
  volume:    819.107915230981     
  Acav:     9.337023359130854E-002
  Solving linear dielectric/ionic screening model
        iter                  A_solv                     rms
   LPB:       -0.384780441662970E+00   0.952623371538607E+00
   LPB:    0  -0.384619694620557E+00   0.918317092230876E+00  -0.291346E-02   0.000000E+00   0.378752E+02  -0.110348E+00
   LPB:    1  -0.379768958128458E+00   0.176527874218963E+00   0.121749E-01   0.000000E+00   0.763239E+02  -0.105438E-17
   LPB:    2  -0.379230732950943E+00   0.538851151070496E-01   0.120382E-01   0.112218E+00   0.287909E+03  -0.479918E-15
   LPB:    3  -0.379148215870894E+00   0.125341553860141E-01   0.170854E-01   0.108023E+00   0.175141E+03  -0.550605E-15
   LPB:    4  -0.379123134945531E+00   0.144534463207775E-01   0.286608E-01   0.181191E+00   0.211778E+03  -0.673875E-15
   LPB:    5  -0.379105900359312E+00   0.194307916346665E-01   0.340533E-01   0.578345E+00   0.122865E+03  -0.677659E-15
   LPB:    6  -0.379089717068016E+00   0.129085314031934E-01   0.309222E-01   0.103408E+01   0.766382E+02  -0.590293E-15
  Finished solving LPB equations
  A_corr:   -0.285719483476707     
 End minimization
 Ecorr=   1748.03686607598     
 A_corr= -0.285719483476707     
 Ecorr_band=  -1748.32258555946     
 End Solvation calculations
RMM:  31    -0.178560423693E+03   -0.68482E-03   -0.34533E-04  3638   0.226E-02    0.267E-01
 Begin Solvation calculations
  rms_SCF =   0.132423955647404      tol =   1.324239556474045E-002
 Begin minimization
 Creating dielectric and ionic cavities
  area:      177.872752561969     
  volume:    819.187781924569     
  Acav:     9.338319509503383E-002
  Solving linear dielectric/ionic screening model
        iter                  A_solv                     rms
   LPB:       -0.381535307460859E+00   0.448442297941266E+00
   LPB:    0  -0.381516679761830E+00   0.440155690912209E+00  -0.991833E-03   0.000000E+00   0.378715E+02  -0.375622E-01
   LPB:    1  -0.380572521107037E+00   0.791550117187917E-01   0.114383E-01   0.000000E+00   0.738742E+02   0.764474E-18
   LPB:    2  -0.380453688707605E+00   0.202258063748457E-01   0.124378E-01   0.115746E+00   0.268063E+03   0.173297E-16
   LPB:    3  -0.380436882607278E+00   0.504609869316942E-02   0.184734E-01   0.952203E-01   0.191610E+03   0.285407E-16
   LPB:    4  -0.380428415838285E+00   0.709913641370107E-02   0.399055E-01   0.233220E+00   0.182606E+03   0.396010E-16
  Finished solving LPB equations
  A_corr:   -0.287045220743251     
 End minimization
 Ecorr=   1747.77881814460     
 A_corr= -0.287045220743251     
 Ecorr_band=  -1748.06586336534     
 End Solvation calculations
RMM:  32    -0.178560519294E+03   -0.95602E-04   -0.13102E-04  3172   0.153E-02    0.259E-01
 Begin Solvation calculations
  rms_SCF =   0.132423955647404      tol =   1.324239556474045E-002
 Begin minimization
 Creating dielectric and ionic cavities
  area:      177.903126953265     
  volume:    819.247552572790     
  Acav:     9.339914165046397E-002
  Solving linear dielectric/ionic screening model
        iter                  A_solv                     rms
   LPB:       -0.382792595402846E+00   0.433272423552865E+00
   LPB:    0  -0.382778257688355E+00   0.425798860645364E+00  -0.870192E-03   0.000000E+00   0.378687E+02  -0.329530E-01
   LPB:    1  -0.381925582557307E+00   0.756743996297159E-01   0.113598E-01   0.000000E+00   0.721617E+02   0.929425E-18
   LPB:    2  -0.381816443869019E+00   0.191261424538474E-01   0.124727E-01   0.116575E+00   0.259059E+03   0.164630E-16
   LPB:    3  -0.381798015952225E+00   0.629098027403552E-02   0.215245E-01   0.978419E-01   0.163362E+03   0.632524E-16
   LPB:    4  -0.381786344504453E+00   0.875954200844787E-02   0.378570E-01   0.360110E+00   0.145802E+03  -0.750177E-17
  Finished solving LPB equations
  A_corr:   -0.288387202853989     
 End minimization
 Ecorr=   1747.43562132401     
 A_corr= -0.288387202853989     
 Ecorr_band=  -1747.72400852686     
 End Solvation calculations
RMM:  33    -0.178560090831E+03    0.42846E-03   -0.18636E-04  3633   0.175E-02    0.209E-01
 Begin Solvation calculations
  rms_SCF =   0.132423955647404      tol =   1.324239556474045E-002
 Begin minimization
 Creating dielectric and ionic cavities
  area:      177.943436650828     
  volume:    819.326623317214     
  Acav:     9.342030424168471E-002
  Solving linear dielectric/ionic screening model
        iter                  A_solv                     rms
   LPB:       -0.383783321624695E+00   0.351172694440466E+00
   LPB:    0  -0.383716978924741E+00   0.319664356676029E+00  -0.187194E-02   0.000000E+00   0.378650E+02  -0.708811E-01
   LPB:    1  -0.383136019123244E+00   0.589456580015399E-01   0.117232E-01   0.000000E+00   0.796591E+02  -0.183803E-18
   LPB:    2  -0.383081407015062E+00   0.186548760555896E-01   0.117366E-01   0.938960E-01   0.248442E+03   0.205738E-15
   LPB:    3  -0.383070540913755E+00   0.517144211793269E-02   0.204647E-01   0.114110E+00   0.120116E+03   0.263469E-15
   LPB:    4  -0.383061233642411E+00   0.678460502585800E-02   0.486356E-01   0.360413E+00   0.924250E+02   0.287885E-15
  Finished solving LPB equations
  A_corr:   -0.289640929400726     
 End minimization
 Ecorr=   1747.12787613770     
 A_corr= -0.289640929400726     
 Ecorr_band=  -1747.41751706710     
 End Solvation calculations
RMM:  34    -0.178560285284E+03   -0.19445E-03   -0.10437E-04  3167   0.255E-02    0.163E-01
 Begin Solvation calculations
  rms_SCF =   0.132423955647404      tol =   1.324239556474045E-002
 Begin minimization
 Creating dielectric and ionic cavities
  area:      177.932946192800     
  volume:    819.391502694000     
  Acav:     9.341479675121973E-002
  Solving linear dielectric/ionic screening model
        iter                  A_solv                     rms
   LPB:       -0.383121200768150E+00   0.143976125225232E+00
   LPB:    0  -0.383093717833635E+00   0.121495324159470E+00  -0.120488E-02   0.000000E+00   0.378619E+02  -0.456192E-01
   LPB:    1  -0.382943880491112E+00   0.318347330602112E-01   0.114325E-01   0.000000E+00   0.147797E+03  -0.348751E-17
   LPB:    2  -0.382932722505589E+00   0.835576529407220E-02   0.120952E-01   0.703873E-01   0.176300E+03   0.177482E-17
   LPB:    3  -0.382927899516372E+00   0.447965463265811E-02   0.267679E-01   0.195312E+00   0.194631E+03   0.622087E-16
   LPB:    4  -0.382923370997444E+00   0.925998087899718E-02   0.454954E-01   0.552442E+00   0.393686E+03   0.126103E-15
  Finished solving LPB equations
  A_corr:   -0.289508574246224     
 End minimization
 Ecorr=   1747.09885777643     
 A_corr= -0.289508574246224     
 Ecorr_band=  -1747.38836635067     
 End Solvation calculations
RMM:  35    -0.178560399308E+03   -0.11402E-03   -0.70743E-05  3021   0.126E-02    0.503E-02
 Begin Solvation calculations
  rms_SCF =   6.788487905704343E-002 tol =   6.788487905704343E-003
 Begin minimization
 Creating dielectric and ionic cavities
  area:      177.900897031009     
  volume:    819.399461309343     
  Acav:     9.339797094127961E-002
  Solving linear dielectric/ionic screening model
        iter                  A_solv                     rms
   LPB:       -0.382784495222562E+00   0.556225003079535E-01
   LPB:    0  -0.382782020660641E+00   0.476660347872817E-01  -0.361547E-03   0.000000E+00   0.378615E+02  -0.136887E-01
   LPB:    1  -0.382757010755414E+00   0.140617962441241E-01   0.110550E-01   0.000000E+00   0.160734E+03   0.180126E-19
   LPB:    2  -0.382754913934335E+00   0.357313501024250E-02   0.124893E-01   0.742111E-01   0.173021E+03   0.353577E-16
   LPB:    3  -0.382752556573899E+00   0.369221987130622E-02   0.558342E-01   0.251480E+00   0.239592E+03   0.389235E-16
   LPB:    4  -0.382746264992021E+00   0.443122898719393E-02   0.696238E-01   0.214031E+01   0.727332E+02   0.483430E-16
  Finished solving LPB equations
  A_corr:   -0.289348294050742     
 End minimization
 Ecorr=   1746.82998037421     
 A_corr= -0.289348294050742     
 Ecorr_band=  -1747.11932866826     
 End Solvation calculations
RMM:  36    -0.178560489657E+03   -0.90349E-04   -0.32780E-05  2464   0.132E-02    0.498E-02
 Begin Solvation calculations
  rms_SCF =   3.771023946179918E-002 tol =   3.771023946179918E-003
 Begin minimization
 Creating dielectric and ionic cavities
  area:      177.900375356596     
  volume:    819.364719745687     
  Acav:     9.339769706221296E-002
  Solving linear dielectric/ionic screening model
        iter                  A_solv                     rms
   LPB:       -0.382667827222129E+00   0.626049429858508E-01
   LPB:    0  -0.382660720138225E+00   0.413182588476570E-01  -0.612706E-03   0.000000E+00   0.378632E+02  -0.231990E-01
   LPB:    1  -0.382600496543842E+00   0.232238234683323E-01   0.125609E-01   0.000000E+00   0.322942E+03   0.124376E-17
   LPB:    2  -0.382596789834448E+00   0.646917939770764E-02   0.129622E-01   0.596438E-01   0.819965E+02   0.194267E-16
   LPB:    3  -0.382595567057775E+00   0.166730997508455E-02   0.182901E-01   0.233787E+00   0.452099E+03   0.197706E-16
   LPB:    4  -0.382594897834943E+00   0.201466855285221E-02   0.338421E-01   0.295789E+00   0.997309E+03   0.166846E-16
  Finished solving LPB equations
  A_corr:   -0.289197200772730     
 End minimization
 Ecorr=   1746.78790749024     
 A_corr= -0.289197200772730     
 Ecorr_band=  -1747.07710469102     
 End Solvation calculations
RMM:  37    -0.178560656338E+03   -0.16668E-03   -0.30065E-05  2428   0.698E-03    0.465E-02
 Begin Solvation calculations
  rms_SCF =   3.771023946179918E-002 tol =   3.771023946179918E-003
 Begin minimization
 Creating dielectric and ionic cavities
  area:      177.902560169820     
  volume:    819.360381605965     
  Acav:     9.339884408915528E-002
  Solving linear dielectric/ionic screening model
        iter                  A_solv                     rms
   LPB:       -0.382893344983565E+00   0.100772431741478E+00
   LPB:    0  -0.382885502026798E+00   0.850654139009152E-01  -0.643643E-03   0.000000E+00   0.378634E+02  -0.243705E-01
   LPB:    1  -0.382845427800870E+00   0.148836951953390E-01   0.102507E-01   0.000000E+00   0.940691E+02  -0.201248E-19
   LPB:    2  -0.382842270940954E+00   0.358292341507069E-02   0.119501E-01   0.675730E-01   0.170003E+03  -0.253397E-16
   LPB:    3  -0.382841588371180E+00   0.140381471312485E-02   0.237345E-01   0.108864E+00   0.126599E+03  -0.195978E-16
   LPB:    4  -0.382841020007006E+00   0.188911800151667E-02   0.513458E-01   0.384906E+00   0.935718E+02  -0.175177E-16
  Finished solving LPB equations
  A_corr:   -0.289442175917851     
 End minimization
 Ecorr=   1746.62472977194     
 A_corr= -0.289442175917851     
 Ecorr_band=  -1746.91417194786     
 End Solvation calculations
RMM:  38    -0.178560768544E+03   -0.11221E-03   -0.15560E-05  2249   0.520E-03    0.700E-02
 Begin Solvation calculations
  rms_SCF =   3.771023946179918E-002 tol =   3.771023946179918E-003
 Begin minimization
 Creating dielectric and ionic cavities
  area:      177.921391589043     
  volume:    819.358892813013     
  Acav:     9.340873058424733E-002
  Solving linear dielectric/ionic screening model
        iter                  A_solv                     rms
   LPB:       -0.384450646496388E+00   0.296904586600946E+00
   LPB:    0  -0.384412808707481E+00   0.269133216409971E+00  -0.141373E-02   0.000000E+00   0.378634E+02  -0.535289E-01
   LPB:    1  -0.384088726598044E+00   0.434139794188301E-01   0.105946E-01   0.000000E+00   0.746848E+02   0.176422E-17
   LPB:    2  -0.384052204877393E+00   0.107893060233677E-01   0.126951E-01   0.940465E-01   0.201315E+03  -0.559118E-16
   LPB:    3  -0.384047601582654E+00   0.384147594449876E-02   0.179209E-01   0.892882E-01   0.192486E+03  -0.356698E-16
   LPB:    4  -0.384046255503586E+00   0.324562419533198E-02   0.281638E-01   0.186068E+00   0.110551E+03  -0.340271E-16
  Finished solving LPB equations
  A_corr:   -0.290637524919339     
 End minimization
 Ecorr=   1746.30094429702     
 A_corr= -0.290637524919339     
 Ecorr_band=  -1746.59158182194     
 End Solvation calculations
RMM:  39    -0.178560812497E+03   -0.43953E-04   -0.26038E-05  2401   0.667E-03    0.183E-02
 Begin Solvation calculations
  rms_SCF =   1.081545929711283E-002 tol =   1.081545929711283E-003
 Begin minimization
 Creating dielectric and ionic cavities
  area:      177.929246770456     
  volume:    819.362478291205     
  Acav:     9.341285455448924E-002
  Solving linear dielectric/ionic screening model
        iter                  A_solv                     rms
   LPB:       -0.384511393015250E+00   0.125021853439314E+00
   LPB:    0  -0.384504360865948E+00   0.113526256310686E+00  -0.609467E-03   0.000000E+00   0.378633E+02  -0.230764E-01
   LPB:    1  -0.384447987946034E+00   0.174772120375827E-01   0.101263E-01   0.000000E+00   0.800801E+02  -0.115338E-18
   LPB:    2  -0.384442409101960E+00   0.467499151645362E-02   0.127674E-01   0.784911E-01   0.169279E+03  -0.233928E-15
   LPB:    3  -0.384441312024656E+00   0.202331431382236E-02   0.236020E-01   0.106377E+00   0.109404E+03  -0.305972E-15
   LPB:    4  -0.384440388496963E+00   0.211712639481373E-02   0.452161E-01   0.439409E+00   0.626296E+02  -0.310300E-15
   LPB:    5  -0.384439725684186E+00   0.308758853866801E-02   0.348179E-01   0.932033E+00   0.167037E+03  -0.297031E-15
   LPB:    6  -0.384439189802281E+00   0.277516704730020E-02   0.299875E-01   0.938731E+00   0.589372E+02  -0.308747E-15
   LPB:    7  -0.384438651895882E+00   0.146709772526648E-02   0.341402E-01   0.881681E+00   0.196331E+03  -0.332820E-15
   LPB:    8  -0.384438186426700E+00   0.874695960576145E-03   0.379691E-01   0.778073E+00   0.106337E+03  -0.358646E-15
  Finished solving LPB equations
  A_corr:   -0.291025331872211     
 End minimization
 Ecorr=   1745.93100016444     
 A_corr= -0.291025331872211     
 Ecorr_band=  -1746.22202549631     
 End Solvation calculations
RMM:  40    -0.178560843411E+03   -0.30915E-04   -0.10534E-05  2161   0.457E-03    0.208E-02
 Begin Solvation calculations
  rms_SCF =   1.081545929711283E-002 tol =   1.081545929711283E-003
 Begin minimization
 Creating dielectric and ionic cavities
  area:      177.938434073312     
  volume:    819.357451382817     
  Acav:     9.341767788848888E-002
  Solving linear dielectric/ionic screening model
        iter                  A_solv                     rms
   LPB:       -0.384874077204852E+00   0.111552290693815E+00
   LPB:    0  -0.384864288338707E+00   0.918989679115157E-01  -0.719069E-03   0.000000E+00   0.378635E+02  -0.272265E-01
   LPB:    1  -0.384823078038714E+00   0.148833285528340E-01   0.982531E-02   0.000000E+00   0.874353E+02  -0.169527E-18
   LPB:    2  -0.384819707715137E+00   0.323646294446542E-02   0.125581E-01   0.639866E-01   0.139649E+03  -0.220840E-15
   LPB:    3  -0.384819156063913E+00   0.140107042366871E-02   0.204093E-01   0.100713E+00   0.192490E+03  -0.217422E-15
   LPB:    4  -0.384818988986438E+00   0.118990796772726E-02   0.272170E-01   0.227113E+00   0.131979E+03  -0.215616E-15
   LPB:    5  -0.384818910636327E+00   0.112491546971641E-02   0.252634E-01   0.505208E+00   0.445616E+03  -0.223737E-15
   LPB:    6  -0.384818802522719E+00   0.845938524816113E-03   0.435322E-01   0.800797E+00   0.107563E+03  -0.227925E-15
  Finished solving LPB equations
  A_corr:   -0.291401124634230     
 End minimization
 Ecorr=   1745.76307195372     
 A_corr= -0.291401124634230     
 Ecorr_band=  -1746.05447307835     
 End Solvation calculations
RMM:  41    -0.178560891320E+03   -0.47909E-04   -0.11325E-05  2187   0.460E-03    0.439E-02
 Begin Solvation calculations
  rms_SCF =   1.081545929711283E-002 tol =   1.081545929711283E-003
 Begin minimization
 Creating dielectric and ionic cavities
  area:      177.942480036595     
  volume:    819.353154601440     
  Acav:     9.341980201921214E-002
  Solving linear dielectric/ionic screening model
        iter                  A_solv                     rms
   LPB:       -0.384953642810389E+00   0.419318566426266E-01
   LPB:    0  -0.384951265337345E+00   0.281259952089932E-01  -0.354373E-03   0.000000E+00   0.378637E+02  -0.134179E-01
   LPB:    1  -0.384944044259639E+00   0.852028824942047E-02   0.105153E-01   0.000000E+00   0.116632E+03  -0.199941E-18
   LPB:    2  -0.384943506990066E+00   0.125237519597263E-02   0.119169E-01   0.656519E-01   0.981300E+02   0.315047E-16
   LPB:    3  -0.384943372248256E+00   0.675000591470091E-03   0.228492E-01   0.130799E+00   0.359191E+03   0.455835E-16
   LPB:    4  -0.384943303911259E+00   0.896969765406272E-03   0.343450E-01   0.337413E+00   0.111920E+03   0.484600E-16
  Finished solving LPB equations
  A_corr:   -0.291523501892047     
 End minimization
 Ecorr=   1745.68833995128     
 A_corr= -0.291523501892047     
 Ecorr_band=  -1745.97986345317     
 End Solvation calculations
RMM:  42    -0.178560913407E+03   -0.22087E-04   -0.57500E-06  1873   0.318E-03    0.477E-02
 Begin Solvation calculations
  rms_SCF =   1.081545929711283E-002 tol =   1.081545929711283E-003
 Begin minimization
 Creating dielectric and ionic cavities
  area:      177.945764251668     
  volume:    819.344388695515     
  Acav:     9.342152623212573E-002
  Solving linear dielectric/ionic screening model
        iter                  A_solv                     rms
   LPB:       -0.385127649561286E+00   0.505889307114414E-01
   LPB:    0  -0.385124544211190E+00   0.331574511305698E-01  -0.405001E-03   0.000000E+00   0.378641E+02  -0.153350E-01
   LPB:    1  -0.385110869416959E+00   0.833113361217650E-02   0.125817E-01   0.000000E+00   0.101814E+03  -0.923377E-19
   LPB:    2  -0.385110139809963E+00   0.284995768510641E-02   0.139718E-01   0.480459E-01   0.102314E+03   0.161583E-15
   LPB:    3  -0.385109914435883E+00   0.170370425223572E-02   0.193617E-01   0.222907E+00   0.303403E+03   0.152391E-15
   LPB:    4  -0.385109797359499E+00   0.139694846847426E-02   0.242397E-01   0.414936E+00   0.958735E+02   0.165700E-15
   LPB:    5  -0.385109707680728E+00   0.102874524826851E-02   0.271984E-01   0.682660E+00   0.255860E+03   0.170271E-15
  Finished solving LPB equations
  A_corr:   -0.291688181448602     
 End minimization
 Ecorr=   1745.56897787580     
 A_corr= -0.291688181448602     
 Ecorr_band=  -1745.86066605725     
 End Solvation calculations
RMM:  43    -0.178560936258E+03   -0.22851E-04   -0.55807E-06  1513   0.246E-03    0.475E-02
 Begin Solvation calculations
  rms_SCF =   1.081545929711283E-002 tol =   1.081545929711283E-003
 Begin minimization
 Creating dielectric and ionic cavities
  area:      177.947667964641     
  volume:    819.339307425121     
  Acav:     9.342252568143676E-002
  Solving linear dielectric/ionic screening model
        iter                  A_solv                     rms
   LPB:       -0.385226132848418E+00   0.290865401923316E-01
   LPB:    0  -0.385225341768663E+00   0.207318832286098E-01  -0.204414E-03   0.000000E+00   0.378644E+02  -0.773999E-02
   LPB:    1  -0.385221491183443E+00   0.314499258414580E-02   0.124094E-01   0.000000E+00   0.805186E+02   0.316162E-18
   LPB:    2  -0.385221279074930E+00   0.103837410698542E-02   0.143462E-01   0.476480E-01   0.211153E+03   0.165438E-15
   LPB:    3  -0.385221208122410E+00   0.618495263792702E-03   0.277187E-01   0.173131E+00   0.141823E+03   0.188682E-15
   LPB:    4  -0.385221122285069E+00   0.105731094860452E-02   0.485666E-01   0.690468E+00   0.986833E+02   0.195248E-15
  Finished solving LPB equations
  A_corr:   -0.291798596603633     
 End minimization
 Ecorr=   1745.48652637172     
 A_corr= -0.291798596603633     
 Ecorr_band=  -1745.77832496832     
 End Solvation calculations
RMM:  44    -0.178560943066E+03   -0.68077E-05   -0.27862E-06  1170   0.191E-03
 Begin Solvation calculations
  rms_SCF =   1.081545929711283E-002 tol =   1.081545929711283E-003
 Begin minimization
 Creating dielectric and ionic cavities
  area:      177.949248806399     
  volume:    819.334435815613     
  Acav:     9.342335562335961E-002
  Solving linear dielectric/ionic screening model
        iter                  A_solv                     rms
   LPB:       -0.385386616830888E+00   0.546645652654794E-01
   LPB:    0  -0.385384552322404E+00   0.436102175803054E-01  -0.330223E-03   0.000000E+00   0.378646E+02  -0.125037E-01
   LPB:    1  -0.385370511634125E+00   0.616886125157943E-02   0.122629E-01   0.000000E+00   0.779285E+02   0.281503E-18
   LPB:    2  -0.385369711744883E+00   0.288804635430693E-02   0.126817E-01   0.550881E-01   0.314456E+03  -0.779080E-16
   LPB:    3  -0.385369532345108E+00   0.188410813496700E-02   0.187329E-01   0.151832E+00   0.120639E+03  -0.661547E-16
   LPB:    4  -0.385369449006260E+00   0.110104837034757E-02   0.226847E-01   0.383618E+00   0.112077E+03  -0.664014E-16
   LPB:    5  -0.385369375202509E+00   0.673747561029605E-03   0.301320E-01   0.666707E+00   0.195307E+03  -0.699681E-16
  Finished solving LPB equations
  A_corr:   -0.291946019579149     
 End minimization
 Ecorr=   1745.38197905142     
 A_corr= -0.291946019579149     
 Ecorr_band=  -1745.67392507099     
 End Solvation calculations
   1 F= -.17856094E+03 E0= -.17853689E+03  d E =-.178561E+03
quench:  g(F)=  0.000E+00 g(S)=  0.000E+00 dE (1.order)= 0.000E+00
 bond charge predicted
       N       E                     dE             d eps       ncg     rms          rms(c)
 Begin Solvation calculations
  rms_SCF =   1.081545929711283E-002 tol =   1.081545929711283E-003
 Begin minimization
 Creating dielectric and ionic cavities
  area:      178.025973117469     
  volume:    819.404608541322     
  Acav:     9.346363588667098E-002
  Solving linear dielectric/ionic screening model
        iter                  A_solv                     rms
   LPB:       -0.397779536551092E+00   0.996321624108664E-02
   LPB:    0  -0.397779536172598E+00   0.100102003267774E-01   0.447143E-05   0.000000E+00   0.378613E+02   0.169294E-03
   LPB:    1  -0.386818790414537E+00   0.361117344864255E-02   0.158437E-01   0.000000E+00   0.822523E+06  -0.127561E-19
   LPB:    2  -0.385716148147993E+00   0.372333439126918E-02   0.264692E-01   0.602157E-01   0.219150E+06  -0.421913E-17
   LPB:    3  -0.385390474422214E+00   0.632599609963197E-02   0.317399E-01   0.246311E+00   0.405735E+05  -0.913827E-17
   LPB:    4  -0.385259478230240E+00   0.144434352957862E-01   0.343248E-01   0.371940E+00   0.606280E+04  -0.916757E-18
   LPB:    5  -0.385201325769549E+00   0.297949281800430E-01   0.324593E-01   0.469438E+00   0.577499E+03  -0.574766E-16
   LPB:    6  -0.385175022291495E+00   0.266898314850400E-01   0.215883E-01   0.680089E+00   0.199543E+03   0.662499E-16
   LPB:    7  -0.385154508922685E+00   0.154339163926027E-01   0.247705E-01   0.679685E+00   0.399970E+03   0.387959E-16
   LPB:    8  -0.385142569551042E+00   0.176786674300168E-01   0.266863E-01   0.540245E+00   0.259849E+03   0.484780E-16
   LPB:    9  -0.385134298788618E+00   0.810253408526314E-02   0.234996E-01   0.786671E+00   0.246576E+03   0.773588E-16
   LPB:   10  -0.385127528867758E+00   0.217736000762020E-02   0.347482E-01   0.553561E+00   0.983039E+03   0.272675E-15
   LPB:   11  -0.385123269347538E+00   0.123657882297367E-02   0.397159E-01   0.550484E+00   0.719465E+04   0.379111E-15
   LPB:   12  -0.385120596485615E+00   0.158166638302778E-02   0.386556E-01   0.644716E+00   0.403020E+04   0.417562E-15
   LPB:   13  -0.385118960738402E+00   0.196179049467063E-02   0.362598E-01   0.652418E+00   0.202029E+04   0.441908E-15
   LPB:   14  -0.385117882384658E+00   0.148755419431535E-02   0.325046E-01   0.735403E+00   0.133604E+04   0.458080E-15
   LPB:   15  -0.385117079524049E+00   0.818115564500696E-03   0.354714E-01   0.682253E+00   0.244190E+04   0.472446E-15
  Finished solving LPB equations
  A_corr:   -0.291653443637378     
 End minimization
 Ecorr=   1745.29906562393     
 A_corr= -0.291653443637378     
 Ecorr_band=  -1745.59071906757     
 End Solvation calculations
DAV:   1    -0.178580018376E+03   -0.19082E-01   -0.79318E-01  3798   0.120E+00    0.125E+00
 Begin Solvation calculations
  rms_SCF =   1.081545929711283E-002 tol =   1.081545929711283E-003
 Begin minimization
 Creating dielectric and ionic cavities
  area:      178.251393970715     
  volume:    817.399581269256     
  Acav:     9.358198183462532E-002
  Solving linear dielectric/ionic screening model
        iter                  A_solv                     rms
   LPB:       -0.578897708963179E+00   0.602522179469600E+01
   LPB:    0  -0.553246315930294E+00   0.527603612881562E+01  -0.367650E-01   0.000000E+00   0.379553E+02  -0.139543E+01
   LPB:    1  -0.431628282770747E+00   0.685924585477674E+00   0.970057E-02   0.000000E+00   0.889272E+02  -0.960219E-17
   LPB:    2  -0.418244545276684E+00   0.163782608142677E+00   0.140024E-01   0.762383E-01   0.302428E+03   0.119763E-14
   LPB:    3  -0.415682865711902E+00   0.163569430721501E+00   0.236338E-01   0.113401E+00   0.391026E+03  -0.135620E-15
   LPB:    4  -0.414844738439352E+00   0.897293147376280E-01   0.202898E-01   0.381101E+00   0.158242E+03  -0.106062E-14
   LPB:    5  -0.414381469342150E+00   0.368472276726392E-01   0.265580E-01   0.422285E+00   0.424517E+03  -0.164541E-14
   LPB:    6  -0.414148494487298E+00   0.190833218320116E-01   0.317101E-01   0.421186E+00   0.422765E+03  -0.238417E-14
   LPB:    7  -0.414024207702193E+00   0.125456373991751E-01   0.323668E-01   0.522653E+00   0.677684E+03  -0.252327E-14
   LPB:    8  -0.413951695817508E+00   0.807176395022045E-02   0.337667E-01   0.559236E+00   0.663277E+03  -0.253182E-14
   LPB:    9  -0.413907487514870E+00   0.616065589163530E-02   0.359042E-01   0.573374E+00   0.685265E+03  -0.259026E-14
   LPB:   10  -0.413881165380289E+00   0.572088971042273E-02   0.352381E-01   0.606666E+00   0.704453E+03  -0.262644E-14
   LPB:   11  -0.413865347818859E+00   0.526969283589163E-02   0.339589E-01   0.623559E+00   0.732001E+03  -0.261053E-14
   LPB:   12  -0.413855269479385E+00   0.395473002600492E-02   0.334807E-01   0.646261E+00   0.617591E+03  -0.260033E-14
   LPB:   13  -0.413848521893726E+00   0.276080266928249E-02   0.350387E-01   0.639745E+00   0.858858E+03  -0.260444E-14
   LPB:   14  -0.413844111590892E+00   0.186222219989755E-02   0.358375E-01   0.639043E+00   0.779888E+03  -0.260831E-14
   LPB:   15  -0.413841273598309E+00   0.138380029919591E-02   0.367071E-01   0.628247E+00   0.100451E+04  -0.260469E-14
   LPB:   16  -0.413839433158722E+00   0.104445632360426E-02   0.366993E-01   0.648638E+00   0.114543E+04  -0.260613E-14
  Finished solving LPB equations
  A_corr:   -0.320257451324097     
 End minimization
 Ecorr=   1746.24965575218     
 A_corr= -0.320257451324097     
 Ecorr_band=  -1746.56991320350     
 End Solvation calculations
RMM:   2    -0.179137007127E+03   -0.55699E+00   -0.15260E-01  3700   0.480E-01    0.731E+00
 Begin Solvation calculations
  rms_SCF =   1.081545929711283E-002 tol =   1.081545929711283E-003
 Begin minimization
 Creating dielectric and ionic cavities
  area:      209.250079580706     
  volume:    819.657532901148     
  Acav:     0.109856291779871     
  Solving linear dielectric/ionic screening model
        iter                  A_solv                     rms
   LPB:       -0.550955052168722E+00   0.629248330805297E+01
   LPB:    0  -0.542380864225858E+00   0.607875186516192E+01   0.212854E-01   0.000000E+00   0.378494E+02   0.805640E+00
   LPB:    1  -0.413603646655652E+00   0.554646354861450E+00   0.900429E-02   0.000000E+00   0.852531E+02  -0.253205E-16
   LPB:    2  -0.402637852304495E+00   0.142798950201035E+00   0.148596E-01   0.515994E-01   0.223703E+03   0.522313E-15
   LPB:    3  -0.401011960335440E+00   0.114695279572343E+00   0.230629E-01   0.955308E-01   0.210285E+03   0.520942E-15
   LPB:    4  -0.400514355268710E+00   0.705372528316559E-01   0.219938E-01   0.320927E+00   0.180268E+03   0.382426E-15
   LPB:    5  -0.400254545634610E+00   0.322195541223639E-01   0.245737E-01   0.467305E+00   0.368339E+03  -0.284416E-15
   LPB:    6  -0.400107170852899E+00   0.187447567990797E-01   0.314025E-01   0.443890E+00   0.392064E+03  -0.115029E-14
   LPB:    7  -0.400020260097673E+00   0.127731892111809E-01   0.329762E-01   0.561582E+00   0.542516E+03  -0.191168E-14
   LPB:    8  -0.399963488886407E+00   0.699824923207426E-02   0.355919E-01   0.605207E+00   0.612579E+03  -0.238254E-14
   LPB:    9  -0.399926737743030E+00   0.534490012897740E-02   0.371806E-01   0.619694E+00   0.839931E+03  -0.271708E-14
   LPB:   10  -0.399904417599686E+00   0.536910266930598E-02   0.356831E-01   0.632820E+00   0.100609E+04  -0.293713E-14
   LPB:   11  -0.399890864209703E+00   0.496519902071352E-02   0.340386E-01   0.636564E+00   0.102084E+04  -0.307204E-14
   LPB:   12  -0.399882113882213E+00   0.371305655258092E-02   0.335444E-01   0.655131E+00   0.951017E+03  -0.315354E-14
   LPB:   13  -0.399876181570404E+00   0.249675385821817E-02   0.352222E-01   0.645657E+00   0.146630E+04  -0.321075E-14
   LPB:   14  -0.399872228222307E+00   0.166672598896245E-02   0.361517E-01   0.649276E+00   0.169794E+04  -0.325151E-14
   LPB:   15  -0.399869678229369E+00   0.124425570315622E-02   0.371370E-01   0.627908E+00   0.221871E+04  -0.327547E-14
   LPB:   16  -0.399867987829527E+00   0.957060572311743E-03   0.373331E-01   0.659422E+00   0.276038E+04  -0.329074E-14
  Finished solving LPB equations
  A_corr:   -0.290011696049656     
 End minimization
 Ecorr=   1744.01335908214     
 A_corr= -0.290011696049656     
 Ecorr_band=  -1744.30337077819     
 End Solvation calculations
RMM:   3    -0.178664038638E+03    0.47297E+00   -0.95287E-02  3700   0.522E-01    0.353E+00
 Begin Solvation calculations
  rms_SCF =   1.081545929711283E-002 tol =   1.081545929711283E-003
 Begin minimization
 Creating dielectric and ionic cavities
  area:      183.372254047373     
  volume:    819.229740776914     
  Acav:     9.627043337487073E-002
  Solving linear dielectric/ionic screening model
        iter                  A_solv                     rms
   LPB:       -0.410287120073106E+00   0.202892915116621E+01
   LPB:    0  -0.409477702745188E+00   0.195668337938418E+01   0.653817E-02   0.000000E+00   0.378695E+02   0.247597E+00
   LPB:    1  -0.396308806185572E+00   0.215730429376453E+00   0.899974E-02   0.000000E+00   0.836649E+02   0.558715E-17
   LPB:    2  -0.394790186163896E+00   0.333077062572700E-01   0.168701E-01   0.615193E-01   0.149114E+03  -0.117201E-14
   LPB:    3  -0.394601034644884E+00   0.242629336381823E-01   0.223566E-01   0.939884E-01   0.432374E+03  -0.793662E-15
   LPB:    4  -0.394533065104429E+00   0.273766916827226E-01   0.254944E-01   0.315111E+00   0.258962E+03  -0.736005E-15
   LPB:    5  -0.394501834675691E+00   0.200290240532624E-01   0.243107E-01   0.481850E+00   0.183690E+03  -0.787945E-15
   LPB:    6  -0.394481487441893E+00   0.852928327987628E-02   0.284320E-01   0.557079E+00   0.258989E+03  -0.930443E-15
   LPB:    7  -0.394468348325932E+00   0.405511668840316E-02   0.340951E-01   0.538489E+00   0.747697E+03  -0.108069E-14
   LPB:    8  -0.394459988852634E+00   0.270363217824532E-02   0.345886E-01   0.627151E+00   0.133435E+04  -0.119876E-14
   LPB:    9  -0.394454617620199E+00   0.189492328837285E-02   0.357069E-01   0.622409E+00   0.137219E+04  -0.127035E-14
   LPB:   10  -0.394451436677037E+00   0.171949896616780E-02   0.363133E-01   0.582329E+00   0.224005E+04  -0.131731E-14
   LPB:   11  -0.394449604925535E+00   0.185563192901078E-02   0.348503E-01   0.600026E+00   0.172833E+04  -0.134191E-14
   LPB:   12  -0.394448478477310E+00   0.150829549344995E-02   0.325659E-01   0.658094E+00   0.133180E+04  -0.135728E-14
   LPB:   13  -0.394447685239423E+00   0.950548297927473E-03   0.348215E-01   0.658580E+00   0.173311E+04  -0.136435E-14
  Finished solving LPB equations
  A_corr:   -0.298177251864552     
 End minimization
 Ecorr=   1744.32929207689     
 A_corr= -0.298177251864552     
 Ecorr_band=  -1744.62746932875     
 End Solvation calculations
RMM:   4    -0.178575540046E+03    0.88499E-01   -0.25214E-02  3702   0.311E-01    0.778E-01
 Begin Solvation calculations
  rms_SCF =   1.081545929711283E-002 tol =   1.081545929711283E-003
 Begin minimization
 Creating dielectric and ionic cavities
  area:      178.847436847674     
  volume:    819.023982906739     
  Acav:     9.389490434502895E-002
  Solving linear dielectric/ionic screening model
        iter                  A_solv                     rms
   LPB:       -0.395630809088461E+00   0.206312513518948E+00
   LPB:    0  -0.395558988797373E+00   0.147800887856467E+00  -0.194733E-02   0.000000E+00   0.378791E+02  -0.737630E-01
   LPB:    1  -0.395414877222044E+00   0.283397755768754E-01   0.107274E-01   0.000000E+00   0.102816E+03   0.219961E-17
   LPB:    2  -0.395393955008382E+00   0.109933808203450E-01   0.145897E-01   0.106747E+00   0.409294E+03  -0.692664E-16
   LPB:    3  -0.395386553572498E+00   0.996795292137510E-02   0.250734E-01   0.205846E+00   0.215914E+03  -0.771696E-16
   LPB:    4  -0.395382953427748E+00   0.794635546380835E-02   0.253706E-01   0.480714E+00   0.199953E+03  -0.366410E-16
   LPB:    5  -0.395380141649404E+00   0.343411687258442E-02   0.279784E-01   0.708221E+00   0.329952E+03   0.291079E-16
   LPB:    6  -0.395377875550074E+00   0.118026888377155E-02   0.410079E-01   0.549861E+00   0.697933E+03   0.936300E-16
   LPB:    7  -0.395376282208057E+00   0.130714180176837E-02   0.423251E-01   0.681239E+00   0.183233E+04   0.122219E-15
   LPB:    8  -0.395375299106425E+00   0.159615940872535E-02   0.354989E-01   0.735653E+00   0.147540E+04   0.136442E-15
   LPB:    9  -0.395374582868436E+00   0.107433985102260E-02   0.357140E-01   0.724161E+00   0.795235E+03   0.143230E-15
  Finished solving LPB equations
  A_corr:   -0.301479678523407     
 End minimization
 Ecorr=   1744.58030097861     
 A_corr= -0.301479678523407     
 Ecorr_band=  -1744.88178065714     
 End Solvation calculations
RMM:   5    -0.178572362879E+03    0.31772E-02   -0.37040E-03  3702   0.120E-01    0.470E-01
 Begin Solvation calculations
  rms_SCF =   1.081545929711283E-002 tol =   1.081545929711283E-003
 Begin minimization
 Creating dielectric and ionic cavities
  area:      178.089812028897     
  volume:    819.074256066309     
  Acav:     9.349715131517100E-002
  Solving linear dielectric/ionic screening model
        iter                  A_solv                     rms
   LPB:       -0.396770888673274E+00   0.784649195520969E-01
   LPB:    0  -0.396766725267447E+00   0.627139435525519E-01  -0.468870E-03   0.000000E+00   0.378768E+02  -0.177593E-01
   LPB:    1  -0.396630872079266E+00   0.316692202215319E-01   0.151645E-01   0.000000E+00   0.250134E+03   0.364192E-18
   LPB:    2  -0.396619288326514E+00   0.154660428750783E-01   0.156087E-01   0.828401E-01   0.930251E+02  -0.106711E-15
   LPB:    3  -0.396614937822413E+00   0.349748125573383E-02   0.169362E-01   0.346130E+00   0.300583E+03  -0.134793E-15
   LPB:    4  -0.396612713858344E+00   0.189314837739644E-02   0.295143E-01   0.293341E+00   0.642314E+03  -0.146159E-15
   LPB:    5  -0.396611558429976E+00   0.156336978587469E-02   0.332700E-01   0.460887E+00   0.328813E+03  -0.150030E-15
   LPB:    6  -0.396610737976846E+00   0.120355387488836E-02   0.355237E-01   0.665037E+00   0.348185E+03  -0.134701E-15
   LPB:    7  -0.396610116894287E+00   0.108644818641389E-02   0.377398E-01   0.712548E+00   0.537474E+03  -0.120731E-15
   LPB:    8  -0.396609662316091E+00   0.136440713964709E-02   0.369494E-01   0.747569E+00   0.299743E+03  -0.110055E-15
   LPB:    9  -0.396609334207134E+00   0.165817611749841E-02   0.343423E-01   0.776581E+00   0.720590E+03  -0.113495E-15
   LPB:   10  -0.396609111512820E+00   0.169261572874653E-02   0.299375E-01   0.778584E+00   0.182359E+03  -0.122911E-15
   LPB:   11  -0.396608960230200E+00   0.108524070107625E-02   0.278914E-01   0.729164E+00   0.403950E+03  -0.144875E-15
   LPB:   12  -0.396608852605142E+00   0.588273489590474E-03   0.309050E-01   0.642046E+00   0.416482E+03  -0.148533E-15
  Finished solving LPB equations
  A_corr:   -0.303111701289971     
 End minimization
 Ecorr=   1744.08538256428     
 A_corr= -0.303111701289971     
 Ecorr_band=  -1744.38849426557     
 End Solvation calculations
RMM:   6    -0.178571508925E+03    0.85395E-03   -0.15625E-03  3714   0.682E-02    0.242E-01
 Begin Solvation calculations
  rms_SCF =   1.081545929711283E-002 tol =   1.081545929711283E-003
 Begin minimization
 Creating dielectric and ionic cavities
  area:      177.923689094695     
  volume:    819.107775978408     
  Acav:     9.340993677471507E-002
  Solving linear dielectric/ionic screening model
        iter                  A_solv                     rms
   LPB:       -0.398785112521504E+00   0.113732034313189E+00
   LPB:    0  -0.398770862811803E+00   0.789296839642538E-01  -0.867442E-03   0.000000E+00   0.378752E+02  -0.328546E-01
   LPB:    1  -0.398613464168146E+00   0.354870450435125E-01   0.153762E-01   0.000000E+00   0.160907E+03   0.236878E-18
   LPB:    2  -0.398599322748878E+00   0.153162281513874E-01   0.147224E-01   0.938347E-01   0.116071E+03  -0.195987E-15
   LPB:    3  -0.398594227960175E+00   0.447478888142264E-02   0.176540E-01   0.300448E+00   0.353340E+03  -0.213631E-15
   LPB:    4  -0.398592174357779E+00   0.436752981029625E-02   0.253972E-01   0.280186E+00   0.260939E+03  -0.219118E-15
   LPB:    5  -0.398591286546447E+00   0.377959456722565E-02   0.226703E-01   0.484322E+00   0.313627E+03  -0.171378E-15
   LPB:    6  -0.398590714873612E+00   0.153523394660298E-02   0.273243E-01   0.534238E+00   0.148839E+03  -0.175284E-15
   LPB:    7  -0.398590377130659E+00   0.885268856774035E-03   0.328031E-01   0.492122E+00   0.862119E+03  -0.178334E-15
  Finished solving LPB equations
  A_corr:   -0.305180440355944     
 End minimization
 Ecorr=   1743.70392079703     
 A_corr= -0.305180440355944     
 Ecorr_band=  -1744.00910123738     
 End Solvation calculations
RMM:   7    -0.178571134831E+03    0.37409E-03   -0.86104E-04  3700   0.639E-02    0.210E-01
 Begin Solvation calculations
  rms_SCF =   1.081545929711283E-002 tol =   1.081545929711283E-003
 Begin minimization
 Creating dielectric and ionic cavities
  area:      177.939354998660     
  volume:    819.116930052809     
  Acav:     9.341816137429645E-002
  Solving linear dielectric/ionic screening model
        iter                  A_solv                     rms
   LPB:       -0.402522375355425E+00   0.289180523102841E+00
   LPB:    0  -0.402392801277238E+00   0.181587844591522E+00  -0.261577E-02   0.000000E+00   0.378748E+02  -0.990716E-01
   LPB:    1  -0.401890054252458E+00   0.774180377592156E-01   0.139203E-01   0.000000E+00   0.117442E+03   0.319256E-17
   LPB:    2  -0.401837926130113E+00   0.186337526318619E-01   0.129532E-01   0.111429E+00   0.128687E+03   0.210145E-14
   LPB:    3  -0.401822280550585E+00   0.106025885276097E-01   0.196428E-01   0.197921E+00   0.415887E+03   0.230442E-14
   LPB:    4  -0.401817111372333E+00   0.880011052149144E-02   0.216893E-01   0.299218E+00   0.136338E+03   0.235896E-14
   LPB:    5  -0.401814303285710E+00   0.511778910574927E-02   0.235615E-01   0.500070E+00   0.325446E+03   0.252215E-14
   LPB:    6  -0.401812529069676E+00   0.179261008191983E-02   0.325213E-01   0.457753E+00   0.153622E+03   0.262315E-14
   LPB:    7  -0.401811504609780E+00   0.123551127303954E-02   0.337584E-01   0.556255E+00   0.407215E+03   0.268526E-14
   LPB:    8  -0.401810869127955E+00   0.893659798332451E-03   0.340875E-01   0.614322E+00   0.296752E+03   0.270235E-14
  Finished solving LPB equations
  A_corr:   -0.308392707753659     
 End minimization
 Ecorr=   1743.16181494189     
 A_corr= -0.308392707753659     
 Ecorr_band=  -1743.47020764965     
 End Solvation calculations
RMM:   8    -0.178570882841E+03    0.25199E-03   -0.43139E-04  3694   0.398E-02    0.154E-01
 Begin Solvation calculations
  rms_SCF =   1.081545929711283E-002 tol =   1.081545929711283E-003
 Begin minimization
 Creating dielectric and ionic cavities
  area:      177.942154398943     
  volume:    819.135869271717     
  Acav:     9.341963105944508E-002
  Solving linear dielectric/ionic screening model
        iter                  A_solv                     rms
   LPB:       -0.403887357071595E+00   0.180375876433102E+00
   LPB:    0  -0.403842185306079E+00   0.120766642805044E+00  -0.154447E-02   0.000000E+00   0.378739E+02  -0.584950E-01
   LPB:    1  -0.403663286333713E+00   0.502286596906671E-01   0.129869E-01   0.000000E+00   0.113162E+03   0.242279E-17
   LPB:    2  -0.403643127834581E+00   0.918333312756935E-02   0.124587E-01   0.117458E+00   0.127023E+03   0.343627E-15
   LPB:    3  -0.403637854077517E+00   0.613812584507528E-02   0.204666E-01   0.159254E+00   0.390261E+03   0.391342E-15
   LPB:    4  -0.403636133784634E+00   0.465684329248583E-02   0.222698E-01   0.299786E+00   0.118081E+03   0.402576E-15
   LPB:    5  -0.403635152081730E+00   0.330696218992184E-02   0.253377E-01   0.501564E+00   0.341748E+03   0.454481E-15
   LPB:    6  -0.403634341972380E+00   0.137516827123730E-02   0.365142E-01   0.572622E+00   0.102290E+03   0.488955E-15
   LPB:    7  -0.403633736066117E+00   0.104751400482876E-02   0.360667E-01   0.757213E+00   0.198973E+03   0.479816E-15
  Finished solving LPB equations
  A_corr:   -0.310214105006672     
 End minimization
 Ecorr=   1742.78132975344     
 A_corr= -0.310214105006672     
 Ecorr_band=  -1743.09154385845     
 End Solvation calculations
[...]
   LPB:    3  -0.470493577006935E+00   0.338804593721223E-03   0.331394E-01   0.289169E+00   0.836844E+05   0.623916E-18
   LPB:    4  -0.470492795437652E+00   0.858473812138282E-03   0.352757E-01   0.404751E+00   0.120004E+05  -0.592930E-18
   LPB:    5  -0.470492432170828E+00   0.210365430142303E-02   0.343491E-01   0.477330E+00   0.104080E+04  -0.316448E-17
   LPB:    6  -0.470492276446486E+00   0.240419231695280E-02   0.225445E-01   0.653138E+00   0.214295E+03  -0.104844E-17
   LPB:    7  -0.470492154325457E+00   0.982832511545128E-03   0.226637E-01   0.780087E+00   0.351467E+03   0.598117E-17
   LPB:    8  -0.470492073073091E+00   0.114423892849167E-02   0.311423E-01   0.484201E+00   0.440415E+03   0.115683E-16
   LPB:    9  -0.470492026593070E+00   0.838717997150096E-03   0.240509E-01   0.740713E+00   0.192862E+03   0.159777E-16
   LPB:   10  -0.470491987638763E+00   0.281716620859416E-03   0.304911E-01   0.661070E+00   0.495322E+03   0.204318E-16
  Finished solving LPB equations
  A_corr:   -0.375846722277527     
 End minimization
 Ecorr=   1728.90958059919     
 A_corr= -0.375846722277527     
 Ecorr_band=  -1729.28542732147     
 End Solvation calculations
DAV:   1    -0.178592084224E+03   -0.89496E-04   -0.38147E-03  3762   0.987E-02    0.350E-02
 Begin Solvation calculations
  rms_SCF =   3.338260579696558E-003 tol =   3.338260579696558E-004
 Begin minimization
 Creating dielectric and ionic cavities
  area:      180.271654079588     
  volume:    821.164023878447     
  Acav:     9.464261839178363E-002
  Solving linear dielectric/ionic screening model
        iter                  A_solv                     rms
   LPB:       -0.471227718231160E+00   0.158589842870026E+00
   LPB:    0  -0.471215519380696E+00   0.145422811356599E+00  -0.803619E-03   0.000000E+00   0.377788E+02  -0.303598E-01
   LPB:    1  -0.471132620652532E+00   0.153929849739757E-01   0.937873E-02   0.000000E+00   0.868063E+02   0.179127E-17
   LPB:    2  -0.471124477984455E+00   0.394221495914822E-02   0.143525E-01   0.641854E-01   0.277716E+03  -0.561704E-16
   LPB:    3  -0.471123008715827E+00   0.385377893330692E-02   0.238903E-01   0.108402E+00   0.321757E+03  -0.571284E-16
   LPB:    4  -0.471122524352778E+00   0.212515589018223E-02   0.208912E-01   0.376989E+00   0.160782E+03  -0.290451E-16
   LPB:    5  -0.471122258318141E+00   0.889094951649528E-03   0.261502E-01   0.438789E+00   0.436679E+03  -0.366887E-16
   LPB:    6  -0.471122118234599E+00   0.501763316365821E-03   0.317000E-01   0.434374E+00   0.428667E+03  -0.426585E-16
   LPB:    7  -0.471122040942161E+00   0.338128903081855E-03   0.325657E-01   0.537093E+00   0.634916E+03  -0.482424E-16
   LPB:    8  -0.471121994182341E+00   0.203469648887149E-03   0.344820E-01   0.571352E+00   0.632700E+03  -0.523491E-16
  Finished solving LPB equations
  A_corr:   -0.376479375790557     
 End minimization
 Ecorr=   1728.94247217836     
 A_corr= -0.376479375790557     
 Ecorr_band=  -1729.31895155415     
 End Solvation calculations
RMM:   2    -0.178592605810E+03   -0.52159E-03   -0.21034E-04  3378   0.221E-02    0.318E-01
 Begin Solvation calculations
  rms_SCF =   3.338260579696558E-003 tol =   3.338260579696558E-004
 Begin minimization
 Creating dielectric and ionic cavities
  area:      180.273566779402     
  volume:    821.207407459613     
  Acav:     9.464362255918579E-002
  Solving linear dielectric/ionic screening model
        iter                  A_solv                     rms
   LPB:       -0.470799246856178E+00   0.170802542937495E+00
   LPB:    0  -0.470791899315105E+00   0.163787226778577E+00   0.623697E-03   0.000000E+00   0.377768E+02   0.235613E-01
   LPB:    1  -0.470694400146616E+00   0.151427135944888E-01   0.911211E-02   0.000000E+00   0.865698E+02  -0.427262E-18
   LPB:    2  -0.470685827891853E+00   0.394022530665403E-02   0.146503E-01   0.546849E-01   0.255203E+03  -0.142608E-16
   LPB:    3  -0.470684373861985E+00   0.350276134949440E-02   0.242606E-01   0.102429E+00   0.240631E+03  -0.384974E-16
   LPB:    4  -0.470683870266679E+00   0.238261672119640E-02   0.231488E-01   0.362980E+00   0.180730E+03  -0.192005E-16
   LPB:    5  -0.470683580938576E+00   0.103217857253838E-02   0.250325E-01   0.531291E+00   0.426116E+03  -0.285388E-16
   LPB:    6  -0.470683416489866E+00   0.584040549774228E-03   0.318145E-01   0.447218E+00   0.517314E+03  -0.215551E-16
   LPB:    7  -0.470683319609821E+00   0.423140069261119E-03   0.333566E-01   0.561886E+00   0.934950E+03  -0.228647E-16
   LPB:    8  -0.470683256993083E+00   0.249019894340541E-03   0.351632E-01   0.613125E+00   0.115613E+04  -0.314863E-16
  Finished solving LPB equations
  A_corr:   -0.376039634433897     
 End minimization
 Ecorr=   1728.89371943151     
 A_corr= -0.376039634433897     
 Ecorr_band=  -1729.26975906594     
 End Solvation calculations
RMM:   3    -0.178592109646E+03    0.49616E-03   -0.10860E-04  3182   0.268E-02    0.640E-02
 Begin Solvation calculations
  rms_SCF =   3.338260579696558E-003 tol =   3.338260579696558E-004
 Begin minimization
 Creating dielectric and ionic cavities
  area:      180.267019873940     
  volume:    821.207529497133     
  Acav:     9.464018543381854E-002
  Solving linear dielectric/ionic screening model
        iter                  A_solv                     rms
   LPB:       -0.470612441849464E+00   0.426894477305437E-01
   LPB:    0  -0.470612313248340E+00   0.421103194490981E-01   0.825135E-04   0.000000E+00   0.377768E+02   0.311709E-02
   LPB:    1  -0.470604908200027E+00   0.479922925021441E-02   0.942420E-02   0.000000E+00   0.933884E+02   0.158944E-18
   LPB:    2  -0.470604019853012E+00   0.998940873271838E-03   0.153241E-01   0.737773E-01   0.312786E+03  -0.294517E-17
   LPB:    3  -0.470603808273848E+00   0.585816212402253E-03   0.271952E-01   0.134207E+00   0.287121E+03   0.292022E-17
   LPB:    4  -0.470603697224911E+00   0.554263265213880E-03   0.369325E-01   0.386479E+00   0.176262E+04   0.738995E-17
   LPB:    5  -0.470603653395534E+00   0.804570424158309E-03   0.284837E-01   0.511756E+00   0.329385E+03   0.102925E-16
   LPB:    6  -0.470603629310858E+00   0.501450290690227E-03   0.244043E-01   0.641365E+00   0.203729E+03   0.136346E-16
   LPB:    7  -0.470603612709996E+00   0.265317799305298E-03   0.305553E-01   0.550517E+00   0.443524E+03   0.122200E-16
  Finished solving LPB equations
  A_corr:   -0.375963427276177     
 End minimization
 Ecorr=   1728.90371853409     
 A_corr= -0.375963427276177     
 Ecorr_band=  -1729.27968196137     
 End Solvation calculations
RMM:   4    -0.178592086539E+03    0.23107E-04   -0.32777E-05  2367   0.190E-02    0.177E-02
 Begin Solvation calculations
  rms_SCF =   3.338260579696558E-003 tol =   3.338260579696558E-004
 Begin minimization
 Creating dielectric and ionic cavities
  area:      180.270550037990     
  volume:    821.201186117072     
  Acav:     9.464203876994477E-002
  Solving linear dielectric/ionic screening model
        iter                  A_solv                     rms
   LPB:       -0.470729748602741E+00   0.140219831981179E-01
   LPB:    0  -0.470729387363678E+00   0.903084222656367E-02  -0.138292E-03   0.000000E+00   0.377771E+02  -0.522428E-02
   LPB:    1  -0.470728766848596E+00   0.238273587921675E-02   0.118058E-01   0.000000E+00   0.904702E+02   0.579033E-19
   LPB:    2  -0.470728656336938E+00   0.826098600124980E-03   0.142267E-01   0.147791E+00   0.256894E+03  -0.637062E-16
   LPB:    3  -0.470728629985129E+00   0.656197178939065E-03   0.223304E-01   0.151918E+00   0.188462E+03  -0.747750E-16
   LPB:    4  -0.470728615224445E+00   0.416575809498605E-03   0.252975E-01   0.494442E+00   0.182664E+03  -0.764355E-16
   LPB:    5  -0.470728603748196E+00   0.187722669535649E-03   0.298473E-01   0.658970E+00   0.593695E+03  -0.770427E-16
  Finished solving LPB equations
  A_corr:   -0.376086564978251     
 End minimization
 Ecorr=   1728.90988487917     
 A_corr= -0.376086564978251     
 Ecorr_band=  -1729.28597144415     
 End Solvation calculations
RMM:   5    -0.178592089811E+03   -0.32719E-05   -0.61123E-06  1993   0.623E-03
 Begin Solvation calculations
  rms_SCF =   3.338260579696558E-003 tol =   3.338260579696558E-004
 Begin minimization
 Creating dielectric and ionic cavities
  area:      180.270328171692     
  volume:    821.203927103542     
  Acav:     9.464192229013806E-002
  Solving linear dielectric/ionic screening model
        iter                  A_solv                     rms
   LPB:       -0.470735396416306E+00   0.586898474907240E-02
   LPB:    0  -0.470735390072232E+00   0.573224486209991E-02   0.183268E-04   0.000000E+00   0.377769E+02   0.692329E-03
   LPB:    1  -0.470735246799397E+00   0.664001554619008E-03   0.950330E-02   0.000000E+00   0.960392E+02   0.184837E-19
   LPB:    2  -0.470735228049629E+00   0.177506327415144E-03   0.159346E-01   0.780487E-01   0.453435E+03  -0.224256E-17
   LPB:    3  -0.470735221342600E+00   0.185364154291114E-03   0.309949E-01   0.183901E+00   0.378434E+03  -0.338864E-17
   LPB:    4  -0.470735216706981E+00   0.299314510040230E-03   0.352666E-01   0.607441E+00   0.398201E+03  -0.126249E-17
  Finished solving LPB equations
  A_corr:   -0.376093294416843     
 End minimization
 Ecorr=   1728.90325801246     
 A_corr= -0.376093294416843     
 Ecorr_band=  -1729.27935130688     
 End Solvation calculations
 239 F= -.17859209E+03 E0= -.17856818E+03  d E =-.909780E-04
quench:  g(F)=  0.000E+00 g(S)=  0.000E+00 dE (1.order)= 0.000E+00
 bond charge predicted
       N       E                     dE             d eps       ncg     rms          rms(c)
 Begin Solvation calculations
  rms_SCF =   3.338260579696558E-003 tol =   3.338260579696558E-004
 Begin minimization
 Creating dielectric and ionic cavities
  area:      180.273977265604     
  volume:    821.208810453442     
  Acav:     9.464383806444185E-002
  Solving linear dielectric/ionic screening model
        iter                  A_solv                     rms
   LPB:       -0.470773240172139E+00   0.772865931485824E-03
   LPB:    0  -0.470773240168196E+00   0.783208580458423E-03   0.456894E-06   0.000000E+00   0.377767E+02   0.172600E-04
   LPB:    1  -0.470720081022626E+00   0.303909856253366E-03   0.154050E-01   0.000000E+00   0.606706E+06   0.975512E-21
   LPB:    2  -0.470715231477131E+00   0.369498284501157E-03   0.266875E-01   0.526594E-01   0.137793E+06  -0.569722E-19
   LPB:    3  -0.470713701075583E+00   0.771360450388267E-03   0.324138E-01   0.259826E+00   0.214211E+05   0.719510E-19
   LPB:    4  -0.470713065117809E+00   0.182532339037415E-02   0.340785E-01   0.395250E+00   0.214328E+04   0.289216E-17
   LPB:    5  -0.470712802780937E+00   0.298750232173033E-02   0.269688E-01   0.521254E+00   0.288835E+03   0.706830E-17
   LPB:    6  -0.470712648414785E+00   0.144543583009531E-02   0.196341E-01   0.808246E+00   0.236538E+03   0.332558E-17
   LPB:    7  -0.470712532230876E+00   0.121640113965280E-02   0.295440E-01   0.500192E+00   0.539892E+03  -0.188480E-17
   LPB:    8  -0.470712469544543E+00   0.113565563894735E-02   0.250308E-01   0.636828E+00   0.195754E+03  -0.644863E-17
   LPB:    9  -0.470712419430015E+00   0.404586658770797E-03   0.272648E-01   0.733942E+00   0.352181E+03  -0.161818E-16
   LPB:   10  -0.470712381929168E+00   0.113919350112898E-03   0.379687E-01   0.537346E+00   0.206057E+04  -0.351961E-16
  Finished solving LPB equations
  A_corr:   -0.376068543864727     
 End minimization
 Ecorr=   1728.90025302237     
 A_corr= -0.376068543864727     
 Ecorr_band=  -1729.27632156624     
 End Solvation calculations
DAV:   1    -0.178592164263E+03   -0.77723E-04   -0.40351E-03  3789   0.983E-02    0.421E-02
 Begin Solvation calculations
  rms_SCF =   3.338260579696558E-003 tol =   3.338260579696558E-004
 Begin minimization
 Creating dielectric and ionic cavities
  area:      180.278029532248     
  volume:    821.277037435184     
  Acav:     9.464596550443029E-002
  Solving linear dielectric/ionic screening model
        iter                  A_solv                     rms
   LPB:       -0.469992424427545E+00   0.206564110456662E+00
   LPB:    0  -0.469966979726225E+00   0.185131142651443E+00   0.116070E-02   0.000000E+00   0.377735E+02   0.438437E-01
   LPB:    1  -0.469827690034264E+00   0.208157500774459E-01   0.947794E-02   0.000000E+00   0.873778E+02  -0.398037E-17
   LPB:    2  -0.469813726134459E+00   0.534511250370956E-02   0.142147E-01   0.668442E-01   0.281731E+03  -0.173630E-16
   LPB:    3  -0.469811148363565E+00   0.522277241218445E-02   0.236545E-01   0.110933E+00   0.336087E+03  -0.616210E-16
   LPB:    4  -0.469810285209189E+00   0.278903656981760E-02   0.205948E-01   0.384593E+00   0.161784E+03  -0.944759E-16
   LPB:    5  -0.469809804597453E+00   0.115353286207485E-02   0.268149E-01   0.427648E+00   0.436505E+03  -0.145429E-15
   LPB:    6  -0.469809553649095E+00   0.644336311129016E-03   0.319910E-01   0.437661E+00   0.439291E+03  -0.194472E-15
   LPB:    7  -0.469809414744189E+00   0.432917653972147E-03   0.327733E-01   0.540306E+00   0.631017E+03  -0.232904E-15
   LPB:    8  -0.469809330743648E+00   0.273884971754069E-03   0.344897E-01   0.574641E+00   0.640560E+03  -0.247982E-15
  Finished solving LPB equations
  A_corr:   -0.375163365239218     
 End minimization
 Ecorr=   1728.85477202962     
 A_corr= -0.375163365239218     
 Ecorr_band=  -1729.22993539485     
 End Solvation calculations
RMM:   2    -0.178592999200E+03   -0.83494E-03   -0.28646E-04  3385   0.231E-02    0.395E-01
 Begin Solvation calculations
  rms_SCF =   3.338260579696558E-003 tol =   3.338260579696558E-004
 Begin minimization
 Creating dielectric and ionic cavities
  area:      180.376310294878     
  volume:    821.224760882303     
  Acav:     9.469756290481107E-002
  Solving linear dielectric/ionic screening model
        iter                  A_solv                     rms
   LPB:       -0.470567355758833E+00   0.213322730781753E+00
   LPB:    0  -0.470554594274130E+00   0.203570049159489E+00  -0.821973E-03   0.000000E+00   0.377760E+02  -0.310508E-01
   LPB:    1  -0.470403115129667E+00   0.189030210948796E-01   0.912709E-02   0.000000E+00   0.866614E+02   0.125129E-17
   LPB:    2  -0.470389775438692E+00   0.499905788444842E-02   0.146064E-01   0.550279E-01   0.258321E+03  -0.844422E-16
   LPB:    3  -0.470387501002196E+00   0.449021133252971E-02   0.242354E-01   0.102759E+00   0.237991E+03  -0.102939E-15
   LPB:    4  -0.470386700035496E+00   0.298325132062456E-02   0.229893E-01   0.371249E+00   0.179796E+03  -0.123633E-15
   LPB:    5  -0.470386236882483E+00   0.124886784821770E-02   0.251820E-01   0.527893E+00   0.439430E+03  -0.116859E-15
   LPB:    6  -0.470385984358340E+00   0.699268373083387E-03   0.314817E-01   0.436124E+00   0.557233E+03  -0.104083E-15
   LPB:    7  -0.470385836664861E+00   0.513086059419717E-03   0.335492E-01   0.548827E+00   0.997730E+03  -0.103882E-15
   LPB:    8  -0.470385740334383E+00   0.310281061259718E-03   0.353330E-01   0.619303E+00   0.122158E+04  -0.106793E-15
  Finished solving LPB equations
  A_corr:   -0.375688177429571     
 End minimization
 Ecorr=   1728.92156258688     
 A_corr= -0.375688177429571     
 Ecorr_band=  -1729.29725076431     
 End Solvation calculations
RMM:   3    -0.178592224053E+03    0.77515E-03   -0.16069E-04  3471   0.313E-02    0.762E-02
 Begin Solvation calculations
  rms_SCF =   3.338260579696558E-003 tol =   3.338260579696558E-004
 Begin minimization
 Creating dielectric and ionic cavities
  area:      180.288205395067     
  volume:    821.217795238071     
  Acav:     9.465130783241039E-002
  Solving linear dielectric/ionic screening model
        iter                  A_solv                     rms
   LPB:       -0.470533526140444E+00   0.514363412369893E-01
   LPB:    0  -0.470533112612657E+00   0.499741927348208E-01  -0.147965E-03   0.000000E+00   0.377763E+02  -0.558955E-02
   LPB:    1  -0.470522563853860E+00   0.593916727373528E-02   0.946996E-02   0.000000E+00   0.930301E+02   0.215449E-19
   LPB:    2  -0.470521254079379E+00   0.122045230342863E-02   0.153834E-01   0.764345E-01   0.295323E+03  -0.323698E-16
   LPB:    3  -0.470520953963878E+00   0.773519268851639E-03   0.265216E-01   0.132907E+00   0.299632E+03  -0.455826E-16
   LPB:    4  -0.470520801066641E+00   0.109048691411301E-02   0.349396E-01   0.386716E+00   0.812348E+03  -0.483847E-16
   LPB:    5  -0.470520741719375E+00   0.102634517519624E-02   0.236296E-01   0.573934E+00   0.189331E+03  -0.492981E-16
   LPB:    6  -0.470520703630795E+00   0.396372989926939E-03   0.258276E-01   0.587173E+00   0.267733E+03  -0.585610E-16
   LPB:    7  -0.470520680278117E+00   0.216400771809193E-03   0.339496E-01   0.466436E+00   0.973879E+03  -0.606115E-16
  Finished solving LPB equations
  A_corr:   -0.375869372445707     
 End minimization
 Ecorr=   1728.91365091782     
 A_corr= -0.375869372445707     
 Ecorr_band=  -1729.28952029027     
 End Solvation calculations
RMM:   4    -0.178592159040E+03    0.65013E-04   -0.40705E-05  2435   0.204E-02    0.193E-02
 Begin Solvation calculations
  rms_SCF =   3.338260579696558E-003 tol =   3.338260579696558E-004
 Begin minimization
 Creating dielectric and ionic cavities
  area:      180.278397044157     
  volume:    821.220845236035     
  Acav:     9.464615844818268E-002
  Solving linear dielectric/ionic screening model
        iter                  A_solv                     rms
   LPB:       -0.470426455134008E+00   0.105660573407694E-01
   LPB:    0  -0.470426278041653E+00   0.719742317214547E-02   0.968291E-04   0.000000E+00   0.377762E+02   0.365783E-02
   LPB:    1  -0.470425741346034E+00   0.225895853070066E-02   0.126433E-01   0.000000E+00   0.108733E+03   0.188862E-18
   LPB:    2  -0.470425653393100E+00   0.824733877153452E-03   0.138069E-01   0.150068E+00   0.287840E+03  -0.115096E-16
   LPB:    3  -0.470425622033547E+00   0.617364863187558E-03   0.245323E-01   0.200667E+00   0.229429E+03  -0.133838E-16
   LPB:    4  -0.470425602019462E+00   0.599383424133565E-03   0.298254E-01   0.524951E+00   0.228103E+03  -0.145162E-16
   LPB:    5  -0.470425586663842E+00   0.329580149526305E-03   0.270007E-01   0.847507E+00   0.309393E+03  -0.833303E-17
  Finished solving LPB equations
  A_corr:   -0.375779428215659     
 End minimization
 Ecorr=   1728.91220676952     
 A_corr= -0.375779428215659     
 Ecorr_band=  -1729.28798619774     
 End Solvation calculations
RMM:   5    -0.178592163820E+03   -0.47803E-05   -0.75757E-06  2050   0.715E-03
 Begin Solvation calculations
  rms_SCF =   3.338260579696558E-003 tol =   3.338260579696558E-004
 Begin minimization
 Creating dielectric and ionic cavities
  area:      180.278080956951     
  volume:    821.218585928390     
  Acav:     9.464599250239925E-002
  Solving linear dielectric/ionic screening model
        iter                  A_solv                     rms
   LPB:       -0.470413865486381E+00   0.212484657931168E-02
   LPB:    0  -0.470413861029307E+00   0.209188505216523E-02  -0.153614E-04   0.000000E+00   0.377763E+02  -0.580296E-03
   LPB:    1  -0.470413774945268E+00   0.124607886484436E-02   0.136897E-01   0.000000E+00   0.208666E+03  -0.508231E-20
   LPB:    2  -0.470413760120285E+00   0.303005282465300E-03   0.137255E-01   0.171767E+00   0.146723E+03  -0.100602E-17
   LPB:    3  -0.470413751396265E+00   0.193425016297982E-03   0.311754E-01   0.259082E+00   0.507011E+03  -0.309883E-17
   LPB:    4  -0.470413742166705E+00   0.325059407926630E-03   0.443100E-01   0.744346E+00   0.530871E+03  -0.400416E-17
  Finished solving LPB equations
  A_corr:   -0.375767749664306     
 End minimization
 Ecorr=   1728.92404994258     
 A_corr= -0.375767749664306     
 Ecorr_band=  -1729.29981769224     
 End Solvation calculations
 240 F= -.17859216E+03 E0= -.17856827E+03  d E =-.740093E-04
quench:  g(F)=  0.000E+00 g(S)=  0.000E+00 dE (1.order)= 0.000E+00
 reached required accuracy - stopping structural energy minimisation
