 vasp.5.4.4.18Apr17-6-g9f103f2a35 (build Feb 06 2024 13:54:16) complex          
  
 POSCAR found type information on POSCAR  Cu N  O 
 03/POSCAR found :  3 types and      40 ions
 scaLAPACK will be used

 ----------------------------------------------------------------------------- 
|                                                                             |
|  ADVICE TO THIS USER RUNNING 'VASP/VAMP'   (HEAR YOUR MASTER'S VOICE ...):  |
|                                                                             |
|      You enforced a specific xc-type in the INCAR file,                     |
|      a different type was found on the POTCAR file                          |
|          I HOPE YOU KNOW, WHAT YOU ARE  DOING                               |
|                                                                             |
 ----------------------------------------------------------------------------- 

 LDA part: xc-table for Pade appr. of Perdew
 POSCAR found type information on POSCAR  Cu N  O 
 00/POSCAR found :  3 types and      40 ions
 POSCAR found type information on POSCAR  Cu N  O 
 06/POSCAR found :  3 types and      40 ions
 Jacobian:    19.9537150754471     
 POSCAR, INCAR and KPOINTS ok, starting setup
 FFT: planning ...
 WAVECAR not read
 entering main loop
       N       E                     dE             d eps       ncg     rms          rms(c)
  Solvation turned off during non-self-consistent phase (first NELMDL steps)
DAV:   1     0.426711978731E+04    0.42671E+04   -0.18057E+05 12096   0.212E+03
DAV:   2     0.631817914481E+03   -0.36353E+04   -0.35118E+04 12114   0.478E+02
DAV:   3    -0.277691110294E+02   -0.65959E+03   -0.61066E+03 13959   0.239E+02
DAV:   4    -0.147314114940E+03   -0.11955E+03   -0.10462E+03 21654   0.949E+01
DAV:   5    -0.161011537970E+03   -0.13697E+02   -0.13469E+02 18477   0.313E+01    0.429E+01
 Begin Solvation calculations
  rms_SCF =    2.50886199004074      tol =   0.250886199004074     
 Begin minimization
 Creating dielectric and ionic cavities
  area:      162.916298417926     
  volume:    658.507032384292     
  Acav:     8.553105666941097E-002
  Solving linear dielectric/ionic screening model
        iter                  A_solv                     rms
   LPB:       -0.341935339819181E+03   0.260555279877350E+03
   LPB:    0  -0.410819440316381E+01   0.998929258120139E+01  -0.491066E+01   0.000000E+00   0.280185E+02  -0.137589E+03
   LPB:    1  -0.697989725257344E+00   0.551805086885240E+01   0.143669E-01   0.000000E+00   0.277707E+03  -0.583008E-14
   LPB:    2  -0.403663443389917E+00   0.264280378241247E+01   0.136037E-01   0.911496E-01   0.134578E+03  -0.152071E-14
   LPB:    3  -0.259996494097663E+00   0.676858104185382E+00   0.212269E-01   0.312822E+00   0.251859E+03  -0.111788E-14
   LPB:    4  -0.204540751021398E+00   0.622031844410579E+00   0.302727E-01   0.270661E+00   0.123323E+03  -0.249313E-14
   LPB:    5  -0.181682283417388E+00   0.783814558422948E+00   0.255623E-01   0.488148E+00   0.421475E+03   0.102550E-14
   LPB:    6  -0.167404127580994E+00   0.257205366802066E+00   0.249819E-01   0.639144E+00   0.613813E+02   0.112296E-14
   LPB:    7  -0.157619956565270E+00   0.114216584207958E+00   0.342442E-01   0.499909E+00   0.281717E+03   0.274314E-14
  Finished solving LPB equations
  A_corr:   -7.208889989585909E-002
 End minimization
 Ecorr=   1946.31604511013     
 A_corr= -7.208889989585909E-002
 Ecorr_band=  -1946.38813401002     
 End Solvation calculations
RMM:   6    -0.147618323846E+03    0.13393E+02   -0.34552E+02 12315   0.936E+01    0.247E+01
 Begin Solvation calculations
  rms_SCF =    2.50886199004074      tol =   0.250886199004074     
 Begin minimization
 Creating dielectric and ionic cavities
  area:      163.367704083127     
  volume:    666.533359768754     
  Acav:     8.576804464364148E-002
  Solving linear dielectric/ionic screening model
        iter                  A_solv                     rms
   LPB:       -0.613534183354047E+00   0.941499535470609E+01
   LPB:    0  -0.348187333459956E+00   0.589447380719378E+01   0.138559E+00   0.000000E+00   0.276422E+02   0.383008E+01
   LPB:    1  -0.209945027632818E+00   0.113102632131761E+01   0.964277E-02   0.000000E+00   0.855540E+02   0.223641E-15
   LPB:    2  -0.184793793967015E+00   0.498879905452945E+00   0.197489E-01   0.888335E-01   0.776191E+02   0.478748E-15
   LPB:    3  -0.178494041974607E+00   0.343130110371501E+00   0.201748E-01   0.245188E+00   0.431692E+02   0.572688E-14
   LPB:    4  -0.174407046914560E+00   0.261479118847535E+00   0.283621E-01   0.461477E+00   0.291506E+03   0.102993E-13
   LPB:    5  -0.170964151988072E+00   0.118039824446857E+00   0.364981E-01   0.654620E+00   0.379938E+02   0.139872E-13
  Finished solving LPB equations
  A_corr:   -8.519610734443088E-002
 End minimization
 Ecorr=   1855.77180335711     
 A_corr= -8.519610734443088E-002
 Ecorr_band=  -1855.85699946445     
 End Solvation calculations
RMM:   7    -0.134203932501E+03    0.13414E+02   -0.59864E+01 12369   0.439E+01    0.459E+00
 Begin Solvation calculations
  rms_SCF =    1.78133888484320      tol =   0.178133888484320     
 Begin minimization
 Creating dielectric and ionic cavities
  area:      147.666073374724     
  volume:    667.167842932067     
  Acav:     7.752468852173010E-002
  Solving linear dielectric/ionic screening model
        iter                  A_solv                     rms
   LPB:       -0.818313940822440E+00   0.134936604077403E+02
   LPB:    0  -0.755278615016219E+00   0.132749590700024E+02   0.675701E-01   0.000000E+00   0.276124E+02   0.186578E+01
   LPB:    1  -0.269595938362818E+00   0.137792102140409E+01   0.932771E-02   0.000000E+00   0.630693E+02  -0.131473E-15
   LPB:    2  -0.224090198848594E+00   0.238293564801421E+00   0.146652E-01   0.595937E-01   0.149791E+03  -0.337792E-14
   LPB:    3  -0.215286801886654E+00   0.111857489842972E+00   0.273409E-01   0.103767E+00   0.177211E+03  -0.233248E-14
   LPB:    4  -0.210717823506047E+00   0.167338621130195E+00   0.365807E-01   0.387909E+00   0.158965E+03  -0.357128E-14
  Finished solving LPB equations
  A_corr:   -0.133193134984316     
 End minimization
 Ecorr=   1801.47516535235     
 A_corr= -0.133193134984316     
 Ecorr_band=  -1801.60835848733     
 End Solvation calculations
RMM:   8    -0.134196156979E+03    0.77755E-02   -0.18727E+00 12552   0.516E+00    0.382E+00
 Begin Solvation calculations
  rms_SCF =    1.78133888484320      tol =   0.178133888484320     
 Begin minimization
 Creating dielectric and ionic cavities
  area:      137.731370713451     
  volume:    665.278642305467     
  Acav:     7.230896962456182E-002
  Solving linear dielectric/ionic screening model
        iter                  A_solv                     rms
   LPB:       -0.645867171947147E+00   0.118094059194405E+02
   LPB:    0  -0.645440687506405E+00   0.118454025178332E+02   0.554905E-02   0.000000E+00   0.277010E+02   0.153714E+00
   LPB:    1  -0.289897269960984E+00   0.143982705546430E+01   0.913578E-02   0.000000E+00   0.596971E+02  -0.908362E-17
   LPB:    2  -0.239855640264689E+00   0.286189077194974E+00   0.189484E-01   0.678595E-01   0.784215E+02  -0.131204E-14
   LPB:    3  -0.230671192626680E+00   0.179234734427134E+00   0.238856E-01   0.145599E+00   0.180800E+03   0.499129E-15
   LPB:    4  -0.225788654286435E+00   0.147141890623581E+00   0.346781E-01   0.366163E+00   0.784745E+02   0.847714E-15
  Finished solving LPB equations
  A_corr:   -0.153479684661873     
 End minimization
 Ecorr=   1767.87456432609     
 A_corr= -0.153479684661873     
 Ecorr_band=  -1768.02804401075     
 End Solvation calculations
RMM:   9    -0.134051683499E+03    0.14447E+00   -0.77497E-01 12425   0.370E+00    0.256E+00
 Begin Solvation calculations
  rms_SCF =    1.78133888484320      tol =   0.178133888484320     
 Begin minimization
 Creating dielectric and ionic cavities
  area:      134.571010222195     
  volume:    661.371417621478     
  Acav:     7.064978036665225E-002
  Solving linear dielectric/ionic screening model
        iter                  A_solv                     rms
   LPB:       -0.471572082176377E+00   0.782909769986071E+01
   LPB:    0  -0.468391498251561E+00   0.791440854040786E+01   0.151039E-01   0.000000E+00   0.278842E+02   0.421160E+00
   LPB:    1  -0.284781200903987E+00   0.867770497130524E+00   0.933692E-02   0.000000E+00   0.659718E+02  -0.185350E-16
   LPB:    2  -0.266784007768414E+00   0.163816833553913E+00   0.148480E-01   0.616373E-01   0.161267E+03   0.217174E-14
   LPB:    3  -0.260086072081569E+00   0.198222768622925E+00   0.367744E-01   0.150265E+00   0.230423E+03   0.342924E-14
   LPB:    4  -0.254360159372243E+00   0.237782233560582E+00   0.389504E-01   0.807118E+00   0.644883E+02   0.445298E-14
   LPB:    5  -0.250133798657339E+00   0.292802681668184E+00   0.299944E-01   0.958503E+00   0.212010E+03   0.653486E-14
   LPB:    6  -0.247635981353186E+00   0.151127241978015E+00   0.259325E-01   0.683580E+00   0.417849E+02   0.801434E-14
  Finished solving LPB equations
  A_corr:   -0.176986200986534     
 End minimization
 Ecorr=   1725.42264000848     
 A_corr= -0.176986200986534     
 Ecorr_band=  -1725.59962620947     
 End Solvation calculations
RMM:  10    -0.133905067782E+03    0.14662E+00   -0.24619E-01 12600   0.212E+00    0.122E+00
 Begin Solvation calculations
  rms_SCF =   0.941258144378790      tol =   9.412581443787896E-002
 Begin minimization
 Creating dielectric and ionic cavities
  area:      134.873849543782     
  volume:    658.764922932719     
  Acav:     7.080877101048567E-002
  Solving linear dielectric/ionic screening model
        iter                  A_solv                     rms
   LPB:       -0.275439289992288E+00   0.143624290138296E+01
   LPB:    0  -0.275017841883897E+00   0.124182868396045E+01  -0.548604E-02   0.000000E+00   0.280064E+02  -0.153644E+00
   LPB:    1  -0.261948282919080E+00   0.421923141738746E+00   0.144852E-01   0.000000E+00   0.622917E+02  -0.117113E-16
   LPB:    2  -0.259385416080290E+00   0.193238911591319E+00   0.141930E-01   0.200131E+00   0.210242E+03  -0.170700E-14
   LPB:    3  -0.258416986001093E+00   0.172869522759903E+00   0.251143E-01   0.213547E+00   0.985227E+02  -0.244935E-14
   LPB:    4  -0.257510529170832E+00   0.143832830770872E+00   0.337346E-01   0.696827E+00   0.717890E+02  -0.274915E-14
   LPB:    5  -0.256346889379729E+00   0.118337641997180E+00   0.369188E-01   0.117300E+01   0.221637E+03  -0.353621E-14
   LPB:    6  -0.255187900918219E+00   0.614949222571030E-01   0.356375E-01   0.103181E+01   0.622583E+02  -0.617508E-14
  Finished solving LPB equations
  A_corr:   -0.184379129907734     
 End minimization
 Ecorr=   1711.37852629406     
 A_corr= -0.184379129907734     
 Ecorr_band=  -1711.56290542396     
 End Solvation calculations
RMM:  11    -0.133880652149E+03    0.24416E-01   -0.95660E-02 12457   0.133E+00    0.643E-01
 Begin Solvation calculations
  rms_SCF =   0.392450279888450      tol =   3.924502798884501E-002
 Begin minimization
 Creating dielectric and ionic cavities
  area:      136.187766292255     
  volume:    654.389772638319     
  Acav:     7.149857730343384E-002
  Solving linear dielectric/ionic screening model
        iter                  A_solv                     rms
   LPB:       -0.319774613390881E+00   0.170532333848458E+01
   LPB:    0  -0.319737174788851E+00   0.163314792251697E+01  -0.162915E-02   0.000000E+00   0.282115E+02  -0.459608E-01
   LPB:    1  -0.282317139442548E+00   0.680040590854176E+00   0.149655E-01   0.000000E+00   0.829415E+02  -0.118238E-17
   LPB:    2  -0.277448499463065E+00   0.194906578223635E+00   0.152650E-01   0.127555E+00   0.101295E+03   0.974663E-14
   LPB:    3  -0.276247816082179E+00   0.122583498473044E+00   0.199772E-01   0.188444E+00   0.179103E+03   0.121321E-13
   LPB:    4  -0.275625059741142E+00   0.168736821422168E+00   0.248472E-01   0.417010E+00   0.976459E+02   0.128999E-13
   LPB:    5  -0.275103295382578E+00   0.105430797759630E+00   0.248031E-01   0.839321E+00   0.177922E+03   0.131646E-13
   LPB:    6  -0.274606393337665E+00   0.382771987506380E-01   0.360539E-01   0.655164E+00   0.841902E+02   0.140090E-13
  Finished solving LPB equations
  A_corr:   -0.203107816034231     
 End minimization
 Ecorr=   1693.33861173944     
 A_corr= -0.203107816034231     
 Ecorr_band=  -1693.54171955547     
 End Solvation calculations
RMM:  12    -0.133875346101E+03    0.53060E-02   -0.34181E-02 12961   0.678E-01    0.258E-01
 Begin Solvation calculations
  rms_SCF =   0.255811188195889      tol =   2.558111881958886E-002
 Begin minimization
 Creating dielectric and ionic cavities
  area:      136.965628652628     
  volume:    652.696151265015     
  Acav:     7.190695504262963E-002
  Solving linear dielectric/ionic screening model
        iter                  A_solv                     rms
   LPB:       -0.295707329720665E+00   0.859587530047195E+00
   LPB:    0  -0.295670297831703E+00   0.915924296138203E+00   0.161800E-02   0.000000E+00   0.282909E+02   0.457748E-01
   LPB:    1  -0.285598901404953E+00   0.528757114706704E+00   0.129257E-01   0.000000E+00   0.108906E+03  -0.241883E-17
   LPB:    2  -0.283996949179206E+00   0.968794564594412E-01   0.137237E-01   0.149810E+00   0.711508E+02  -0.238346E-14
   LPB:    3  -0.283627334542012E+00   0.713217243682860E-01   0.192578E-01   0.164424E+00   0.245422E+03  -0.274997E-14
   LPB:    4  -0.283361735289724E+00   0.920338218815375E-01   0.331086E-01   0.417968E+00   0.632671E+02  -0.275197E-14
   LPB:    5  -0.282963379448586E+00   0.737274916766855E-01   0.392872E-01   0.126396E+01   0.181967E+03  -0.278498E-14
   LPB:    6  -0.282528540964256E+00   0.322209648287685E-01   0.388278E-01   0.110450E+01   0.543506E+02  -0.302504E-14
   LPB:    7  -0.282289636369863E+00   0.179434159375921E-01   0.329334E-01   0.647744E+00   0.149566E+03  -0.327458E-14
  Finished solving LPB equations
  A_corr:   -0.210382681327234     
 End minimization
 Ecorr=   1681.27251464764     
 A_corr= -0.210382681327234     
 Ecorr_band=  -1681.48289732896     
 End Solvation calculations
RMM:  13    -0.133874730566E+03    0.61553E-03   -0.10452E-02 13195   0.325E-01    0.261E-01
 Begin Solvation calculations
  rms_SCF =   0.255811188195889      tol =   2.558111881958886E-002
 Begin minimization
 Creating dielectric and ionic cavities
  area:      137.653417824465     
  volume:    651.311841296730     
  Acav:     7.226804435784402E-002
  Solving linear dielectric/ionic screening model
        iter                  A_solv                     rms
   LPB:       -0.302987148284003E+00   0.988678819751422E+00
   LPB:    0  -0.302925067632153E+00   0.904066583644654E+00  -0.209253E-02   0.000000E+00   0.283558E+02  -0.593354E-01
   LPB:    1  -0.292243596180588E+00   0.366858081918292E+00   0.148176E-01   0.000000E+00   0.865881E+02  -0.164766E-18
   LPB:    2  -0.290868501616393E+00   0.935344155019137E-01   0.146258E-01   0.130425E+00   0.922637E+02   0.147973E-14
   LPB:    3  -0.290612438525110E+00   0.593638548779905E-01   0.188492E-01   0.144491E+00   0.196506E+03   0.194463E-14
   LPB:    4  -0.290535220180303E+00   0.524390715739843E-01   0.194031E-01   0.292952E+00   0.104939E+03   0.212309E-14
   LPB:    5  -0.290476570613959E+00   0.328960500055402E-01   0.250494E-01   0.588325E+00   0.237054E+03   0.220872E-14
   LPB:    6  -0.290403006430528E+00   0.140983278158158E-01   0.449616E-01   0.698807E+00   0.769713E+02   0.235305E-14
  Finished solving LPB equations
  A_corr:   -0.218134962072684     
 End minimization
 Ecorr=   1674.37090279940     
 A_corr= -0.218134962072684     
 Ecorr_band=  -1674.58903776147     
 End Solvation calculations
RMM:  14    -0.133873958366E+03    0.77220E-03   -0.45553E-03 12642   0.229E-01    0.160E-01
 Begin Solvation calculations
  rms_SCF =   0.255811188195889      tol =   2.558111881958886E-002
 Begin minimization
 Creating dielectric and ionic cavities
  area:      137.999943789446     
  volume:    650.659137402207     
  Acav:     7.244997048945934E-002
  Solving linear dielectric/ionic screening model
        iter                  A_solv                     rms
   LPB:       -0.299859730732892E+00   0.666106763135158E+00
   LPB:    0  -0.299799862030943E+00   0.592368824417199E+00  -0.205381E-02   0.000000E+00   0.283864E+02  -0.583002E-01
   LPB:    1  -0.295826045563605E+00   0.175731670144587E+00   0.153236E-01   0.000000E+00   0.759586E+02  -0.420587E-17
   LPB:    2  -0.295331377580530E+00   0.566214683202360E-01   0.149548E-01   0.127552E+00   0.126553E+03   0.199136E-14
   LPB:    3  -0.295226684735547E+00   0.212608642243587E-01   0.222323E-01   0.142363E+00   0.952903E+02   0.189808E-14
   LPB:    4  -0.295156585549854E+00   0.248033412160731E-01   0.381315E-01   0.390389E+00   0.224516E+03   0.172462E-14
  Finished solving LPB equations
  A_corr:   -0.222706615060394     
 End minimization
 Ecorr=   1671.02473704718     
 A_corr= -0.222706615060394     
 Ecorr_band=  -1671.24744366224     
 End Solvation calculations
RMM:  15    -0.133874031583E+03   -0.73217E-04   -0.22489E-03 16773   0.847E-02    0.134E-01
 Begin Solvation calculations
  rms_SCF =   0.255811188195889      tol =   2.558111881958886E-002
 Begin minimization
 Creating dielectric and ionic cavities
  area:      138.849884818578     
  volume:    649.458844950297     
  Acav:     7.289618952975334E-002
  Solving linear dielectric/ionic screening model
        iter                  A_solv                     rms
   LPB:       -0.342146035892447E+00   0.189704812304968E+01
   LPB:    0  -0.341351505194476E+00   0.162618985675253E+01  -0.747455E-02   0.000000E+00   0.284427E+02  -0.212596E+00
   LPB:    1  -0.312696830418279E+00   0.518746326410563E+00   0.150346E-01   0.000000E+00   0.760203E+02  -0.339267E-17
   LPB:    2  -0.309176805378486E+00   0.148982319573803E+00   0.147382E-01   0.125314E+00   0.102286E+03   0.221651E-14
   LPB:    3  -0.308403834410213E+00   0.847869261008959E-01   0.225229E-01   0.143693E+00   0.121203E+03   0.128378E-14
   LPB:    4  -0.308075830398110E+00   0.956098075001703E-01   0.268042E-01   0.356564E+00   0.117422E+03   0.128066E-15
   LPB:    5  -0.307899930550228E+00   0.858091949063248E-01   0.212168E-01   0.677499E+00   0.176314E+03  -0.422516E-15
   LPB:    6  -0.307739502029586E+00   0.289342801771720E-01   0.267519E-01   0.723340E+00   0.900730E+02  -0.778989E-15
   LPB:    7  -0.307605608909480E+00   0.138738321901731E-01   0.376666E-01   0.592755E+00   0.207025E+03  -0.104856E-14
  Finished solving LPB equations
  A_corr:   -0.234709419379727     
 End minimization
 Ecorr=   1662.39577198838     
 A_corr= -0.234709419379727     
 Ecorr_band=  -1662.63048140776     
 End Solvation calculations
RMM:  16    -0.133875764652E+03   -0.17331E-02   -0.18905E-03 12336   0.992E-02    0.149E-01
 Begin Solvation calculations
  rms_SCF =   0.255811188195889      tol =   2.558111881958886E-002
 Begin minimization
 Creating dielectric and ionic cavities
  area:      139.263868779253     
  volume:    649.045472066030     
  Acav:     7.311353110910770E-002
  Solving linear dielectric/ionic screening model
        iter                  A_solv                     rms
   LPB:       -0.326311659235044E+00   0.124841802777948E+01
   LPB:    0  -0.325947773554557E+00   0.109469709460289E+01  -0.505667E-02   0.000000E+00   0.284620E+02  -0.143923E+00
   LPB:    1  -0.316070782437427E+00   0.249592728258021E+00   0.150407E-01   0.000000E+00   0.624310E+02   0.643345E-17
   LPB:    2  -0.314886769272533E+00   0.105993346323437E+00   0.144005E-01   0.125206E+00   0.173442E+03  -0.153647E-14
   LPB:    3  -0.314648645358698E+00   0.594202242084537E-01   0.187831E-01   0.154190E+00   0.947704E+02  -0.164719E-14
   LPB:    4  -0.314559251614621E+00   0.651644249136900E-01   0.209547E-01   0.336504E+00   0.157292E+03  -0.186892E-14
   LPB:    5  -0.314478690387381E+00   0.404534656408680E-01   0.278690E-01   0.677611E+00   0.797997E+02  -0.195768E-14
   LPB:    6  -0.314376776239121E+00   0.171043180982618E-01   0.417111E-01   0.845236E+00   0.771492E+02  -0.216530E-14
  Finished solving LPB equations
  A_corr:   -0.241263245130013     
 End minimization
 Ecorr=   1657.95598052370     
 A_corr= -0.241263245130013     
 Ecorr_band=  -1658.19724376883     
 End Solvation calculations
RMM:  17    -0.133876568571E+03   -0.80392E-03   -0.81140E-04 12223   0.777E-02    0.124E-01
 Begin Solvation calculations
  rms_SCF =   0.255811188195889      tol =   2.558111881958886E-002
 Begin minimization
 Creating dielectric and ionic cavities
  area:      139.759949868515     
  volume:    648.733616140781     
  Acav:     7.337397368097041E-002
  Solving linear dielectric/ionic screening model
        iter                  A_solv                     rms
   LPB:       -0.349448692732294E+00   0.200633859465965E+01
   LPB:    0  -0.348378973404925E+00   0.177387909275340E+01  -0.866773E-02   0.000000E+00   0.284767E+02  -0.246828E+00
   LPB:    1  -0.327398534554398E+00   0.383246453389693E+00   0.144995E-01   0.000000E+00   0.566984E+02  -0.138827E-16
   LPB:    2  -0.324890518658093E+00   0.172879041878580E+00   0.135407E-01   0.128005E+00   0.212928E+03   0.910552E-14
   LPB:    3  -0.324418004219206E+00   0.814179919965770E-01   0.166166E-01   0.153526E+00   0.103902E+03   0.101240E-13
   LPB:    4  -0.324236369776997E+00   0.770905551445549E-01   0.215246E-01   0.296750E+00   0.121904E+03   0.100642E-13
   LPB:    5  -0.324110775321734E+00   0.421738358769784E-01   0.269429E-01   0.552412E+00   0.841065E+02   0.100051E-13
   LPB:    6  -0.324000774066082E+00   0.160635448338233E-01   0.357896E-01   0.659348E+00   0.101074E+03   0.100848E-13
  Finished solving LPB equations
  A_corr:   -0.250626800385112     
 End minimization
 Ecorr=   1653.07064881663     
 A_corr= -0.250626800385112     
 Ecorr_band=  -1653.32127561702     
 End Solvation calculations
RMM:  18    -0.133877595739E+03   -0.10272E-02   -0.12380E-03 12280   0.592E-02    0.695E-02
 Begin Solvation calculations
  rms_SCF =   0.170478959223660      tol =   1.704789592236599E-002
 Begin minimization
 Creating dielectric and ionic cavities
  area:      139.905028210109     
  volume:    648.949791983808     
  Acav:     7.345013981030718E-002
  Solving linear dielectric/ionic screening model
        iter                  A_solv                     rms
   LPB:       -0.338749222623615E+00   0.136235416740564E+01
   LPB:    0  -0.338132561927238E+00   0.121179466689739E+01  -0.658220E-02   0.000000E+00   0.284665E+02  -0.187372E+00
   LPB:    1  -0.329839352270512E+00   0.232117972925317E+00   0.137365E-01   0.000000E+00   0.556539E+02  -0.893286E-17
   LPB:    2  -0.328956273696711E+00   0.115918894042168E+00   0.131756E-01   0.111015E+00   0.223715E+03   0.148522E-14
   LPB:    3  -0.328771434965576E+00   0.412268265963828E-01   0.162145E-01   0.170084E+00   0.954644E+02   0.163808E-14
   LPB:    4  -0.328692658028774E+00   0.519373257312170E-01   0.268328E-01   0.257539E+00   0.906506E+02   0.125288E-14
   LPB:    5  -0.328617323432144E+00   0.394621062884117E-01   0.319789E-01   0.802414E+00   0.731508E+02   0.104940E-14
   LPB:    6  -0.328534574072761E+00   0.168549749494839E-01   0.366730E-01   0.957826E+00   0.660163E+02   0.717080E-15
  Finished solving LPB equations
  A_corr:   -0.255084434262454     
 End minimization
 Ecorr=   1650.59071025602     
 A_corr= -0.255084434262454     
 Ecorr_band=  -1650.84579469029     
 End Solvation calculations
RMM:  19    -0.133878556865E+03   -0.96113E-03   -0.39771E-04 12220   0.543E-02    0.714E-02
 Begin Solvation calculations
  rms_SCF =   0.170478959223660      tol =   1.704789592236599E-002
 Begin minimization
 Creating dielectric and ionic cavities
  area:      140.052579647767     
  volume:    649.057068697230     
  Acav:     7.352760431507779E-002
  Solving linear dielectric/ionic screening model
        iter                  A_solv                     rms
   LPB:       -0.342798504964986E+00   0.139449315172192E+01
   LPB:    0  -0.342248299291714E+00   0.126418580809628E+01  -0.621797E-02   0.000000E+00   0.284615E+02  -0.176973E+00
   LPB:    1  -0.334653814003075E+00   0.258736007826622E+00   0.130766E-01   0.000000E+00   0.522677E+02   0.631620E-17
   LPB:    2  -0.333729383391204E+00   0.966718216163682E-01   0.126260E-01   0.126068E+00   0.215267E+03  -0.548255E-15
   LPB:    3  -0.333559568419825E+00   0.335281936068892E-01   0.165301E-01   0.140311E+00   0.122695E+03  -0.668365E-15
   LPB:    4  -0.333505011961592E+00   0.390296087196683E-01   0.251815E-01   0.210893E+00   0.954081E+02  -0.580850E-15
   LPB:    5  -0.333461607776674E+00   0.294283301002536E-01   0.305539E-01   0.655692E+00   0.788309E+02  -0.552927E-15
   LPB:    6  -0.333411877349351E+00   0.135950696650134E-01   0.385798E-01   0.907399E+00   0.664510E+02  -0.398356E-15
  Finished solving LPB equations
  A_corr:   -0.259884273034274     
 End minimization
 Ecorr=   1648.54034597457     
 A_corr= -0.259884273034274     
 Ecorr_band=  -1648.80023024760     
 End Solvation calculations
RMM:  20    -0.133878833335E+03   -0.27647E-03   -0.34210E-04 12208   0.314E-02    0.497E-02
 Begin Solvation calculations
  rms_SCF =   0.134564691263197      tol =   1.345646912631967E-002
 Begin minimization
 Creating dielectric and ionic cavities
  area:      140.097694010865     
  volume:    649.159005800271     
  Acav:     7.355128935570396E-002
  Solving linear dielectric/ionic screening model
        iter                  A_solv                     rms
   LPB:       -0.340234157634210E+00   0.100864782744180E+01
   LPB:    0  -0.339979025632450E+00   0.935048747033803E+00  -0.423453E-02   0.000000E+00   0.284567E+02  -0.120501E+00
   LPB:    1  -0.336582878580127E+00   0.171257550910800E+00   0.118251E-01   0.000000E+00   0.533054E+02  -0.122092E-16
   LPB:    2  -0.336176795795973E+00   0.560193632889933E-01   0.124406E-01   0.113656E+00   0.198009E+03   0.276389E-15
   LPB:    3  -0.336106397560772E+00   0.173436975840952E-01   0.175275E-01   0.123047E+00   0.119983E+03   0.297845E-15
   LPB:    4  -0.336083211269939E+00   0.245042509271851E-01   0.302007E-01   0.191149E+00   0.801721E+02   0.279820E-15
   LPB:    5  -0.336058398780756E+00   0.255908190347167E-01   0.365438E-01   0.884386E+00   0.748340E+02   0.393223E-15
   LPB:    6  -0.336026540933403E+00   0.139873723142528E-01   0.372923E-01   0.125817E+01   0.476845E+02   0.565839E-15
   LPB:    7  -0.336000630817059E+00   0.567925788223814E-02   0.340189E-01   0.891563E+00   0.111279E+03   0.677311E-15
  Finished solving LPB equations
  A_corr:   -0.262449341461355     
 End minimization
 Ecorr=   1647.09488823744     
 A_corr= -0.262449341461355     
 Ecorr_band=  -1647.35733757890     
 End Solvation calculations
RMM:  21    -0.133878972685E+03   -0.13935E-03   -0.10404E-04 10514   0.277E-02    0.445E-02
 Begin Solvation calculations
  rms_SCF =   0.112332895816665      tol =   1.123328958166650E-002
 Begin minimization
 Creating dielectric and ionic cavities
  area:      140.067052586840     
  volume:    649.247057029486     
  Acav:     7.353520260809118E-002
  Solving linear dielectric/ionic screening model
        iter                  A_solv                     rms
   LPB:       -0.339761274624338E+00   0.876216150238218E+00
   LPB:    0  -0.339616791198507E+00   0.835520679874725E+00  -0.318686E-02   0.000000E+00   0.284526E+02  -0.906744E-01
   LPB:    1  -0.337373817006785E+00   0.116975200420805E+00   0.102881E-01   0.000000E+00   0.593555E+02  -0.521514E-18
   LPB:    2  -0.337158986055688E+00   0.308843417727812E-01   0.122105E-01   0.806995E-01   0.206722E+03  -0.540751E-15
   LPB:    3  -0.337130151113215E+00   0.810512381184298E-02   0.190921E-01   0.858427E-01   0.121371E+03  -0.598363E-15
   LPB:    4  -0.337125279500640E+00   0.738610911756222E-02   0.238764E-01   0.135095E+00   0.118855E+03  -0.641896E-15
  Finished solving LPB equations
  A_corr:   -0.263590076892548     
 End minimization
 Ecorr=   1646.83941610349     
 A_corr= -0.263590076892548     
 Ecorr_band=  -1647.10300618039     
 End Solvation calculations
RMM:  22    -0.133879074677E+03   -0.10199E-03   -0.12884E-04 11825   0.320E-02    0.130E-02
 Begin Solvation calculations
  rms_SCF =   2.530801773025052E-002 tol =   2.530801773025052E-003
 Begin minimization
 Creating dielectric and ionic cavities
  area:      140.070376491004     
  volume:    649.282606467287     
  Acav:     7.353694765777702E-002
  Solving linear dielectric/ionic screening model
        iter                  A_solv                     rms
   LPB:       -0.338362152590374E+00   0.366570207579436E+00
   LPB:    0  -0.338335844310832E+00   0.346508642607229E+00  -0.135992E-02   0.000000E+00   0.284509E+02  -0.386910E-01
   LPB:    1  -0.337939573370758E+00   0.539173460968885E-01   0.106808E-01   0.000000E+00   0.560257E+02  -0.185416E-17
   LPB:    2  -0.337896572779700E+00   0.166307522186581E-01   0.125058E-01   0.926772E-01   0.176047E+03  -0.102251E-15
   LPB:    3  -0.337888146635257E+00   0.558767058030005E-02   0.214734E-01   0.114121E+00   0.903656E+02  -0.110485E-15
   LPB:    4  -0.337883737970765E+00   0.906504706359200E-02   0.368971E-01   0.304500E+00   0.698283E+02  -0.100991E-15
   LPB:    5  -0.337879036656095E+00   0.116525093614828E-01   0.383910E-01   0.102489E+01   0.105229E+03  -0.976977E-16
   LPB:    6  -0.337872595939122E+00   0.886368468222521E-02   0.387007E-01   0.135902E+01   0.478508E+02  -0.109076E-15
   LPB:    7  -0.337864792302180E+00   0.374518019132736E-02   0.387749E-01   0.120929E+01   0.842426E+02  -0.108638E-15
   LPB:    8  -0.337858927435185E+00   0.257391590097606E-02   0.369543E-01   0.788581E+00   0.117695E+03  -0.148935E-15
   LPB:    9  -0.337855632321469E+00   0.152674098171817E-02   0.362285E-01   0.573095E+00   0.381444E+03  -0.193628E-15
  Finished solving LPB equations
  A_corr:   -0.264318684663692     
 End minimization
 Ecorr=   1646.00312915460     
 A_corr= -0.264318684663692     
 Ecorr_band=  -1646.26744783926     
 End Solvation calculations
RMM:  23    -0.133879074101E+03    0.57652E-06   -0.29152E-05  7534   0.148E-02
 Begin Solvation calculations
  rms_SCF =   2.530801773025052E-002 tol =   2.530801773025052E-003
 Begin minimization
 Creating dielectric and ionic cavities
  area:      140.080133536523     
  volume:    649.284716477220     
  Acav:     7.354207010667450E-002
  Solving linear dielectric/ionic screening model
        iter                  A_solv                     rms
   LPB:       -0.338796957705662E+00   0.275009248545960E+00
   LPB:    0  -0.338782477558264E+00   0.258314602126324E+00  -0.100891E-02   0.000000E+00   0.284508E+02  -0.287044E-01
   LPB:    1  -0.338575772254464E+00   0.388819526810399E-01   0.104407E-01   0.000000E+00   0.544424E+02   0.586214E-19
   LPB:    2  -0.338550432609910E+00   0.101555788782840E-01   0.132167E-01   0.968404E-01   0.162492E+03   0.119835E-15
   LPB:    3  -0.338546425249562E+00   0.371155188527228E-02   0.189479E-01   0.110311E+00   0.156581E+03   0.137088E-15
   LPB:    4  -0.338545297284694E+00   0.476503030058913E-02   0.263875E-01   0.202116E+00   0.152836E+03   0.141240E-15
   LPB:    5  -0.338544705154276E+00   0.317794293966119E-02   0.257117E-01   0.538753E+00   0.126732E+03   0.119033E-15
   LPB:    6  -0.338543953931110E+00   0.242551825112652E-02   0.437368E-01   0.745822E+00   0.613225E+03   0.900408E-16
  Finished solving LPB equations
  A_corr:   -0.265001883824435     
 End minimization
 Ecorr=   1645.77825032966     
 A_corr= -0.265001883824435     
 Ecorr_band=  -1646.04325221349     
 End Solvation calculations
   1 F= -.13387907E+03 E0= -.13388033E+03  d E =-.133879E+03
quench:  g(F)=  0.000E+00 g(S)=  0.000E+00 dE (1.order)= 0.000E+00
 bond charge predicted
       N       E                     dE             d eps       ncg     rms          rms(c)
 Begin Solvation calculations
  rms_SCF =   2.530801773025052E-002 tol =   2.530801773025052E-003
 Begin minimization
 Creating dielectric and ionic cavities
  area:      140.089629536261     
  volume:    649.289848746109     
  Acav:     7.354705550653728E-002
  Solving linear dielectric/ionic screening model
        iter                  A_solv                     rms
   LPB:       -0.338716893591833E+00   0.264317352606432E-02
   LPB:    0  -0.338716893586608E+00   0.262462929057257E-02   0.606035E-06   0.000000E+00   0.284506E+02   0.172421E-04
   LPB:    1  -0.338557778949690E+00   0.148199527707988E-02   0.155477E-01   0.000000E+00   0.155248E+06   0.785631E-21
   LPB:    2  -0.338541693535863E+00   0.247147918776962E-02   0.271726E-01   0.578439E-01   0.180486E+05  -0.487718E-18
   LPB:    3  -0.338536169151374E+00   0.450113369590799E-02   0.328974E-01   0.283675E+00   0.141187E+04   0.623625E-17
   LPB:    4  -0.338533688805585E+00   0.732805298305653E-02   0.310666E-01   0.475440E+00   0.288912E+03  -0.125940E-17
   LPB:    5  -0.338532230978149E+00   0.498957944153068E-02   0.245237E-01   0.744563E+00   0.146252E+03  -0.306178E-16
   LPB:    6  -0.338530913593543E+00   0.283049633695140E-02   0.336261E-01   0.659047E+00   0.447613E+03  -0.883881E-16
   LPB:    7  -0.338529899538632E+00   0.634128760347961E-02   0.371495E-01   0.696742E+00   0.407347E+03  -0.136533E-15
   LPB:    8  -0.338529183679440E+00   0.560226752110921E-02   0.225844E-01   0.116121E+01   0.151198E+03  -0.173123E-15
   LPB:    9  -0.338528197119169E+00   0.232881143277490E-02   0.344420E-01   0.903681E+00   0.458966E+03  -0.195028E-15
  Finished solving LPB equations
  A_corr:   -0.264981141612631     
 End minimization
 Ecorr=   1645.80358554825     
 A_corr= -0.264981141612631     
 Ecorr_band=  -1646.06856668986     
 End Solvation calculations
DAV:   1    -0.133879161490E+03   -0.86813E-04   -0.90067E-03 15498   0.238E-01    0.261E-02
 Begin Solvation calculations
  rms_SCF =   4.668013974398837E-003 tol =   4.668013974398837E-004
 Begin minimization
 Creating dielectric and ionic cavities
  area:      140.096704382649     
  volume:    649.260303414808     
  Acav:     7.355076980089087E-002
  Solving linear dielectric/ionic screening model
        iter                  A_solv                     rms
   LPB:       -0.338692131993060E+00   0.385444536711403E-01
   LPB:    0  -0.338690894698088E+00   0.245027256813729E-01  -0.294914E-03   0.000000E+00   0.284520E+02  -0.839089E-02
   LPB:    1  -0.338683618607703E+00   0.936914571606686E-02   0.124357E-01   0.000000E+00   0.932864E+02  -0.436109E-18
   LPB:    2  -0.338682817788939E+00   0.458628786758811E-02   0.156515E-01   0.874481E-01   0.832794E+02   0.402070E-16
   LPB:    3  -0.338682275866162E+00   0.239829496650053E-02   0.256561E-01   0.412828E+00   0.391420E+03   0.450521E-16
   LPB:    4  -0.338681800657727E+00   0.319926907672497E-02   0.333954E-01   0.673675E+00   0.194143E+03   0.490160E-16
   LPB:    5  -0.338681288950945E+00   0.318238608969939E-02   0.333977E-01   0.107673E+01   0.336149E+03   0.471307E-16
   LPB:    6  -0.338680631100303E+00   0.249146377525828E-02   0.395130E-01   0.108663E+01   0.186128E+03   0.406709E-16
   LPB:    7  -0.338679761580693E+00   0.164654827163001E-02   0.491539E-01   0.106251E+01   0.100952E+04   0.216696E-16
   LPB:    8  -0.338678651386869E+00   0.153401617447168E-02   0.533165E-01   0.117710E+01   0.731129E+03  -0.369233E-16
   LPB:    9  -0.338677229760687E+00   0.142430477857755E-02   0.533727E-01   0.127917E+01   0.201554E+04  -0.109134E-15
   LPB:   10  -0.338675561059690E+00   0.156703655363889E-02   0.479759E-01   0.130584E+01   0.110134E+04  -0.214717E-15
   LPB:   11  -0.338674264497213E+00   0.112071127279937E-02   0.374658E-01   0.994954E+00   0.233299E+04  -0.344292E-15
   LPB:   12  -0.338673443275484E+00   0.873494284273653E-03   0.371030E-01   0.639578E+00   0.237407E+04  -0.438643E-15
   LPB:   13  -0.338672887230812E+00   0.708749204796761E-03   0.380751E-01   0.659807E+00   0.274641E+04  -0.504229E-15
   LPB:   14  -0.338672525688108E+00   0.630323745143402E-03   0.374961E-01   0.660245E+00   0.203735E+04  -0.543789E-15
   LPB:   15  -0.338672208075008E+00   0.553576712747686E-03   0.424821E-01   0.775387E+00   0.157924E+04  -0.569847E-15
   LPB:   16  -0.338672020760763E+00   0.395461739281272E-03   0.346651E-01   0.722747E+00   0.963905E+03  -0.594221E-15
  Finished solving LPB equations
  A_corr:   -0.265121250959872     
 End minimization
 Ecorr=   1645.61746778522     
 A_corr= -0.265121250959872     
 Ecorr_band=  -1645.88258903618     
 End Solvation calculations
RMM:   2    -0.133879222039E+03   -0.60549E-04   -0.41337E-04 14421   0.435E-02    0.128E-02
 Begin Solvation calculations
  rms_SCF =   4.668013974398837E-003 tol =   4.668013974398837E-004
 Begin minimization
 Creating dielectric and ionic cavities
  area:      140.099565513928     
  volume:    649.243225878545     
  Acav:     7.355227189481241E-002
  Solving linear dielectric/ionic screening model
        iter                  A_solv                     rms
   LPB:       -0.338849783238932E+00   0.565617173604795E-01
   LPB:    0  -0.338848820331559E+00   0.496371176397437E-01  -0.260163E-03   0.000000E+00   0.284528E+02  -0.740235E-02
   LPB:    1  -0.338839531530269E+00   0.809087652274451E-02   0.928520E-02   0.000000E+00   0.757847E+02   0.367158E-18
   LPB:    2  -0.338838759646264E+00   0.151275172535295E-02   0.137474E-01   0.561258E-01   0.999103E+02  -0.653835E-17
   LPB:    3  -0.338838588847780E+00   0.959264483610921E-03   0.233083E-01   0.130510E+00   0.344669E+03   0.202961E-17
   LPB:    4  -0.338838493012598E+00   0.145058980736705E-02   0.332609E-01   0.393204E+00   0.142624E+03   0.501016E-17
   LPB:    5  -0.338838408368479E+00   0.114650864908751E-02   0.306030E-01   0.959935E+00   0.265204E+03   0.696322E-17
   LPB:    6  -0.338838298183393E+00   0.881317057790805E-03   0.417275E-01   0.954702E+00   0.255410E+03   0.743105E-17
   LPB:    7  -0.338838166213891E+00   0.649926041171252E-03   0.500291E-01   0.998965E+00   0.698462E+03  -0.177212E-16
   LPB:    8  -0.338838032322959E+00   0.572609916384007E-03   0.458620E-01   0.110674E+01   0.111050E+04  -0.481518E-16
   LPB:    9  -0.338837919005936E+00   0.424365047678910E-03   0.424680E-01   0.913978E+00   0.519025E+03  -0.835311E-16
  Finished solving LPB equations
  A_corr:   -0.265285647111124     
 End minimization
 Ecorr=   1645.50320255612     
 A_corr= -0.265285647111124     
 Ecorr_band=  -1645.76848820323     
 End Solvation calculations
RMM:   3    -0.133879239843E+03   -0.17804E-04   -0.23003E-05  7447   0.158E-02    0.960E-03
 Begin Solvation calculations
  rms_SCF =   4.519318225519145E-003 tol =   4.519318225519145E-004
 Begin minimization
 Creating dielectric and ionic cavities
  area:      140.103693711745     
  volume:    649.229951625521     
  Acav:     7.355443919866624E-002
  Solving linear dielectric/ionic screening model
        iter                  A_solv                     rms
   LPB:       -0.338933060014716E+00   0.322117656108919E-01
   LPB:    0  -0.338932104030851E+00   0.197245085541678E-01  -0.259223E-03   0.000000E+00   0.284534E+02  -0.737577E-02
   LPB:    1  -0.338928542349934E+00   0.648202378733800E-02   0.119684E-01   0.000000E+00   0.759150E+02   0.650978E-19
   LPB:    2  -0.338928227842944E+00   0.205891221868296E-02   0.136359E-01   0.775045E-01   0.890156E+02  -0.198023E-16
   LPB:    3  -0.338928113044956E+00   0.125494413450112E-02   0.211619E-01   0.235199E+00   0.389205E+03  -0.204873E-16
   LPB:    4  -0.338928058898594E+00   0.928174199546226E-03   0.230710E-01   0.432635E+00   0.142014E+03  -0.209269E-16
   LPB:    5  -0.338928025591493E+00   0.527358590633846E-03   0.258433E-01   0.549144E+00   0.412349E+03  -0.154056E-16
   LPB:    6  -0.338927990738211E+00   0.470377619468763E-03   0.433243E-01   0.624199E+00   0.296954E+03  -0.106341E-16
   LPB:    7  -0.338927942221554E+00   0.412807786890973E-03   0.508285E-01   0.118651E+01   0.110113E+04  -0.886129E-18
  Finished solving LPB equations
  A_corr:   -0.265373503022888     
 End minimization
 Ecorr=   1645.42846792561     
 A_corr= -0.265373503022888     
 Ecorr_band=  -1645.69384142863     
 End Solvation calculations
RMM:   4    -0.133879254584E+03   -0.14740E-04   -0.10141E-05  6954   0.159E-02    0.770E-03
 Begin Solvation calculations
  rms_SCF =   3.792526547751984E-003 tol =   3.792526547751984E-004
 Begin minimization
 Creating dielectric and ionic cavities
  area:      140.108720672815     
  volume:    649.214316886653     
  Acav:     7.355707835322768E-002
  Solving linear dielectric/ionic screening model
        iter                  A_solv                     rms
   LPB:       -0.339106060287744E+00   0.586471780530868E-01
   LPB:    0  -0.339104278082257E+00   0.459777414921341E-01  -0.353933E-03   0.000000E+00   0.284541E+02  -0.100709E-01
   LPB:    1  -0.339093905311826E+00   0.109473251113061E-01   0.975710E-02   0.000000E+00   0.790088E+02  -0.605447E-18
   LPB:    2  -0.339093000459298E+00   0.172373415447400E-02   0.130135E-01   0.654047E-01   0.815637E+02   0.144898E-15
   LPB:    3  -0.339092825742391E+00   0.123926329786766E-02   0.209196E-01   0.120115E+00   0.475347E+03   0.157268E-15
   LPB:    4  -0.339092769745358E+00   0.811416400161776E-03   0.224471E-01   0.298693E+00   0.985736E+02   0.158469E-15
   LPB:    5  -0.339092733138824E+00   0.654566201890588E-03   0.291620E-01   0.503194E+00   0.364009E+03   0.162653E-15
   LPB:    6  -0.339092692164624E+00   0.466994383441582E-03   0.418566E-01   0.779840E+00   0.830341E+02   0.170729E-15
   LPB:    7  -0.339092649004630E+00   0.350227141186837E-03   0.458650E-01   0.961289E+00   0.216901E+03   0.187709E-15
  Finished solving LPB equations
  A_corr:   -0.265535570651403     
 End minimization
 Ecorr=   1645.26205273567     
 A_corr= -0.265535570651403     
 Ecorr_band=  -1645.52758830632     
 End Solvation calculations
RMM:   5    -0.133879275490E+03   -0.20906E-04   -0.66269E-06  6998   0.109E-02    0.317E-03
 Begin Solvation calculations
  rms_SCF =   2.576177115280782E-003 tol =   2.576177115280782E-004
 Begin minimization
 Creating dielectric and ionic cavities
  area:      140.112305353238     
  volume:    649.207190649512     
  Acav:     7.355896031044988E-002
  Solving linear dielectric/ionic screening model
        iter                  A_solv                     rms
   LPB:       -0.339182148338898E+00   0.356167664015042E-01
   LPB:    0  -0.339181268233451E+00   0.253685531789946E-01  -0.248718E-03   0.000000E+00   0.284545E+02  -0.707714E-02
   LPB:    1  -0.339177726725415E+00   0.686675613016662E-02   0.100426E-01   0.000000E+00   0.761705E+02  -0.329127E-18
   LPB:    2  -0.339177431702945E+00   0.111133726185879E-02   0.126396E-01   0.661883E-01   0.742424E+02   0.167918E-16
   LPB:    3  -0.339177375222125E+00   0.809442378435861E-03   0.201303E-01   0.120207E+00   0.453744E+03   0.163732E-16
   LPB:    4  -0.339177355350023E+00   0.459582623858722E-03   0.220123E-01   0.321756E+00   0.981768E+02   0.175208E-16
   LPB:    5  -0.339177335444381E+00   0.449952008437436E-03   0.397835E-01   0.554237E+00   0.308385E+03   0.147688E-16
   LPB:    6  -0.339177298345672E+00   0.488229413646041E-03   0.562289E-01   0.131864E+01   0.645910E+02   0.108953E-16
   LPB:    7  -0.339177243571830E+00   0.312076542647160E-03   0.532927E-01   0.155778E+01   0.108495E+03   0.674836E-17
   LPB:    8  -0.339177187313146E+00   0.437524417094531E-03   0.461772E-01   0.118538E+01   0.115843E+03  -0.580199E-17
   LPB:    9  -0.339177136234820E+00   0.235943319431438E-03   0.447597E-01   0.936671E+00   0.641874E+03  -0.189761E-16
  Finished solving LPB equations
  A_corr:   -0.265618175924370     
 End minimization
 Ecorr=   1645.13054799133     
 A_corr= -0.265618175924370     
 Ecorr_band=  -1645.39616616726     
 End Solvation calculations
RMM:   6    -0.133879286382E+03   -0.10892E-04   -0.33736E-06  6891   0.748E-03    0.212E-03
 Begin Solvation calculations
  rms_SCF =   2.165449550778664E-003 tol =   2.165449550778664E-004
 Begin minimization
 Creating dielectric and ionic cavities
  area:      140.114045860450     
  volume:    649.204887484292     
  Acav:     7.355987407673627E-002
  Solving linear dielectric/ionic screening model
        iter                  A_solv                     rms
   LPB:       -0.339221769344712E+00   0.240330730842394E-01
   LPB:    0  -0.339221375987207E+00   0.175246752119200E-01  -0.166277E-03   0.000000E+00   0.284546E+02  -0.473135E-02
   LPB:    1  -0.339219979378913E+00   0.385739674180751E-02   0.949857E-02   0.000000E+00   0.736295E+02  -0.228871E-18
   LPB:    2  -0.339219871634556E+00   0.784314038292353E-03   0.133438E-01   0.549159E-01   0.691662E+02   0.182619E-16
   LPB:    3  -0.339219845961088E+00   0.533563484535331E-03   0.224469E-01   0.141649E+00   0.505505E+03   0.117397E-16
   LPB:    4  -0.339219831918070E+00   0.445705868711193E-03   0.254266E-01   0.482886E+00   0.226640E+03   0.103708E-16
   LPB:    5  -0.339219820020344E+00   0.221931584391966E-03   0.340711E-01   0.632275E+00   0.289409E+03   0.121712E-16
   LPB:    6  -0.339219797175147E+00   0.350682843787195E-03   0.681432E-01   0.960053E+00   0.287053E+03   0.166488E-16
   LPB:    7  -0.339219766498016E+00   0.299269383181831E-03   0.454220E-01   0.201454E+01   0.898976E+02   0.250807E-16
   LPB:    8  -0.339219742602208E+00   0.170052220887410E-03   0.426251E-01   0.830056E+00   0.283088E+03   0.345561E-16
  Finished solving LPB equations
  A_corr:   -0.265659868525472     
 End minimization
 Ecorr=   1645.11879193163     
 A_corr= -0.265659868525472     
 Ecorr_band=  -1645.38445180016     
 End Solvation calculations
RMM:   7    -0.133879292091E+03   -0.57088E-05   -0.20548E-06  6788   0.575E-03
 Begin Solvation calculations
  rms_SCF =   2.165449550778664E-003 tol =   2.165449550778664E-004
 Begin minimization
 Creating dielectric and ionic cavities
  area:      140.115998797570     
  volume:    649.202509127724     
  Acav:     7.356089936872438E-002
  Solving linear dielectric/ionic screening model
        iter                  A_solv                     rms
   LPB:       -0.339278224709453E+00   0.311234780771178E-01
   LPB:    0  -0.339277560485574E+00   0.222461590177799E-01  -0.216070E-03   0.000000E+00   0.284547E+02  -0.614822E-02
   LPB:    1  -0.339275172823321E+00   0.545121985428010E-02   0.965711E-02   0.000000E+00   0.725250E+02   0.322821E-18
   LPB:    2  -0.339274991542949E+00   0.935133301505694E-03   0.130228E-01   0.563016E-01   0.620965E+02   0.769061E-17
   LPB:    3  -0.339274951218256E+00   0.816129689518106E-03   0.217352E-01   0.133279E+00   0.334667E+03   0.807203E-17
   LPB:    4  -0.339274928680949E+00   0.438467842112423E-03   0.250949E-01   0.484070E+00   0.792560E+02   0.969824E-17
   LPB:    5  -0.339274910071862E+00   0.309104065470686E-03   0.347632E-01   0.596059E+00   0.253189E+03   0.116723E-16
   LPB:    6  -0.339274889120334E+00   0.236714674871433E-03   0.434555E-01   0.900671E+00   0.103670E+03   0.140723E-16
   LPB:    7  -0.339274874182445E+00   0.149830004454022E-03   0.373159E-01   0.830278E+00   0.286692E+03   0.159526E-16
  Finished solving LPB equations
  A_corr:   -0.265713974813720     
 End minimization
 Ecorr=   1645.03288800541     
 A_corr= -0.265713974813720     
 Ecorr_band=  -1645.29860198022     
 End Solvation calculations
   2 F= -.13387929E+03 E0= -.13388056E+03  d E =-.217990E-03
quench:  g(F)=  0.000E+00 g(S)=  0.000E+00 dE (1.order)= 0.000E+00
 bond charge predicted
       N       E                     dE             d eps       ncg     rms          rms(c)
 Begin Solvation calculations
  rms_SCF =   2.165449550778664E-003 tol =   2.165449550778664E-004
 Begin minimization
 Creating dielectric and ionic cavities
  area:      140.130372645776     
  volume:    649.211079651295     
  Acav:     7.356844563903257E-002
  Solving linear dielectric/ionic screening model
        iter                  A_solv                     rms
   LPB:       -0.339836354757197E+00   0.231538751950586E-02
   LPB:    0  -0.339836354744759E+00   0.231769252449701E-02   0.935011E-06   0.000000E+00   0.284543E+02   0.266051E-04
   LPB:    1  -0.339323943185353E+00   0.770380118847381E-03   0.155473E-01   0.000000E+00   0.782004E+06   0.114767E-20
   LPB:    2  -0.339274304636811E+00   0.415503852180925E-03   0.268478E-01   0.560980E-01   0.204326E+06  -0.631402E-18
   LPB:    3  -0.339258078181031E+00   0.515792064174547E-03   0.328682E-01   0.267016E+00   0.111043E+06  -0.111473E-17
   LPB:    4  -0.339250939558045E+00   0.107686913562313E-02   0.359191E-01   0.402569E+00   0.348250E+05   0.857976E-18
   LPB:    5  -0.339247382961816E+00   0.285281172005177E-02   0.372954E-01   0.479834E+00   0.514874E+04   0.770029E-18
   LPB:    6  -0.339245613228618E+00   0.693252924765824E-02   0.340361E-01   0.545241E+00   0.488163E+03   0.140296E-17
   LPB:    7  -0.339244790903013E+00   0.593742737355480E-02   0.203736E-01   0.776263E+00   0.144488E+03   0.105015E-16
   LPB:    8  -0.339244058914163E+00   0.261089422101547E-02   0.257217E-01   0.705062E+00   0.355383E+03   0.146276E-17
   LPB:    9  -0.339243602690884E+00   0.342383190042476E-02   0.309020E-01   0.518784E+00   0.254807E+03  -0.379472E-17
   LPB:   10  -0.339243318902292E+00   0.202480514621515E-02   0.238846E-01   0.804796E+00   0.145410E+03   0.993426E-17
   LPB:   11  -0.339243085972995E+00   0.628725261515341E-03   0.324014E-01   0.605040E+00   0.551850E+03   0.202839E-16
   LPB:   12  -0.339242924067756E+00   0.223323100130234E-03   0.397144E-01   0.567092E+00   0.263345E+04   0.428265E-16
   LPB:   13  -0.339242818999133E+00   0.234898194881858E-03   0.408706E-01   0.630593E+00   0.675487E+04   0.644214E-16
   LPB:   14  -0.339242749573479E+00   0.292109075486379E-03   0.390138E-01   0.692212E+00   0.321398E+04   0.794648E-16
   LPB:   15  -0.339242703315747E+00   0.297266519358005E-03   0.370938E-01   0.700779E+00   0.180043E+04   0.894414E-16
   LPB:   16  -0.339242668624306E+00   0.210081508559970E-03   0.367903E-01   0.756147E+00   0.187852E+04   0.954043E-16
  Finished solving LPB equations
  A_corr:   -0.265674222985273     
 End minimization
 Ecorr=   1645.02626712146     
 A_corr= -0.265674222985273     
 Ecorr_band=  -1645.29194134445     
 End Solvation calculations
DAV:   1    -0.133879482884E+03   -0.19650E-03   -0.27928E-02 12618   0.273E-01    0.472E-02
 Begin Solvation calculations
  rms_SCF =   2.165449550778664E-003 tol =   2.165449550778664E-004
 Begin minimization
 Creating dielectric and ionic cavities
  area:      140.132380448637     
  volume:    649.209336558923     
  Acav:     7.356949973553456E-002
  Solving linear dielectric/ionic screening model
        iter                  A_solv                     rms
   LPB:       -0.339253097015220E+00   0.153780658266843E-01
   LPB:    0  -0.339252921148136E+00   0.109552170821108E-01  -0.111182E-03   0.000000E+00   0.284544E+02  -0.316360E-02
   LPB:    1  -0.339248927007881E+00   0.600642878910784E-02   0.165615E-01   0.000000E+00   0.173693E+03   0.105011E-18
   LPB:    2  -0.339248423135535E+00   0.310825894546510E-02   0.162913E-01   0.128246E+00   0.925645E+02  -0.149905E-16
   LPB:    3  -0.339248210882072E+00   0.201273135075919E-02   0.222766E-01   0.308064E+00   0.262212E+03  -0.400194E-16
   LPB:    4  -0.339248125592839E+00   0.170085292685569E-02   0.212989E-01   0.420272E+00   0.129853E+03  -0.506184E-16
   LPB:    5  -0.339248071620444E+00   0.756184458885824E-03   0.224385E-01   0.600678E+00   0.259501E+03  -0.558207E-16
   LPB:    6  -0.339248033629766E+00   0.328399643999491E-03   0.293681E-01   0.537803E+00   0.522863E+03  -0.644525E-16
   LPB:    7  -0.339248005513009E+00   0.196866166770347E-03   0.364161E-01   0.596857E+00   0.766525E+03  -0.701010E-16
  Finished solving LPB equations
  A_corr:   -0.265678505777474     
 End minimization
 Ecorr=   1645.00191052556     
 A_corr= -0.265678505777474     
 Ecorr_band=  -1645.26758903134     
 End Solvation calculations
RMM:   2    -0.133879573400E+03   -0.90516E-04   -0.10411E-03 17507   0.606E-02    0.264E-02
 Begin Solvation calculations
  rms_SCF =   2.165449550778664E-003 tol =   2.165449550778664E-004
 Begin minimization
 Creating dielectric and ionic cavities
  area:      140.128596785783     
  volume:    649.206870945936     
  Acav:     7.356751331253615E-002
  Solving linear dielectric/ionic screening model
        iter                  A_solv                     rms
   LPB:       -0.339305762475572E+00   0.194098395150678E-01
   LPB:    0  -0.339305505358410E+00   0.142461967091042E-01  -0.134433E-03   0.000000E+00   0.284545E+02  -0.382521E-02
   LPB:    1  -0.339304459722560E+00   0.371763410410934E-02   0.103000E-01   0.000000E+00   0.730067E+02   0.176804E-20
   LPB:    2  -0.339304272514231E+00   0.146678631196766E-02   0.162214E-01   0.113682E+00   0.106185E+03   0.135748E-17
   LPB:    3  -0.339304221078743E+00   0.105691117801877E-02   0.224354E-01   0.198652E+00   0.187984E+03  -0.633388E-18
   LPB:    4  -0.339304193577658E+00   0.472384767091079E-03   0.237320E-01   0.505459E+00   0.144236E+03  -0.101184E-17
   LPB:    5  -0.339304175675071E+00   0.207882388791819E-03   0.299226E-01   0.516299E+00   0.566174E+03  -0.288766E-17
  Finished solving LPB equations
  A_corr:   -0.265736662362535     
 End minimization
 Ecorr=   1644.96056647099     
 A_corr= -0.265736662362535     
 Ecorr_band=  -1645.22630313335     
 End Solvation calculations
RMM:   3    -0.133879561702E+03    0.11698E-04   -0.40542E-05  8034   0.187E-02    0.175E-02
 Begin Solvation calculations
  rms_SCF =   2.165449550778664E-003 tol =   2.165449550778664E-004
 Begin minimization
 Creating dielectric and ionic cavities
  area:      140.127640312521     
  volume:    649.204804358624     
  Acav:     7.356701116407349E-002
  Solving linear dielectric/ionic screening model
        iter                  A_solv                     rms
   LPB:       -0.339309531399902E+00   0.388562778737245E-01
   LPB:    0  -0.339309280582224E+00   0.365839161713121E-01  -0.132776E-03   0.000000E+00   0.284546E+02  -0.377807E-02
   LPB:    1  -0.339305294868368E+00   0.494315109627672E-02   0.101853E-01   0.000000E+00   0.547032E+02  -0.211691E-18
   LPB:    2  -0.339304759800862E+00   0.176082775145467E-02   0.140721E-01   0.971661E-01   0.194899E+03   0.231829E-16
   LPB:    3  -0.339304653358179E+00   0.128213244304867E-02   0.220531E-01   0.126940E+00   0.103037E+03   0.247875E-16
   LPB:    4  -0.339304613150276E+00   0.728927224408746E-03   0.233216E-01   0.357196E+00   0.120619E+03   0.631263E-17
   LPB:    5  -0.339304585419071E+00   0.337705948059533E-03   0.281427E-01   0.571545E+00   0.303982E+03  -0.936807E-18
   LPB:    6  -0.339304564862464E+00   0.210824676469500E-03   0.364050E-01   0.573043E+00   0.294285E+03  -0.117832E-16
  Finished solving LPB equations
  A_corr:   -0.265737553698391     
 End minimization
 Ecorr=   1644.92802223390     
 A_corr= -0.265737553698391     
 Ecorr_band=  -1645.19375978759     
 End Solvation calculations
RMM:   4    -0.133879566669E+03   -0.49662E-05   -0.20480E-05  7030   0.231E-02
 Begin Solvation calculations
  rms_SCF =   2.165449550778664E-003 tol =   2.165449550778664E-004
 Begin minimization
 Creating dielectric and ionic cavities
  area:      140.125543488582     
  volume:    649.202539460668     
  Acav:     7.356591033150546E-002
  Solving linear dielectric/ionic screening model
        iter                  A_solv                     rms
   LPB:       -0.339389069524292E+00   0.428913481909588E-01
   LPB:    0  -0.339388696183293E+00   0.398575391052972E-01  -0.161991E-03   0.000000E+00   0.284547E+02  -0.460940E-02
   LPB:    1  -0.339384538452559E+00   0.370815338088009E-02   0.844876E-02   0.000000E+00   0.689304E+02  -0.178232E-19
   LPB:    2  -0.339384255492843E+00   0.119558512839634E-02   0.185729E-01   0.309586E-01   0.665507E+02   0.723089E-16
   LPB:    3  -0.339384202782321E+00   0.828778656124682E-03   0.195902E-01   0.176609E+00   0.230636E+03   0.863387E-16
   LPB:    4  -0.339384176945063E+00   0.556457957272075E-03   0.270833E-01   0.354558E+00   0.119207E+03   0.931853E-16
   LPB:    5  -0.339384158480769E+00   0.326804575439324E-03   0.301228E-01   0.642528E+00   0.470457E+03   0.982509E-16
   LPB:    6  -0.339384139951359E+00   0.171990407807479E-03   0.405475E-01   0.745521E+00   0.334149E+03   0.977094E-16
  Finished solving LPB equations
  A_corr:   -0.265818229619854     
 End minimization
 Ecorr=   1644.87396266969     
 A_corr= -0.265818229619854     
 Ecorr_band=  -1645.13978089931     
 End Solvation calculations
   3 F= -.13387957E+03 E0= -.13388083E+03  d E =-.274578E-03
quench:  g(F)=  0.000E+00 g(S)=  0.000E+00 dE (1.order)= 0.000E+00
 bond charge predicted
       N       E                     dE             d eps       ncg     rms          rms(c)
 Begin Solvation calculations
  rms_SCF =   2.165449550778664E-003 tol =   2.165449550778664E-004
 Begin minimization
 Creating dielectric and ionic cavities
  area:      140.152719895065     
  volume:    649.214474123572     
  Acav:     7.358017794490919E-002
  Solving linear dielectric/ionic screening model
        iter                  A_solv                     rms
   LPB:       -0.340674439181245E+00   0.355132643131943E-02
   LPB:    0  -0.340674439153492E+00   0.355475546257753E-02   0.139669E-05   0.000000E+00   0.284541E+02   0.397415E-04
   LPB:    1  -0.339534952204369E+00   0.121858035492136E-02   0.155247E-01   0.000000E+00   0.740989E+06  -0.114787E-20
   LPB:    2  -0.339423116979828E+00   0.625271751480700E-03   0.269607E-01   0.565148E-01   0.181605E+06   0.131820E-17
   LPB:    3  -0.339386212528761E+00   0.608504008002087E-03   0.329976E-01   0.269618E+00   0.102981E+06   0.100442E-17
   LPB:    4  -0.339369911781150E+00   0.117727670870346E-02   0.359764E-01   0.405129E+00   0.479974E+05  -0.170762E-18
   LPB:    5  -0.339361739187313E+00   0.290138975715172E-02   0.375266E-01   0.480653E+00   0.818965E+04  -0.543768E-17
   LPB:    6  -0.339357495425491E+00   0.749334713641483E-02   0.363735E-01   0.535730E+00   0.947940E+03  -0.136942E-16
   LPB:    7  -0.339355561921961E+00   0.101631792975249E-01   0.245917E-01   0.673893E+00   0.166335E+03  -0.306601E-17
   LPB:    8  -0.339354097571880E+00   0.444455753286933E-02   0.216199E-01   0.861457E+00   0.227644E+03   0.325082E-16
   LPB:    9  -0.339353042150616E+00   0.486777046836555E-02   0.311401E-01   0.500397E+00   0.311943E+03   0.684265E-16
   LPB:   10  -0.339352428854500E+00   0.357866761590184E-02   0.240970E-01   0.750933E+00   0.137462E+03   0.961564E-16
   LPB:   11  -0.339351927499180E+00   0.115220148838231E-02   0.295594E-01   0.666412E+00   0.376866E+03   0.138615E-15
   LPB:   12  -0.339351568330302E+00   0.387338562622631E-03   0.386891E-01   0.547344E+00   0.222105E+04   0.168794E-15
   LPB:   13  -0.339351338642397E+00   0.425491804367581E-03   0.397407E-01   0.622576E+00   0.454009E+04   0.197406E-15
   LPB:   14  -0.339351191376307E+00   0.482701212891258E-03   0.373906E-01   0.681455E+00   0.232361E+04   0.213860E-15
   LPB:   15  -0.339351094756724E+00   0.411351383703460E-03   0.359082E-01   0.683174E+00   0.140644E+04   0.226039E-15
   LPB:   16  -0.339351025505759E+00   0.250632620465834E-03   0.364935E-01   0.705244E+00   0.215086E+04   0.235319E-15
   LPB:   17  -0.339350978087959E+00   0.150088371861908E-03   0.386706E-01   0.646174E+00   0.354526E+04   0.239277E-15
  Finished solving LPB equations
  A_corr:   -0.265770800143050     
 End minimization
 Ecorr=   1644.86221802187     
 A_corr= -0.265770800143050     
 Ecorr_band=  -1645.12798882201     
 End Solvation calculations
DAV:   1    -0.133879808754E+03   -0.24705E-03   -0.64189E-02 12879   0.449E-01    0.689E-02
 Begin Solvation calculations
  rms_SCF =   2.165449550778664E-003 tol =   2.165449550778664E-004
 Begin minimization
 Creating dielectric and ionic cavities
  area:      140.153689408533     
  volume:    649.208981890982     
  Acav:     7.358068693947999E-002
  Solving linear dielectric/ionic screening model
        iter                  A_solv                     rms
   LPB:       -0.339404194805272E+00   0.704056040489827E-01
   LPB:    0  -0.339403881163555E+00   0.691838653136665E-01  -0.148476E-03   0.000000E+00   0.284544E+02  -0.422480E-02
   LPB:    1  -0.339391035044476E+00   0.767470916503976E-02   0.947993E-02   0.000000E+00   0.592763E+02   0.249567E-18
   LPB:    2  -0.339389465061746E+00   0.198341379061838E-02   0.148622E-01   0.779551E-01   0.183429E+03   0.835849E-17
   LPB:    3  -0.339389172568464E+00   0.150104627081191E-02   0.240582E-01   0.115091E+00   0.173472E+03   0.941026E-18
   LPB:    4  -0.339389075607988E+00   0.118450548737759E-02   0.258066E-01   0.309038E+00   0.142771E+03  -0.295038E-16
   LPB:    5  -0.339389021966246E+00   0.712439934060044E-03   0.245095E-01   0.582512E+00   0.302536E+03  -0.505664E-16
   LPB:    6  -0.339388984455244E+00   0.432277337031834E-03   0.318543E-01   0.538049E+00   0.221852E+03  -0.582016E-16
   LPB:    7  -0.339388956813088E+00   0.265273366679970E-03   0.354334E-01   0.662474E+00   0.546847E+03  -0.690318E-16
   LPB:    8  -0.339388934611920E+00   0.146306411631441E-03   0.393054E-01   0.724043E+00   0.718817E+03  -0.758998E-16
  Finished solving LPB equations
  A_corr:   -0.265808247672440     
 End minimization
 Ecorr=   1644.84374429518     
 A_corr= -0.265808247672440     
 Ecorr_band=  -1645.10955254285     
 End Solvation calculations
RMM:   2    -0.133880033776E+03   -0.22502E-03   -0.24112E-03 19398   0.104E-01    0.341E-02
 Begin Solvation calculations
  rms_SCF =   2.165449550778664E-003 tol =   2.165449550778664E-004
 Begin minimization
 Creating dielectric and ionic cavities
  area:      140.143501094014     
  volume:    649.205088684928     
  Acav:     7.357533807435730E-002
  Solving linear dielectric/ionic screening model
        iter                  A_solv                     rms
   LPB:       -0.339648022135659E+00   0.834463099750832E-01
   LPB:    0  -0.339646443076832E+00   0.780960172321905E-01  -0.333149E-03   0.000000E+00   0.284546E+02  -0.947960E-02
   LPB:    1  -0.339629105399785E+00   0.104390345098760E-01   0.936055E-02   0.000000E+00   0.626576E+02   0.295453E-18
   LPB:    2  -0.339626215011633E+00   0.170339906451530E-02   0.173870E-01   0.897517E-01   0.123413E+03  -0.201590E-16
   LPB:    3  -0.339625819889532E+00   0.185057640738320E-02   0.242117E-01   0.981690E-01   0.373696E+03  -0.333773E-17
   LPB:    4  -0.339625688470224E+00   0.150874124968280E-02   0.221728E-01   0.363188E+00   0.114613E+03  -0.246560E-17
   LPB:    5  -0.339625617797606E+00   0.771482746397777E-03   0.251944E-01   0.473270E+00   0.189989E+03  -0.459738E-17
   LPB:    6  -0.339625579970017E+00   0.415872076047705E-03   0.295239E-01   0.456759E+00   0.268555E+03  -0.241796E-17
   LPB:    7  -0.339625556458913E+00   0.198627891707122E-03   0.329353E-01   0.557156E+00   0.421613E+03   0.313655E-17
  Finished solving LPB equations
  A_corr:   -0.266050218384556     
 End minimization
 Ecorr=   1644.78413723625     
 A_corr= -0.266050218384556     
 Ecorr_band=  -1645.05018745463     
 End Solvation calculations
RMM:   3    -0.133880018115E+03    0.15661E-04   -0.12313E-04 10839   0.316E-02    0.270E-02
 Begin Solvation calculations
  rms_SCF =   2.165449550778664E-003 tol =   2.165449550778664E-004
 Begin minimization
 Creating dielectric and ionic cavities
  area:      140.140925569136     
  volume:    649.206965404229     
  Acav:     7.357398592379634E-002
  Solving linear dielectric/ionic screening model
        iter                  A_solv                     rms
   LPB:       -0.339624696747651E+00   0.850512485058631E-01
   LPB:    0  -0.339624696746225E+00   0.850518086697090E-01   0.316566E-06   0.000000E+00   0.284545E+02   0.900773E-05
   LPB:    1  -0.339606334377055E+00   0.843040711522325E-02   0.908171E-02   0.000000E+00   0.615149E+02  -0.526542E-21
   LPB:    2  -0.339604478054523E+00   0.183710432243973E-02   0.150815E-01   0.608763E-01   0.161215E+03  -0.268914E-17
   LPB:    3  -0.339604211613729E+00   0.848158319297809E-03   0.229177E-01   0.944542E-01   0.183885E+03  -0.121042E-16
   LPB:    4  -0.339604133473880E+00   0.612247383639985E-03   0.283105E-01   0.237408E+00   0.236169E+03  -0.200344E-16
   LPB:    5  -0.339604098615619E+00   0.688778663593613E-03   0.265432E-01   0.475803E+00   0.348953E+03  -0.242337E-16
   LPB:    6  -0.339604077985867E+00   0.574748582125075E-03   0.274165E-01   0.572966E+00   0.112567E+03  -0.254241E-16
   LPB:    7  -0.339604062503246E+00   0.323256278305362E-03   0.301453E-01   0.682565E+00   0.286949E+03  -0.208884E-16
   LPB:    8  -0.339604049372264E+00   0.126316380055117E-03   0.381758E-01   0.669705E+00   0.272126E+03  -0.221549E-16
  Finished solving LPB equations
  A_corr:   -0.266030063448467     
 End minimization
 Ecorr=   1644.74205029305     
 A_corr= -0.266030063448467     
 Ecorr_band=  -1645.00808035650     
 End Solvation calculations
RMM:   4    -0.133880013110E+03    0.50055E-05   -0.42514E-05  8946   0.310E-02
 Begin Solvation calculations
  rms_SCF =   2.165449550778664E-003 tol =   2.165449550778664E-004
 Begin minimization
 Creating dielectric and ionic cavities
  area:      140.135665077772     
  volume:    649.204919966131     
  Acav:     7.357122416583009E-002
  Solving linear dielectric/ionic screening model
        iter                  A_solv                     rms
   LPB:       -0.339814363860305E+00   0.486604715508207E-01
   LPB:    0  -0.339812994987370E+00   0.396781460403501E-01  -0.310185E-03   0.000000E+00   0.284546E+02  -0.882618E-02
   LPB:    1  -0.339806339056590E+00   0.886880831959485E-02   0.104829E-01   0.000000E+00   0.674733E+02   0.504514E-18
   LPB:    2  -0.339805061688550E+00   0.217496192277085E-02   0.151832E-01   0.132503E+00   0.146909E+03  -0.258970E-17
   LPB:    3  -0.339804867117074E+00   0.194298281680591E-02   0.226040E-01   0.102316E+00   0.181315E+03  -0.934864E-17
   LPB:    4  -0.339804798786604E+00   0.880191607461690E-03   0.203768E-01   0.389568E+00   0.798288E+02  -0.126214E-16
   LPB:    5  -0.339804757931610E+00   0.302468880975224E-03   0.283863E-01   0.429199E+00   0.507070E+03  -0.174718E-16
   LPB:    6  -0.339804734230357E+00   0.198949444985882E-03   0.348824E-01   0.472093E+00   0.430640E+03  -0.220988E-16
  Finished solving LPB equations
  A_corr:   -0.266233510064526     
 End minimization
 Ecorr=   1644.67164010033     
 A_corr= -0.266233510064526     
 Ecorr_band=  -1644.93787361040     
 End Solvation calculations
   4 F= -.13388001E+03 E0= -.13388126E+03  d E =-.446441E-03
quench:  g(F)=  0.000E+00 g(S)=  0.000E+00 dE (1.order)= 0.000E+00
 bond charge predicted
       N       E                     dE             d eps       ncg     rms          rms(c)
 Begin Solvation calculations
  rms_SCF =   2.165449550778664E-003 tol =   2.165449550778664E-004
 Begin minimization
 Creating dielectric and ionic cavities
  area:      140.149614469991     
  volume:    649.216932054020     
  Acav:     7.357854759674526E-002
  Solving linear dielectric/ionic screening model
        iter                  A_solv                     rms
   LPB:       -0.341228032379412E+00   0.350176275490683E-02
   LPB:    0  -0.341228032361214E+00   0.350310255234137E-02   0.113097E-05   0.000000E+00   0.284540E+02   0.321806E-04
   LPB:    1  -0.339940309038088E+00   0.106799440775094E-02   0.156202E-01   0.000000E+00   0.855623E+06   0.129501E-21
   LPB:    2  -0.339816377326861E+00   0.563093402512139E-03   0.266916E-01   0.563210E-01   0.275563E+06   0.186290E-18
   LPB:    3  -0.339776662163805E+00   0.731672338023600E-03   0.326474E-01   0.261999E+00   0.160720E+06   0.529224E-18
   LPB:    4  -0.339759374125322E+00   0.168071999653291E-02   0.358134E-01   0.396819E+00   0.401652E+05   0.106461E-17
   LPB:    5  -0.339750807370968E+00   0.487614913746656E-02   0.371707E-01   0.477435E+00   0.560246E+04   0.347752E-18
   LPB:    6  -0.339746631358851E+00   0.116991713747909E-01   0.330788E-01   0.547769E+00   0.406589E+03   0.176212E-16
   LPB:    7  -0.339744647172147E+00   0.860213033576875E-02   0.192699E-01   0.815625E+00   0.145989E+03   0.566279E-17
   LPB:    8  -0.339742824917762E+00   0.344982959477192E-02   0.273496E-01   0.647076E+00   0.441193E+03   0.181273E-16
   LPB:    9  -0.339741706916935E+00   0.484774797306638E-02   0.327151E-01   0.512903E+00   0.305606E+03   0.505515E-16
   LPB:   10  -0.339741054714676E+00   0.343719175063489E-02   0.242538E-01   0.786879E+00   0.156603E+03   0.808935E-16
   LPB:   11  -0.339740520749177E+00   0.115365630749197E-02   0.309437E-01   0.641712E+00   0.348488E+03   0.537286E-16
   LPB:   12  -0.339740146075258E+00   0.443519257276659E-03   0.390149E-01   0.556521E+00   0.236376E+04  -0.173855E-16
   LPB:   13  -0.339739905738832E+00   0.373670303814300E-03   0.406815E-01   0.615177E+00   0.296875E+04  -0.662864E-16
   LPB:   14  -0.339739749628215E+00   0.437519154754972E-03   0.391814E-01   0.674418E+00   0.301493E+04  -0.101747E-15
   LPB:   15  -0.339739650782443E+00   0.442090497854177E-03   0.368118E-01   0.673935E+00   0.129926E+04  -0.126176E-15
   LPB:   16  -0.339739581545718E+00   0.323836200336314E-03   0.360063E-01   0.716123E+00   0.156268E+04  -0.143406E-15
   LPB:   17  -0.339739533786274E+00   0.182048508489689E-03   0.367542E-01   0.675763E+00   0.203298E+04  -0.156191E-15
  Finished solving LPB equations
  A_corr:   -0.266160986189529     
 End minimization
 Ecorr=   1644.64371937385     
 A_corr= -0.266160986189529     
 Ecorr_band=  -1644.90988036004     
 End Solvation calculations
DAV:   1    -0.133880166803E+03   -0.14869E-03   -0.72894E-02 13428   0.455E-01    0.936E-02
 Begin Solvation calculations
  rms_SCF =   2.165449550778664E-003 tol =   2.165449550778664E-004
 Begin minimization
 Creating dielectric and ionic cavities
  area:      140.166242306790     
  volume:    649.223148692943     
  Acav:     7.358727721106452E-002
  Solving linear dielectric/ionic screening model
        iter                  A_solv                     rms
   LPB:       -0.339618018811758E+00   0.628952163450230E-01
   LPB:    0  -0.339617781221832E+00   0.617977073040458E-01   0.129229E-03   0.000000E+00   0.284537E+02   0.367704E-02
   LPB:    1  -0.339574107406323E+00   0.332977500413375E-01   0.144282E-01   0.000000E+00   0.109009E+03   0.370566E-18
   LPB:    2  -0.339565601162518E+00   0.560389348299457E-02   0.127291E-01   0.220765E+00   0.191023E+03  -0.564603E-17
   LPB:    3  -0.339562606442395E+00   0.149259549671302E-02   0.284176E-01   0.157699E+00   0.634219E+03  -0.831468E-17
   LPB:    4  -0.339561600676910E+00   0.135955447703622E-02   0.318771E-01   0.299398E+00   0.798177E+03  -0.139226E-17
   LPB:    5  -0.339561151477382E+00   0.123558115155661E-02   0.310936E-01   0.457878E+00   0.531517E+03  -0.581019E-17
   LPB:    6  -0.339560904100427E+00   0.952121779593159E-03   0.326569E-01   0.524344E+00   0.460552E+03  -0.223170E-16
   LPB:    7  -0.339560761827858E+00   0.110627621921174E-02   0.340018E-01   0.552375E+00   0.391516E+03  -0.159049E-16
   LPB:    8  -0.339560682677997E+00   0.121777015392076E-02   0.291381E-01   0.649187E+00   0.200246E+03  -0.315315E-16
   LPB:    9  -0.339560628883304E+00   0.709190283812452E-03   0.263868E-01   0.750524E+00   0.224759E+03  -0.419197E-16
   LPB:   10  -0.339560587495851E+00   0.327563961393809E-03   0.332296E-01   0.610927E+00   0.406713E+03  -0.452375E-16
   LPB:   11  -0.339560558306014E+00   0.214096865262323E-03   0.376430E-01   0.622593E+00   0.843008E+03  -0.441920E-16
  Finished solving LPB equations
  A_corr:   -0.265973281094949     
 End minimization
 Ecorr=   1644.68660423875     
 A_corr= -0.265973281094949     
 Ecorr_band=  -1644.95257751984     
 End Solvation calculations
RMM:   2    -0.133880510385E+03   -0.34358E-03   -0.43589E-03 17339   0.119E-01    0.638E-02
 Begin Solvation calculations
  rms_SCF =   2.165449550778664E-003 tol =   2.165449550778664E-004
 Begin minimization
 Creating dielectric and ionic cavities
  area:      140.156319230116     
  volume:    649.220451314367     
  Acav:     7.358206759581114E-002
  Solving linear dielectric/ionic screening model
        iter                  A_solv                     rms
   LPB:       -0.339682364455337E+00   0.763166945873477E-01
   LPB:    0  -0.339682180604876E+00   0.755966978797200E-01  -0.113678E-03   0.000000E+00   0.284538E+02  -0.323458E-02
   LPB:    1  -0.339667931046568E+00   0.778826094349583E-02   0.890880E-02   0.000000E+00   0.624326E+02  -0.183559E-18
   LPB:    2  -0.339666162927418E+00   0.151507208327241E-02   0.179146E-01   0.617052E-01   0.116884E+03  -0.216964E-16
   LPB:    3  -0.339665863761546E+00   0.606800051991579E-03   0.231381E-01   0.131003E+00   0.280140E+03  -0.227278E-16
   LPB:    4  -0.339665756055547E+00   0.787347035797606E-03   0.305426E-01   0.272740E+00   0.446052E+03  -0.196836E-16
   LPB:    5  -0.339665706423439E+00   0.954849820351840E-03   0.285906E-01   0.492272E+00   0.176436E+03  -0.183613E-16
   LPB:    6  -0.339665675408165E+00   0.702630119374558E-03   0.277445E-01   0.643961E+00   0.143759E+03  -0.166737E-16
   LPB:    7  -0.339665652976596E+00   0.359384014008709E-03   0.294503E-01   0.681350E+00   0.268085E+03  -0.214787E-16
   LPB:    8  -0.339665634241528E+00   0.168518444920809E-03   0.356162E-01   0.690618E+00   0.744568E+03  -0.156733E-16
  Finished solving LPB equations
  A_corr:   -0.266083566645716     
 End minimization
 Ecorr=   1644.65135389304     
 A_corr= -0.266083566645716     
 Ecorr_band=  -1644.91743745968     
 End Solvation calculations
RMM:   3    -0.133880414991E+03    0.95394E-04   -0.20923E-04 12214   0.359E-02    0.396E-02
 Begin Solvation calculations
  rms_SCF =   2.165449550778664E-003 tol =   2.165449550778664E-004
 Begin minimization
 Creating dielectric and ionic cavities
  area:      140.156677314761     
  volume:    649.221653246732     
  Acav:     7.358225559024957E-002
  Solving linear dielectric/ionic screening model
        iter                  A_solv                     rms
   LPB:       -0.339560087237338E+00   0.106823626371314E+00
   LPB:    0  -0.339560036442489E+00   0.106715676766410E+00   0.597523E-04   0.000000E+00   0.284538E+02   0.170018E-02
   LPB:    1  -0.339528126992553E+00   0.127449431618924E-01   0.942836E-02   0.000000E+00   0.630174E+02   0.458623E-19
   LPB:    2  -0.339523327123069E+00   0.251377381708222E-02   0.162599E-01   0.872226E-01   0.190868E+03  -0.629353E-17
   LPB:    3  -0.339522565480134E+00   0.160320080305817E-02   0.246135E-01   0.104825E+00   0.248558E+03  -0.663184E-17
   LPB:    4  -0.339522308097302E+00   0.106152047596510E-02   0.279277E-01   0.297828E+00   0.285697E+03   0.322547E-16
   LPB:    5  -0.339522192576015E+00   0.105655610236616E-02   0.289938E-01   0.432327E+00   0.316506E+03   0.475457E-16
   LPB:    6  -0.339522131005016E+00   0.103683723325823E-02   0.270752E-01   0.570753E+00   0.198603E+03   0.557099E-16
   LPB:    7  -0.339522088095989E+00   0.600471148683699E-03   0.278611E-01   0.677245E+00   0.177440E+03   0.603474E-16
   LPB:    8  -0.339522055322266E+00   0.280509054389593E-03   0.342529E-01   0.621266E+00   0.360387E+03   0.647822E-16
   LPB:    9  -0.339522030758868E+00   0.158254239534894E-03   0.388081E-01   0.661512E+00   0.799158E+03   0.702464E-16
  Finished solving LPB equations
  A_corr:   -0.265939775168618     
 End minimization
 Ecorr=   1644.67008403286     
 A_corr= -0.265939775168618     
 Ecorr_band=  -1644.93602380803     
 End Solvation calculations
RMM:   4    -0.133880427715E+03   -0.12723E-04   -0.88819E-05 11561   0.432E-02    0.372E-02
 Begin Solvation calculations
  rms_SCF =   2.165449550778664E-003 tol =   2.165449550778664E-004
 Begin minimization
 Creating dielectric and ionic cavities
  area:      140.152246026599     
  volume:    649.219220391521     
  Acav:     7.357992916396468E-002
  Solving linear dielectric/ionic screening model
        iter                  A_solv                     rms
   LPB:       -0.339642131948526E+00   0.982980816922498E-01
   LPB:    0  -0.339641986700170E+00   0.978848917973742E-01  -0.101041E-03   0.000000E+00   0.284539E+02  -0.287502E-02
   LPB:    1  -0.339610870800473E+00   0.130600378649362E-01   0.957281E-02   0.000000E+00   0.706583E+02   0.122142E-18
   LPB:    2  -0.339605668856927E+00   0.232154260922536E-02   0.165883E-01   0.964763E-01   0.310382E+03  -0.591035E-17
   LPB:    3  -0.339604691753150E+00   0.116187935035631E-02   0.249966E-01   0.124651E+00   0.486459E+03  -0.644558E-17
   LPB:    4  -0.339604376170947E+00   0.117021215471968E-02   0.287259E-01   0.281047E+00   0.501038E+03  -0.164898E-16
   LPB:    5  -0.339604236363760E+00   0.131362526448108E-02   0.295501E-01   0.430657E+00   0.235960E+03  -0.196109E-16
   LPB:    6  -0.339604157503400E+00   0.122493944611205E-02   0.285659E-01   0.583498E+00   0.167993E+03  -0.211781E-16
   LPB:    7  -0.339604102955387E+00   0.725316603896559E-03   0.279189E-01   0.707736E+00   0.188206E+03  -0.129410E-16
   LPB:    8  -0.339604060210249E+00   0.337043765824407E-03   0.324986E-01   0.673195E+00   0.450646E+03  -0.979274E-17
   LPB:    9  -0.339604027640421E+00   0.168309009992620E-03   0.378274E-01   0.654616E+00   0.779415E+03  -0.308628E-17
  Finished solving LPB equations
  A_corr:   -0.266024098476456     
 End minimization
 Ecorr=   1644.65267093622     
 A_corr= -0.266024098476456     
 Ecorr_band=  -1644.91869503469     
 End Solvation calculations
RMM:   5    -0.133880406755E+03    0.20959E-04   -0.36845E-05  7758   0.300E-02    0.117E-02
 Begin Solvation calculations
  rms_SCF =   2.165449550778664E-003 tol =   2.165449550778664E-004
 Begin minimization
 Creating dielectric and ionic cavities
  area:      140.153022786766     
  volume:    649.219801256626     
  Acav:     7.358033696305195E-002
  Solving linear dielectric/ionic screening model
        iter                  A_solv                     rms
   LPB:       -0.339532255617473E+00   0.450729424453376E-01
   LPB:    0  -0.339532165895372E+00   0.446476945726835E-01   0.794135E-04   0.000000E+00   0.284539E+02   0.225962E-02
   LPB:    1  -0.339525446473948E+00   0.744086347390918E-02   0.101815E-01   0.000000E+00   0.648681E+02   0.146930E-18
   LPB:    2  -0.339524253209367E+00   0.114977343629613E-02   0.150644E-01   0.120023E+00   0.241845E+03  -0.554596E-17
   LPB:    3  -0.339524062816249E+00   0.613450826828609E-03   0.250527E-01   0.959428E-01   0.313393E+03  -0.483515E-17
   LPB:    4  -0.339523999843459E+00   0.344655670165138E-03   0.280522E-01   0.295386E+00   0.377392E+03  -0.632376E-17
   LPB:    5  -0.339523967491344E+00   0.253175701860177E-03   0.334044E-01   0.431433E+00   0.584745E+03  -0.384294E-17
   LPB:    6  -0.339523943500150E+00   0.358574263778009E-03   0.402686E-01   0.615157E+00   0.400296E+03  -0.388334E-18
   LPB:    7  -0.339523924489217E+00   0.612936164312511E-03   0.365788E-01   0.872346E+00   0.180153E+03   0.195605E-17
   LPB:    8  -0.339523909895179E+00   0.523024353089023E-03   0.287410E-01   0.977011E+00   0.145943E+03   0.184623E-17
   LPB:    9  -0.339523896634944E+00   0.250519955505667E-03   0.322243E-01   0.810391E+00   0.252578E+03   0.210642E-17
   LPB:   10  -0.339523885834326E+00   0.119338845605672E-03   0.387304E-01   0.677686E+00   0.569797E+03   0.680867E-17
  Finished solving LPB equations
  A_corr:   -0.265943548871274     
 End minimization
 Ecorr=   1644.65550329063     
 A_corr= -0.265943548871274     
 Ecorr_band=  -1644.92144683951     
 End Solvation calculations
[...]
  Finished solving LPB equations
  A_corr:   -0.282132053627103     
 End minimization
 Ecorr=   1639.42907405289     
 A_corr= -0.282132053627103     
 Ecorr_band=  -1639.71120610652     
 End Solvation calculations
 185 F= -.13388631E+03 E0= -.13388685E+03  d E =0.216862E-03
quench:  g(F)=  0.000E+00 g(S)=  0.000E+00 dE (1.order)= 0.000E+00
 bond charge predicted
       N       E                     dE             d eps       ncg     rms          rms(c)
 Begin Solvation calculations
  rms_SCF =   7.262405532709066E-004 tol =   7.262405532709066E-005
 Begin minimization
 Creating dielectric and ionic cavities
  area:      141.453233084558     
  volume:    650.608988296037     
  Acav:     7.426294736939282E-002
  Solving linear dielectric/ionic screening model
        iter                  A_solv                     rms
   LPB:       -0.356480453236012E+00   0.972329045532685E-03
   LPB:    0  -0.356480453228080E+00   0.980868250407774E-03   0.747570E-06   0.000000E+00   0.283887E+02   0.212226E-04
   LPB:    1  -0.356404779187349E+00   0.385229285087826E-03   0.157200E-01   0.000000E+00   0.587445E+06   0.981360E-21
   LPB:    2  -0.356396313125932E+00   0.299664791768585E-03   0.276124E-01   0.636915E-01   0.123513E+06  -0.148558E-17
   LPB:    3  -0.356393494356197E+00   0.528062603591952E-03   0.329752E-01   0.278802E+00   0.501464E+05  -0.349179E-17
   LPB:    4  -0.356392277405585E+00   0.115131848926982E-02   0.354898E-01   0.401142E+00   0.666680E+04  -0.293771E-17
   LPB:    5  -0.356391692180015E+00   0.259306213445743E-02   0.352206E-01   0.484570E+00   0.792338E+03  -0.597937E-17
   LPB:    6  -0.356391425869413E+00   0.334003658893073E-02   0.254384E-01   0.630046E+00   0.164722E+03   0.589124E-17
   LPB:    7  -0.356391238221729E+00   0.180123997017486E-02   0.224199E-01   0.799486E+00   0.217486E+03   0.553696E-17
   LPB:    8  -0.356391111947770E+00   0.204075000026507E-02   0.281578E-01   0.535804E+00   0.251641E+03   0.740079E-17
   LPB:    9  -0.356391034561906E+00   0.116677246963740E-02   0.221175E-01   0.780208E+00   0.145136E+03   0.635805E-17
   LPB:   10  -0.356390967441265E+00   0.313637232707736E-03   0.320334E-01   0.598862E+00   0.548872E+03   0.169911E-16
   LPB:   11  -0.356390922244102E+00   0.890101242568381E-04   0.393793E-01   0.547760E+00   0.443225E+04   0.129792E-16
   LPB:   12  -0.356390893455178E+00   0.899815660447527E-04   0.404970E-01   0.619383E+00   0.893632E+04   0.107934E-16
   LPB:   13  -0.356390874826124E+00   0.125032243431040E-03   0.404381E-01   0.648034E+00   0.417362E+04   0.909720E-17
   LPB:   14  -0.356390862593870E+00   0.141463207969235E-03   0.383417E-01   0.692525E+00   0.175574E+04   0.809690E-17
   LPB:   15  -0.356390854134215E+00   0.122726016660379E-03   0.369329E-01   0.717966E+00   0.143815E+04   0.802917E-17
   LPB:   16  -0.356390847802884E+00   0.791736828420080E-04   0.378016E-01   0.731216E+00   0.172442E+04   0.777687E-17
   LPB:   17  -0.356390842867858E+00   0.514079719107530E-04   0.410472E-01   0.717830E+00   0.375697E+04   0.835950E-17
  Finished solving LPB equations
  A_corr:   -0.282127895498465     
 End minimization
 Ecorr=   1639.43228956121     
 A_corr= -0.282127895498465     
 Ecorr_band=  -1639.71441745670     
 End Solvation calculations
DAV:   1    -0.133886119556E+03    0.20007E-03   -0.54043E-03 14949   0.180E-01    0.209E-02
 Begin Solvation calculations
  rms_SCF =   7.262405532709066E-004 tol =   7.262405532709066E-005
 Begin minimization
 Creating dielectric and ionic cavities
  area:      141.451727008776     
  volume:    650.609643228511     
  Acav:     7.426215667960739E-002
  Solving linear dielectric/ionic screening model
        iter                  A_solv                     rms
   LPB:       -0.356284318474484E+00   0.813579813142339E-01
   LPB:    0  -0.356284063872126E+00   0.805852350083526E-01   0.133929E-03   0.000000E+00   0.283887E+02   0.380206E-02
   LPB:    1  -0.356268077404784E+00   0.863963556059125E-02   0.900050E-02   0.000000E+00   0.605097E+02   0.104768E-18
   LPB:    2  -0.356266175041268E+00   0.166323029384330E-02   0.169150E-01   0.633194E-01   0.115039E+03  -0.895821E-18
   LPB:    3  -0.356265896868411E+00   0.591794574343383E-03   0.223869E-01   0.110484E+00   0.202657E+03   0.673087E-17
   LPB:    4  -0.356265811342194E+00   0.451888037924065E-03   0.289977E-01   0.237364E+00   0.354823E+03   0.155969E-16
   LPB:    5  -0.356265777527619E+00   0.508046263546761E-03   0.289013E-01   0.396690E+00   0.275794E+03   0.176153E-16
   LPB:    6  -0.356265760573513E+00   0.501674079813027E-03   0.292953E-01   0.494641E+00   0.158945E+03   0.220988E-16
   LPB:    7  -0.356265751536730E+00   0.365756668975401E-03   0.259246E-01   0.602317E+00   0.157980E+03   0.244193E-16
   LPB:    8  -0.356265745086978E+00   0.152836071651073E-03   0.284476E-01   0.650422E+00   0.237913E+03   0.216044E-16
   LPB:    9  -0.356265740415246E+00   0.669470160501577E-04   0.367672E-01   0.560428E+00   0.475940E+03   0.175657E-16
  Finished solving LPB equations
  A_corr:   -0.282003583735638     
 End minimization
 Ecorr=   1639.45424860557     
 A_corr= -0.282003583735638     
 Ecorr_band=  -1639.73625218931     
 End Solvation calculations
RMM:   2    -0.133886152102E+03   -0.32545E-04   -0.29130E-04 12039   0.390E-02    0.201E-02
 Begin Solvation calculations
  rms_SCF =   7.262405532709066E-004 tol =   7.262405532709066E-005
 Begin minimization
 Creating dielectric and ionic cavities
  area:      141.449054788980     
  volume:    650.607853198850     
  Acav:     7.426075376421459E-002
  Solving linear dielectric/ionic screening model
        iter                  A_solv                     rms
   LPB:       -0.356370930067462E+00   0.755271219866922E-01
   LPB:    0  -0.356370842681395E+00   0.752520465846541E-01  -0.784626E-04   0.000000E+00   0.283888E+02  -0.222746E-02
   LPB:    1  -0.356357405549043E+00   0.744299237164217E-02   0.878103E-02   0.000000E+00   0.614449E+02   0.111795E-19
   LPB:    2  -0.356356187236725E+00   0.141413017992859E-02   0.163569E-01   0.486739E-01   0.107707E+03  -0.609371E-17
   LPB:    3  -0.356356033910831E+00   0.459068509137758E-03   0.216809E-01   0.949470E-01   0.161956E+03  -0.125919E-17
   LPB:    4  -0.356355992536760E+00   0.233193721605006E-03   0.282111E-01   0.207382E+00   0.306687E+03  -0.872038E-18
   LPB:    5  -0.356355975907105E+00   0.147875238111118E-03   0.295403E-01   0.383849E+00   0.337994E+03  -0.378631E-18
   LPB:    6  -0.356355968149246E+00   0.802933461291203E-04   0.321688E-01   0.428390E+00   0.411333E+03   0.167041E-20
   LPB:    7  -0.356355964245197E+00   0.531120069451738E-04   0.355491E-01   0.455385E+00   0.485137E+03   0.450482E-18
  Finished solving LPB equations
  A_corr:   -0.282095210480983     
 End minimization
 Ecorr=   1639.44897388270     
 A_corr= -0.282095210480983     
 Ecorr_band=  -1639.73106909318     
 End Solvation calculations
RMM:   3    -0.133886141989E+03    0.10112E-04   -0.25079E-05  7043   0.207E-02    0.139E-02
 Begin Solvation calculations
  rms_SCF =   7.262405532709066E-004 tol =   7.262405532709066E-005
 Begin minimization
 Creating dielectric and ionic cavities
  area:      141.448460086811     
  volume:    650.607728670120     
  Acav:     7.426044154557583E-002
  Solving linear dielectric/ionic screening model
        iter                  A_solv                     rms
   LPB:       -0.356322819160200E+00   0.179202054225064E-01
   LPB:    0  -0.356322800031177E+00   0.176519163294960E-01   0.367103E-04   0.000000E+00   0.283888E+02   0.104216E-02
   LPB:    1  -0.356321865527859E+00   0.244856356653721E-02   0.970111E-02   0.000000E+00   0.632781E+02   0.844466E-19
   LPB:    2  -0.356321704963013E+00   0.445422734542447E-03   0.163587E-01   0.101893E+00   0.186792E+03  -0.430938E-17
   LPB:    3  -0.356321678485132E+00   0.193184195167455E-03   0.239569E-01   0.112603E+00   0.262559E+03  -0.635156E-17
   LPB:    4  -0.356321669112915E+00   0.149216988228217E-03   0.296562E-01   0.285940E+00   0.392225E+03  -0.882584E-17
   LPB:    5  -0.356321665034309E+00   0.174918374026833E-03   0.307436E-01   0.419788E+00   0.451474E+03  -0.100427E-16
   LPB:    6  -0.356321662642820E+00   0.192239332526307E-03   0.322441E-01   0.559063E+00   0.154115E+03  -0.911709E-17
   LPB:    7  -0.356321660938788E+00   0.180386175688239E-03   0.300649E-01   0.764187E+00   0.218748E+03  -0.834024E-17
   LPB:    8  -0.356321659372965E+00   0.968135631910274E-04   0.319774E-01   0.863936E+00   0.179364E+03  -0.768689E-17
   LPB:    9  -0.356321657802660E+00   0.497150590969412E-04   0.403194E-01   0.795372E+00   0.602867E+03  -0.782374E-17
  Finished solving LPB equations
  A_corr:   -0.282061216257084     
 End minimization
 Ecorr=   1639.46100655128     
 A_corr= -0.282061216257084     
 Ecorr_band=  -1639.74306776754     
 End Solvation calculations
RMM:   4    -0.133886140729E+03    0.12604E-05   -0.10453E-05  6560   0.168E-02
 Begin Solvation calculations
  rms_SCF =   7.262405532709066E-004 tol =   7.262405532709066E-005
 Begin minimization
 Creating dielectric and ionic cavities
  area:      141.446853128000     
  volume:    650.607068944189     
  Acav:     7.425959789219988E-002
  Solving linear dielectric/ionic screening model
        iter                  A_solv                     rms
   LPB:       -0.356297805164147E+00   0.862880859251918E-02
   LPB:    0  -0.356297794620552E+00   0.836506269447570E-02   0.272543E-04   0.000000E+00   0.283888E+02   0.773719E-03
   LPB:    1  -0.356296419960673E+00   0.486224827371258E-02   0.157818E-01   0.000000E+00   0.155990E+03  -0.555818E-20
   LPB:    2  -0.356296253602808E+00   0.142381122820393E-02   0.122049E-01   0.156484E+00   0.144139E+03   0.204701E-18
   LPB:    3  -0.356296184991375E+00   0.239122378024810E-03   0.237698E-01   0.211770E+00   0.342400E+03   0.409561E-18
   LPB:    4  -0.356296162649654E+00   0.213649083318575E-03   0.295865E-01   0.261609E+00   0.689558E+03   0.213632E-17
   LPB:    5  -0.356296153062494E+00   0.222046336969646E-03   0.316327E-01   0.401357E+00   0.508413E+03   0.279567E-17
   LPB:    6  -0.356296147712484E+00   0.226994058830985E-03   0.330775E-01   0.533665E+00   0.227322E+03   0.290987E-17
   LPB:    7  -0.356296144449958E+00   0.250056461922887E-03   0.301070E-01   0.669983E+00   0.213022E+03   0.152484E-17
   LPB:    8  -0.356296142143982E+00   0.161760755489376E-03   0.281189E-01   0.756780E+00   0.153009E+03   0.211334E-17
   LPB:    9  -0.356296140274103E+00   0.779632049176130E-04   0.323552E-01   0.704716E+00   0.462461E+03   0.297985E-17
   LPB:   10  -0.356296138754537E+00   0.381754195208445E-04   0.383167E-01   0.686217E+00   0.493973E+03   0.460293E-17
  Finished solving LPB equations
  A_corr:   -0.282036540862337     
 End minimization
 Ecorr=   1639.47072156668     
 A_corr= -0.282036540862337     
 Ecorr_band=  -1639.75275810754     
 End Solvation calculations
 186 F= -.13388614E+03 E0= -.13388668E+03  d E =0.170314E-03
quench:  g(F)=  0.000E+00 g(S)=  0.000E+00 dE (1.order)= 0.000E+00
 bond charge predicted
       N       E                     dE             d eps       ncg     rms          rms(c)
 Begin Solvation calculations
  rms_SCF =   7.262405532709066E-004 tol =   7.262405532709066E-005
 Begin minimization
 Creating dielectric and ionic cavities
  area:      141.453833641116     
  volume:    650.614935314447     
  Acav:     7.426326266158614E-002
  Solving linear dielectric/ionic screening model
        iter                  A_solv                     rms
   LPB:       -0.356371898911154E+00   0.885548122465940E-03
   LPB:    0  -0.356371898901006E+00   0.896903536251885E-03   0.845536E-06   0.000000E+00   0.283885E+02   0.240035E-04
   LPB:    1  -0.356302294631434E+00   0.291711555799541E-03   0.157236E-01   0.000000E+00   0.625632E+06  -0.687125E-21
   LPB:    2  -0.356294994279298E+00   0.285471677042244E-03   0.272360E-01   0.605504E-01   0.206302E+06   0.257711E-18
   LPB:    3  -0.356292614336061E+00   0.574403669014181E-03   0.325794E-01   0.272535E+00   0.530021E+05  -0.148877E-17
   LPB:    4  -0.356291608284456E+00   0.142719283513627E-02   0.350867E-01   0.392513E+00   0.580335E+04  -0.187199E-17
   LPB:    5  -0.356291152340604E+00   0.341364176630289E-02   0.331500E-01   0.479679E+00   0.530678E+03  -0.516625E-17
   LPB:    6  -0.356290953368617E+00   0.296556386614432E-02   0.201285E-01   0.718709E+00   0.144221E+03  -0.505055E-18
   LPB:    7  -0.356290778521057E+00   0.117469299326779E-02   0.252948E-01   0.699274E+00   0.363851E+03  -0.315226E-17
   LPB:    8  -0.356290669282106E+00   0.154656958068001E-02   0.319371E-01   0.494826E+00   0.283696E+03  -0.326585E-17
   LPB:    9  -0.356290605532678E+00   0.107701857532641E-02   0.242725E-01   0.767855E+00   0.143118E+03  -0.387659E-17
   LPB:   10  -0.356290551603755E+00   0.322178203999349E-03   0.312322E-01   0.657442E+00   0.419187E+03  -0.118060E-16
   LPB:   11  -0.356290514857117E+00   0.945038043635635E-04   0.390398E-01   0.545119E+00   0.348079E+04  -0.135096E-16
   LPB:   12  -0.356290490569981E+00   0.836547514126843E-04   0.411388E-01   0.627212E+00   0.983300E+04  -0.167186E-16
   LPB:   13  -0.356290474680343E+00   0.116857324691085E-03   0.406669E-01   0.661833E+00   0.438593E+04  -0.184921E-16
   LPB:   14  -0.356290464299520E+00   0.137432402577945E-03   0.384567E-01   0.690854E+00   0.183949E+04  -0.197789E-16
   LPB:   15  -0.356290457043267E+00   0.129757625994493E-03   0.375936E-01   0.715055E+00   0.126567E+04  -0.205384E-16
   LPB:   16  -0.356290451504087E+00   0.831640286509581E-04   0.373903E-01   0.767516E+00   0.148619E+04  -0.206390E-16
   LPB:   17  -0.356290447108643E+00   0.495551485338060E-04   0.417067E-01   0.711394E+00   0.317463E+04  -0.208547E-16
  Finished solving LPB equations
  A_corr:   -0.282027184447057     
 End minimization
 Ecorr=   1639.46986014864     
 A_corr= -0.282027184447057     
 Ecorr_band=  -1639.75188733308     
 End Solvation calculations
DAV:   1    -0.133885920242E+03    0.22175E-03   -0.46492E-03 12114   0.110E-01    0.220E-02
 Begin Solvation calculations
  rms_SCF =   7.262405532709066E-004 tol =   7.262405532709066E-005
 Begin minimization
 Creating dielectric and ionic cavities
  area:      141.455482288834     
  volume:    650.617114940794     
  Acav:     7.426412820163804E-002
  Solving linear dielectric/ionic screening model
        iter                  A_solv                     rms
   LPB:       -0.356220337966424E+00   0.184594803797784E-01
   LPB:    0  -0.356220219015223E+00   0.166540014435357E-01   0.915439E-04   0.000000E+00   0.283884E+02   0.259878E-02
   LPB:    1  -0.356218127330546E+00   0.687998581994217E-02   0.123165E-01   0.000000E+00   0.951446E+02   0.149120E-18
   LPB:    2  -0.356217707217338E+00   0.104615718966425E-02   0.138766E-01   0.178269E+00   0.187008E+03   0.104768E-16
   LPB:    3  -0.356217575990147E+00   0.776770024343714E-03   0.262763E-01   0.164959E+00   0.678398E+03   0.128552E-16
   LPB:    4  -0.356217530278390E+00   0.766042536320328E-03   0.271560E-01   0.337056E+00   0.196205E+03   0.165085E-16
   LPB:    5  -0.356217508972396E+00   0.593135777602356E-03   0.242593E-01   0.521750E+00   0.207903E+03   0.226379E-16
   LPB:    6  -0.356217495375958E+00   0.291059981913395E-03   0.273951E-01   0.565104E+00   0.188677E+03   0.201137E-16
   LPB:    7  -0.356217486578765E+00   0.149298790066576E-03   0.333542E-01   0.531425E+00   0.632337E+03   0.173854E-16
   LPB:    8  -0.356217480931312E+00   0.882943485560561E-04   0.350096E-01   0.611605E+00   0.646478E+03   0.169354E-16
   LPB:    9  -0.356217476985012E+00   0.560825326817769E-04   0.371648E-01   0.658254E+00   0.115066E+04   0.165021E-16
  Finished solving LPB equations
  A_corr:   -0.281953348783374     
 End minimization
 Ecorr=   1639.49328492112     
 A_corr= -0.281953348783374     
 Ecorr_band=  -1639.77523826990     
 End Solvation calculations
RMM:   2    -0.133885941113E+03   -0.20871E-04   -0.27095E-04 11407   0.303E-02    0.152E-02
 Begin Solvation calculations
  rms_SCF =   7.262405532709066E-004 tol =   7.262405532709066E-005
 Begin minimization
 Creating dielectric and ionic cavities
  area:      141.454012422952     
  volume:    650.616716467939     
  Acav:     7.426335652204971E-002
  Solving linear dielectric/ionic screening model
        iter                  A_solv                     rms
   LPB:       -0.356173434127325E+00   0.158803392833066E-01
   LPB:    0  -0.356173402549534E+00   0.153695336628874E-01   0.471667E-04   0.000000E+00   0.283884E+02   0.133899E-02
   LPB:    1  -0.356172777255452E+00   0.197383040108801E-02   0.941104E-02   0.000000E+00   0.589025E+02   0.627740E-19
   LPB:    2  -0.356172673749982E+00   0.334763288287610E-03   0.172681E-01   0.902134E-01   0.118101E+03   0.202949E-17
   LPB:    3  -0.356172657448238E+00   0.176334691430658E-03   0.238615E-01   0.113977E+00   0.315238E+03   0.152353E-17
   LPB:    4  -0.356172650870155E+00   0.185020070025075E-03   0.293873E-01   0.327645E+00   0.295343E+03   0.241739E-17
   LPB:    5  -0.356172647539133E+00   0.255302852412109E-03   0.302624E-01   0.491739E+00   0.228948E+03   0.253875E-17
   LPB:    6  -0.356172645255321E+00   0.203058918996028E-03   0.290142E-01   0.715115E+00   0.104391E+03   0.253117E-17
   LPB:    7  -0.356172643244478E+00   0.101728585333471E-03   0.320750E-01   0.796456E+00   0.323068E+03   0.487555E-18
   LPB:    8  -0.356172641405258E+00   0.503006794717304E-04   0.385552E-01   0.760920E+00   0.372007E+03  -0.159119E-17
  Finished solving LPB equations
  A_corr:   -0.281909284883209     
 End minimization
 Ecorr=   1639.50471836614     
 A_corr= -0.281909284883209     
 Ecorr_band=  -1639.78662765103     
 End Solvation calculations
RMM:   3    -0.133885936079E+03    0.50340E-05   -0.13417E-05  6698   0.138E-02
 Begin Solvation calculations
  rms_SCF =   7.262405532709066E-004 tol =   7.262405532709066E-005
 Begin minimization
 Creating dielectric and ionic cavities
  area:      141.452470529320     
  volume:    650.615497007355     
  Acav:     7.426254702789302E-002
  Solving linear dielectric/ionic screening model
        iter                  A_solv                     rms
   LPB:       -0.356176769007921E+00   0.308271525701344E-01
   LPB:    0  -0.356176768726468E+00   0.308225179045658E-01   0.445294E-05   0.000000E+00   0.283884E+02   0.126412E-03
   LPB:    1  -0.356174344687810E+00   0.265909142392090E-02   0.884484E-02   0.000000E+00   0.652269E+02  -0.903558E-20
   LPB:    2  -0.356174124327352E+00   0.560938131324854E-03   0.159665E-01   0.503587E-01   0.172135E+03  -0.180468E-18
   LPB:    3  -0.356174087247362E+00   0.256765971807531E-03   0.241608E-01   0.111200E+00   0.268831E+03  -0.122225E-17
   LPB:    4  -0.356174075719085E+00   0.155267824387908E-03   0.298230E-01   0.251876E+00   0.389135E+03   0.288282E-18
   LPB:    5  -0.356174070442304E+00   0.182671146635182E-03   0.294415E-01   0.463655E+00   0.631171E+03  -0.252247E-18
   LPB:    6  -0.356174067433558E+00   0.234120292686399E-03   0.304706E-01   0.550929E+00   0.152231E+03  -0.225343E-18
   LPB:    7  -0.356174065442437E+00   0.184850398940433E-03   0.274870E-01   0.733611E+00   0.190596E+03  -0.112724E-17
   LPB:    8  -0.356174063684111E+00   0.746077679786628E-04   0.333240E-01   0.728404E+00   0.186532E+03  -0.381527E-17
   LPB:    9  -0.356174062107279E+00   0.364743654175611E-04   0.416397E-01   0.717687E+00   0.805475E+03  -0.848198E-17
  Finished solving LPB equations
  A_corr:   -0.281911515079386     
 End minimization
 Ecorr=   1639.51577477707     
 A_corr= -0.281911515079386     
 Ecorr_band=  -1639.79768629215     
 End Solvation calculations
 187 F= -.13388594E+03 E0= -.13388647E+03  d E =0.204650E-03
quench:  g(F)=  0.000E+00 g(S)=  0.000E+00 dE (1.order)= 0.000E+00
 reached required accuracy - stopping structural energy minimisation
