 vasp.5.4.4.18Apr17-6-g9f103f2a35 (build Feb 06 2024 13:54:16) complex          
  
 POSCAR found type information on POSCAR  Cu Pd Cu N  O 
 02/POSCAR found :  5 types and      40 ions
 scaLAPACK will be used

 ----------------------------------------------------------------------------- 
|                                                                             |
|  ADVICE TO THIS USER RUNNING 'VASP/VAMP'   (HEAR YOUR MASTER'S VOICE ...):  |
|                                                                             |
|      You enforced a specific xc-type in the INCAR file,                     |
|      a different type was found on the POTCAR file                          |
|          I HOPE YOU KNOW, WHAT YOU ARE  DOING                               |
|                                                                             |
 ----------------------------------------------------------------------------- 

 LDA part: xc-table for Pade appr. of Perdew
 POSCAR found type information on POSCAR  Cu Pd Cu N  O 
 00/POSCAR found :  5 types and      40 ions
 POSCAR found type information on POSCAR  Cu Pd Cu N  O 
 06/POSCAR found :  5 types and      40 ions
 Jacobian:    19.9537150754471     
 POSCAR, INCAR and KPOINTS ok, starting setup
 FFT: planning ...
 WAVECAR not read
 entering main loop
       N       E                     dE             d eps       ncg     rms          rms(c)
  Solvation turned off during non-self-consistent phase (first NELMDL steps)
DAV:   1     0.430568466224E+04    0.43057E+04   -0.18025E+05 12096   0.211E+03
DAV:   2     0.672520582226E+03   -0.36332E+04   -0.35007E+04 12114   0.480E+02
DAV:   3    -0.201357350770E+02   -0.69266E+03   -0.63581E+03 13761   0.242E+02
DAV:   4    -0.148939459270E+03   -0.12880E+03   -0.11271E+03 21519   0.981E+01
DAV:   5    -0.163352011581E+03   -0.14413E+02   -0.14215E+02 18630   0.326E+01    0.436E+01
 Begin Solvation calculations
  rms_SCF =    4.36831947415480      tol =   0.436831947415480     
 Begin minimization
 Creating dielectric and ionic cavities
  area:      168.788016659200     
  volume:    656.007360816553     
  Acav:     8.861370874608000E-002
  Solving linear dielectric/ionic screening model
        iter                  A_solv                     rms
   LPB:       -0.357842760298992E+03   0.267847055691537E+03
   LPB:    0  -0.558608391015021E+01   0.265044607954455E+02  -0.500399E+01   0.000000E+00   0.281357E+02  -0.140790E+03
   LPB:    1  -0.109124101748898E+01   0.755365741001188E+01   0.113538E-01   0.000000E+00   0.960035E+02   0.960069E-14
   LPB:    2  -0.460801434078576E+00   0.113920174546535E+01   0.129589E-01   0.122887E+00   0.260685E+03   0.183369E-13
   LPB:    3  -0.284826961536396E+00   0.783757394423140E+00   0.266368E-01   0.135797E+00   0.573491E+03   0.192120E-13
   LPB:    4  -0.226245555205253E+00   0.765888500478304E+00   0.290544E-01   0.305197E+00   0.984717E+02   0.207205E-13
   LPB:    5  -0.201107834636900E+00   0.723572067334872E+00   0.237231E-01   0.525541E+00   0.408189E+03   0.216430E-13
   LPB:    6  -0.185046543564113E+00   0.248475814964558E+00   0.270233E-01   0.560904E+00   0.702313E+02   0.227599E-13
  Finished solving LPB equations
  A_corr:   -9.643283481803265E-002
 End minimization
 Ecorr=   1978.56281124659     
 A_corr= -9.643283481803265E-002
 Ecorr_band=  -1978.65924408141     
 End Solvation calculations
RMM:   6    -0.155330041376E+03    0.80220E+01   -0.35514E+02 12305   0.942E+01    0.374E+01
 Begin Solvation calculations
  rms_SCF =    4.36831947415480      tol =   0.436831947415480     
 Begin minimization
 Creating dielectric and ionic cavities
  area:      173.175199113118     
  volume:    661.577808534788     
  Acav:     9.091697953438710E-002
  Solving linear dielectric/ionic screening model
        iter                  A_solv                     rms
   LPB:       -0.984568734419658E+01   0.600575646142412E+02
   LPB:    0  -0.964329763972483E+01   0.596553040496326E+02   0.120505E+00   0.000000E+00   0.278745E+02   0.335902E+01
   LPB:    1  -0.103829978740997E+01   0.559809571832406E+01   0.878289E-02   0.000000E+00   0.626900E+02   0.118497E-15
   LPB:    2  -0.360239953927460E+00   0.139220060568730E+01   0.163477E-01   0.423348E-01   0.108058E+03   0.544491E-15
   LPB:    3  -0.260526683525820E+00   0.575191781905527E+00   0.225316E-01   0.106697E+00   0.986664E+02   0.165834E-14
   LPB:    4  -0.232269517016638E+00   0.603992480362119E+00   0.257001E-01   0.248447E+00   0.281895E+03   0.166116E-13
   LPB:    5  -0.219225788571947E+00   0.359890233485008E+00   0.244246E-01   0.485713E+00   0.854121E+02   0.223400E-13
  Finished solving LPB equations
  A_corr:   -0.128308809037560     
 End minimization
 Ecorr=   1902.03941145581     
 A_corr= -0.128308809037560     
 Ecorr_band=  -1902.16772026485     
 End Solvation calculations
RMM:   7    -0.150911245904E+03    0.44188E+01   -0.10541E+02 12450   0.449E+01    0.242E+01
 Begin Solvation calculations
  rms_SCF =    4.36831947415480      tol =   0.436831947415480     
 Begin minimization
 Creating dielectric and ionic cavities
  area:      171.775059237554     
  volume:    663.061473050419     
  Acav:     9.018190609971606E-002
  Solving linear dielectric/ionic screening model
        iter                  A_solv                     rms
   LPB:       -0.613134026096083E+01   0.471503634036871E+02
   LPB:    0  -0.611381889085004E+01   0.471008099885057E+02   0.355008E-01   0.000000E+00   0.278049E+02   0.987098E+00
   LPB:    1  -0.707368666421096E+00   0.441359342820943E+01   0.890063E-02   0.000000E+00   0.615193E+02  -0.699139E-16
   LPB:    2  -0.267397325026296E+00   0.754005014324838E+00   0.157232E-01   0.460673E-01   0.120852E+03  -0.689423E-15
   LPB:    3  -0.203196343441990E+00   0.263018521496612E+00   0.228565E-01   0.100380E+00   0.220838E+03   0.793956E-15
   LPB:    4  -0.189305317220100E+00   0.179541558899831E+00   0.262446E-01   0.188436E+00   0.360668E+03   0.112043E-14
  Finished solving LPB equations
  A_corr:   -9.912341112038396E-002
 End minimization
 Ecorr=   1883.51998593139     
 A_corr= -9.912341112038396E-002
 Ecorr_band=  -1883.61910934251     
 End Solvation calculations
RMM:   8    -0.141397512478E+03    0.95137E+01   -0.56375E+00 12384   0.924E+00    0.156E+01
 Begin Solvation calculations
  rms_SCF =    2.65729579176006      tol =   0.265729579176006     
 Begin minimization
 Creating dielectric and ionic cavities
  area:      161.878287608711     
  volume:    662.371518608023     
  Acav:     8.498610099457342E-002
  Solving linear dielectric/ionic screening model
        iter                  A_solv                     rms
   LPB:       -0.162139451096748E+01   0.228478584272075E+02
   LPB:    0  -0.161312979204902E+01   0.226975637217971E+02  -0.243678E-01   0.000000E+00   0.278373E+02  -0.678332E+00
   LPB:    1  -0.355244514734715E+00   0.240085569152528E+01   0.893281E-02   0.000000E+00   0.607249E+02  -0.100189E-16
   LPB:    2  -0.224133516951324E+00   0.473225333742881E+00   0.174163E-01   0.534602E-01   0.923128E+02   0.702242E-14
   LPB:    3  -0.205103353636402E+00   0.204969582556488E+00   0.212685E-01   0.118856E+00   0.178541E+03   0.137450E-13
   LPB:    4  -0.199571996267328E+00   0.131352963588841E+00   0.295195E-01   0.209420E+00   0.996931E+02   0.139042E-13
  Finished solving LPB equations
  A_corr:   -0.114585895272755     
 End minimization
 Ecorr=   1858.07450552045     
 A_corr= -0.114585895272755     
 Ecorr_band=  -1858.18909141572     
 End Solvation calculations
RMM:   9    -0.139784996863E+03    0.16125E+01   -0.47933E+00 12328   0.923E+00    0.113E+01
 Begin Solvation calculations
  rms_SCF =    2.65729579176006      tol =   0.265729579176006     
 Begin minimization
 Creating dielectric and ionic cavities
  area:      145.784050540440     
  volume:    662.310739657801     
  Acav:     7.653662653373110E-002
  Solving linear dielectric/ionic screening model
        iter                  A_solv                     rms
   LPB:       -0.149912369985957E+01   0.212794818830476E+02
   LPB:    0  -0.147490174357725E+01   0.212553782657303E+02   0.417142E-01   0.000000E+00   0.278401E+02   0.116133E+01
   LPB:    1  -0.333186036435180E+00   0.187747219986447E+01   0.892234E-02   0.000000E+00   0.634069E+02   0.153099E-16
   LPB:    2  -0.248434053246063E+00   0.296151866300802E+00   0.149079E-01   0.444278E-01   0.141854E+03   0.587518E-15
   LPB:    3  -0.234506442222296E+00   0.170381916916893E+00   0.256585E-01   0.954797E-01   0.237397E+03   0.144610E-14
   LPB:    4  -0.228576013230267E+00   0.146637110995624E+00   0.342704E-01   0.318802E+00   0.144242E+03   0.144656E-14
  Finished solving LPB equations
  A_corr:   -0.152039386696535     
 End minimization
 Ecorr=   1816.04076150856     
 A_corr= -0.152039386696535     
 Ecorr_band=  -1816.19280089526     
 End Solvation calculations
RMM:  10    -0.135947179539E+03    0.38378E+01   -0.60420E+00 12332   0.700E+00    0.426E+00
 Begin Solvation calculations
  rms_SCF =    1.32833981363838      tol =   0.132833981363838     
 Begin minimization
 Creating dielectric and ionic cavities
  area:      141.854646771042     
  volume:    660.658759640358     
  Acav:     7.447368955479729E-002
  Solving linear dielectric/ionic screening model
        iter                  A_solv                     rms
   LPB:       -0.280261568889113E+00   0.320422765035289E+01
   LPB:    0  -0.276435037786027E+00   0.274624728756006E+01  -0.165569E-01   0.000000E+00   0.279176E+02  -0.462228E+00
   LPB:    1  -0.247759260359763E+00   0.552439894670809E+00   0.102359E-01   0.000000E+00   0.635340E+02  -0.654688E-17
   LPB:    2  -0.243270431282345E+00   0.138563033759840E+00   0.160492E-01   0.998367E-01   0.959705E+02   0.426498E-15
   LPB:    3  -0.239087023569145E+00   0.319180892362532E+00   0.500835E-01   0.298645E+00   0.795995E+02  -0.169242E-15
   LPB:    4  -0.235099088412575E+00   0.347355293431386E+00   0.292481E-01   0.163236E+01   0.251401E+02  -0.822490E-15
   LPB:    5  -0.232250219605385E+00   0.974685109866985E-01   0.270253E-01   0.773128E+00   0.119216E+03  -0.196605E-14
  Finished solving LPB equations
  A_corr:   -0.157776530050587     
 End minimization
 Ecorr=   1790.64978610231     
 A_corr= -0.157776530050587     
 Ecorr_band=  -1790.80756263236     
 End Solvation calculations
RMM:  11    -0.135868003131E+03    0.79176E-01   -0.62910E-01 12359   0.300E+00    0.346E+00
 Begin Solvation calculations
  rms_SCF =   0.512990553213903      tol =   5.129905532139032E-002
 Begin minimization
 Creating dielectric and ionic cavities
  area:      136.925891717736     
  volume:    658.101081064817     
  Acav:     7.188609315181121E-002
  Solving linear dielectric/ionic screening model
        iter                  A_solv                     rms
   LPB:       -0.364916120471198E+00   0.414273163290998E+01
   LPB:    0  -0.364762397173234E+00   0.420157919747884E+01   0.331143E-02   0.000000E+00   0.280375E+02   0.928441E-01
   LPB:    1  -0.281189295360373E+00   0.110924540922135E+01   0.107609E-01   0.000000E+00   0.744190E+02  -0.160392E-17
   LPB:    2  -0.269247438063114E+00   0.166211114581804E+00   0.135207E-01   0.113725E+00   0.129619E+03   0.845577E-15
   LPB:    3  -0.266952062602252E+00   0.144486173683115E+00   0.242074E-01   0.107358E+00   0.192279E+03  -0.332891E-15
   LPB:    4  -0.265643416848082E+00   0.179885812434005E+00   0.335036E-01   0.411932E+00   0.508518E+02  -0.429732E-15
   LPB:    5  -0.264126363777358E+00   0.166565582462466E+00   0.346074E-01   0.112228E+01   0.168497E+03  -0.129260E-14
   LPB:    6  -0.262527276772247E+00   0.743052036533268E-01   0.369723E-01   0.986652E+00   0.387126E+02  -0.276889E-14
   LPB:    7  -0.261510962028833E+00   0.374590461914471E-01   0.319044E-01   0.736515E+00   0.103181E+03  -0.429021E-14
  Finished solving LPB equations
  A_corr:   -0.189624868877022     
 End minimization
 Ecorr=   1756.40237609139     
 A_corr= -0.189624868877022     
 Ecorr_band=  -1756.59200096026     
 End Solvation calculations
RMM:  12    -0.135858257198E+03    0.97459E-02   -0.15561E-01 12463   0.160E+00    0.224E+00
 Begin Solvation calculations
  rms_SCF =   0.512990553213903      tol =   5.129905532139032E-002
 Begin minimization
 Creating dielectric and ionic cavities
  area:      134.286503213667     
  volume:    652.061897507605     
  Acav:     7.050041418717529E-002
  Solving linear dielectric/ionic screening model
        iter                  A_solv                     rms
   LPB:       -0.632586490826004E+00   0.501379138411706E+01
   LPB:    0  -0.628260825944374E+00   0.420020756107891E+01  -0.174779E-01   0.000000E+00   0.283206E+02  -0.494986E+00
   LPB:    1  -0.382571127628513E+00   0.173337496068246E+01   0.157853E-01   0.000000E+00   0.709603E+02  -0.415741E-16
   LPB:    2  -0.352855799977597E+00   0.555575959568732E+00   0.151386E-01   0.126114E+00   0.983898E+02   0.365171E-14
   LPB:    3  -0.344463012956475E+00   0.316616310249618E+00   0.194916E-01   0.219363E+00   0.156673E+03   0.258672E-14
   LPB:    4  -0.341081246213370E+00   0.357707878532625E+00   0.220443E-01   0.356277E+00   0.863689E+02   0.363152E-14
   LPB:    5  -0.338758472877771E+00   0.212002836884416E+00   0.230231E-01   0.657652E+00   0.186767E+03   0.327264E-14
   LPB:    6  -0.336781831968034E+00   0.758782734791634E-01   0.357427E-01   0.548148E+00   0.769055E+02   0.341636E-14
   LPB:    7  -0.335322050288449E+00   0.405929839016795E-01   0.376630E-01   0.700863E+00   0.114607E+03   0.388356E-14
  Finished solving LPB equations
  A_corr:   -0.264821636101273     
 End minimization
 Ecorr=   1707.32313014684     
 A_corr= -0.264821636101273     
 Ecorr_band=  -1707.58795178294     
 End Solvation calculations
RMM:  13    -0.135775790192E+03    0.82467E-01   -0.17534E-01 12492   0.124E+00    0.205E+00
 Begin Solvation calculations
  rms_SCF =   0.419974196690492      tol =   4.199741966904925E-002
 Begin minimization
 Creating dielectric and ionic cavities
  area:      134.497746031564     
  volume:    651.721852387254     
  Acav:     7.061131666657090E-002
  Solving linear dielectric/ionic screening model
        iter                  A_solv                     rms
   LPB:       -0.346500380156955E+00   0.338026272207671E+00
   LPB:    0  -0.346327834696914E+00   0.436775109033814E+00   0.348974E-02   0.000000E+00   0.283366E+02   0.988873E-01
   LPB:    1  -0.342812994320454E+00   0.105426125859423E+00   0.184943E-01   0.000000E+00   0.798848E+02  -0.157903E-17
   LPB:    2  -0.342230171503984E+00   0.103742068005204E+00   0.216573E-01   0.141601E+00   0.203697E+03  -0.507943E-15
   LPB:    3  -0.341883463115633E+00   0.826949195685877E-01   0.272136E-01   0.473419E+00   0.643967E+02  -0.485145E-15
   LPB:    4  -0.341190010315821E+00   0.133884268782152E+00   0.593897E-01   0.916490E+00   0.135271E+03  -0.251790E-15
   LPB:    5  -0.340572268959420E+00   0.159821582263113E+00   0.296317E-01   0.178543E+01   0.519065E+02  -0.840080E-15
   LPB:    6  -0.340236349396441E+00   0.625838743306622E-01   0.180602E-01   0.892202E+00   0.610532E+02  -0.614504E-15
   LPB:    7  -0.340055458926325E+00   0.300733699226635E-01   0.256147E-01   0.379677E+00   0.161146E+03  -0.503206E-15
  Finished solving LPB equations
  A_corr:   -0.269444142259754     
 End minimization
 Ecorr=   1693.88915456436     
 A_corr= -0.269444142259754     
 Ecorr_band=  -1694.15859870662     
 End Solvation calculations
RMM:  14    -0.135746480151E+03    0.29310E-01   -0.72232E-02 13198   0.707E-01    0.126E+00
 Begin Solvation calculations
  rms_SCF =   0.419974196690492      tol =   4.199741966904925E-002
 Begin minimization
 Creating dielectric and ionic cavities
  area:      134.971488660664     
  volume:    651.138536693004     
  Acav:     7.086003154684864E-002
  Solving linear dielectric/ionic screening model
        iter                  A_solv                     rms
   LPB:       -0.359276488729827E+00   0.780669912800177E+00
   LPB:    0  -0.359276389718653E+00   0.783678435269636E+00   0.835553E-04   0.000000E+00   0.283639E+02   0.236996E-02
   LPB:    1  -0.350991085308833E+00   0.239463918957734E+00   0.168235E-01   0.000000E+00   0.708173E+02  -0.718612E-19
   LPB:    2  -0.350060331327956E+00   0.103494044271930E+00   0.158586E-01   0.119172E+00   0.112903E+03   0.153049E-15
   LPB:    3  -0.349785348647230E+00   0.412426096023598E-01   0.212711E-01   0.220266E+00   0.106447E+03   0.761689E-15
   LPB:    4  -0.349669091784239E+00   0.508849310330552E-01   0.263761E-01   0.340951E+00   0.174509E+03   0.164658E-15
   LPB:    5  -0.349609584317371E+00   0.529859466430704E-01   0.217259E-01   0.621420E+00   0.184743E+03   0.453420E-16
   LPB:    6  -0.349559076172733E+00   0.205498775661887E-01   0.253505E-01   0.727415E+00   0.830425E+02  -0.385924E-16
  Finished solving LPB equations
  A_corr:   -0.278699044625884     
 End minimization
 Ecorr=   1686.01693845331     
 A_corr= -0.278699044625884     
 Ecorr_band=  -1686.29563749794     
 End Solvation calculations
RMM:  15    -0.135753553340E+03   -0.70732E-02   -0.61401E-02 13070   0.527E-01    0.680E-01
 Begin Solvation calculations
  rms_SCF =   0.419974196690492      tol =   4.199741966904925E-002
 Begin minimization
 Creating dielectric and ionic cavities
  area:      135.266433018967     
  volume:    650.715028698167     
  Acav:     7.101487733495755E-002
  Solving linear dielectric/ionic screening model
        iter                  A_solv                     rms
   LPB:       -0.358035744728610E+00   0.565154879839953E+00
   LPB:    0  -0.357941994056416E+00   0.463503064873844E+00  -0.257020E-02   0.000000E+00   0.283838E+02  -0.729520E-01
   LPB:    1  -0.355278245309291E+00   0.152027550340767E+00   0.159558E-01   0.000000E+00   0.724450E+02  -0.145873E-17
   LPB:    2  -0.354968390946786E+00   0.535989318127133E-01   0.150496E-01   0.123328E+00   0.103791E+03  -0.322259E-15
   LPB:    3  -0.354891623015909E+00   0.316573035138817E-01   0.214148E-01   0.174113E+00   0.108539E+03  -0.605004E-15
   LPB:    4  -0.354840762850253E+00   0.463721215633063E-01   0.310611E-01   0.456769E+00   0.751029E+02  -0.849015E-15
   LPB:    5  -0.354790041821192E+00   0.444628942150573E-01   0.271701E-01   0.114008E+01   0.127588E+03  -0.101512E-14
   LPB:    6  -0.354725399375515E+00   0.192195274502125E-01   0.332134E-01   0.104258E+01   0.443661E+02  -0.122324E-14
  Finished solving LPB equations
  A_corr:   -0.283710522040557     
 End minimization
 Ecorr=   1681.84996123665     
 A_corr= -0.283710522040557     
 Ecorr_band=  -1682.13367175869     
 End Solvation calculations
RMM:  16    -0.135753211387E+03    0.34195E-03   -0.55996E-03 13396   0.246E-01    0.596E-01
 Begin Solvation calculations
  rms_SCF =   0.419974196690492      tol =   4.199741966904925E-002
 Begin minimization
 Creating dielectric and ionic cavities
  area:      136.150204785516     
  volume:    649.419201110798     
  Acav:     7.147885751239570E-002
  Solving linear dielectric/ionic screening model
        iter                  A_solv                     rms
   LPB:       -0.405033322746254E+00   0.201501159900729E+01
   LPB:    0  -0.403509084553192E+00   0.162340066670631E+01  -0.103524E-01   0.000000E+00   0.284445E+02  -0.294470E+00
   LPB:    1  -0.376747647912569E+00   0.417739193227860E+00   0.158560E-01   0.000000E+00   0.624002E+02  -0.777729E-17
   LPB:    2  -0.373667677688624E+00   0.160302696189587E+00   0.145649E-01   0.125292E+00   0.160667E+03  -0.513974E-14
   LPB:    3  -0.373013716743101E+00   0.791314474510832E-01   0.204107E-01   0.151515E+00   0.927368E+02  -0.556183E-14
   LPB:    4  -0.372771875444736E+00   0.101494210514744E+00   0.231684E-01   0.325792E+00   0.192651E+03  -0.561285E-14
   LPB:    5  -0.372629797739612E+00   0.586301492253432E-01   0.210278E-01   0.647288E+00   0.874282E+02  -0.566776E-14
   LPB:    6  -0.372500216687209E+00   0.204595878971260E-01   0.304141E-01   0.630573E+00   0.109609E+03  -0.562426E-14
  Finished solving LPB equations
  A_corr:   -0.301021359174814     
 End minimization
 Ecorr=   1672.97777088441     
 A_corr= -0.301021359174814     
 Ecorr_band=  -1673.27879224358     
 End Solvation calculations
RMM:  17    -0.135748893072E+03    0.43183E-02   -0.87882E-03 12230   0.258E-01    0.434E-01
 Begin Solvation calculations
  rms_SCF =   0.381144270765831      tol =   3.811442707658313E-002
 Begin minimization
 Creating dielectric and ionic cavities
  area:      136.829509293293     
  volume:    648.508238107935     
  Acav:     7.183549237897868E-002
  Solving linear dielectric/ionic screening model
        iter                  A_solv                     rms
   LPB:       -0.406203748558881E+00   0.149082324817374E+01
   LPB:    0  -0.405265721636369E+00   0.115635925289670E+01  -0.811517E-02   0.000000E+00   0.284872E+02  -0.231179E+00
   LPB:    1  -0.390435427453305E+00   0.379451905123940E+00   0.156109E-01   0.000000E+00   0.665729E+02   0.108826E-16
   LPB:    2  -0.388631480270684E+00   0.113037872420967E+00   0.146879E-01   0.129283E+00   0.105197E+03  -0.723249E-14
   LPB:    3  -0.388219603819055E+00   0.706902017805962E-01   0.219285E-01   0.152931E+00   0.123947E+03  -0.857524E-14
   LPB:    4  -0.388000760824990E+00   0.930404799556915E-01   0.276891E-01   0.420790E+00   0.834780E+02  -0.958476E-14
   LPB:    5  -0.387832955349418E+00   0.748279099838805E-01   0.234428E-01   0.905674E+00   0.150535E+03  -0.100856E-13
   LPB:    6  -0.387662138905455E+00   0.255381668498473E-01   0.302302E-01   0.789392E+00   0.645661E+02  -0.105538E-13
  Finished solving LPB equations
  A_corr:   -0.315826646526477     
 End minimization
 Ecorr=   1664.93929183836     
 A_corr= -0.315826646526477     
 Ecorr_band=  -1665.25511848489     
 End Solvation calculations
RMM:  18    -0.135749980709E+03   -0.10876E-02   -0.42486E-03 12309   0.190E-01    0.355E-01
 Begin Solvation calculations
  rms_SCF =   0.371572938317660      tol =   3.715729383176603E-002
 Begin minimization
 Creating dielectric and ionic cavities
  area:      137.313093582256     
  volume:    647.999332113657     
  Acav:     7.208937413068456E-002
  Solving linear dielectric/ionic screening model
        iter                  A_solv                     rms
   LPB:       -0.413826667020814E+00   0.135012942578979E+01
   LPB:    0  -0.412955046198227E+00   0.103495247845702E+01  -0.781937E-02   0.000000E+00   0.285111E+02  -0.222939E+00
   LPB:    1  -0.402378197981674E+00   0.307711256620871E+00   0.154511E-01   0.000000E+00   0.615095E+02  -0.176255E-17
   LPB:    2  -0.401084407515931E+00   0.914841778055587E-01   0.146296E-01   0.129192E+00   0.112581E+03   0.301804E-14
   LPB:    3  -0.400820455614916E+00   0.545813917329393E-01   0.217446E-01   0.137259E+00   0.120106E+03   0.266911E-14
   LPB:    4  -0.400670638426471E+00   0.723070005857297E-01   0.305639E-01   0.403812E+00   0.824607E+02   0.245928E-14
   LPB:    5  -0.400543852920406E+00   0.753851341711132E-01   0.259886E-01   0.995254E+00   0.126296E+03   0.232912E-14
   LPB:    6  -0.400399269990499E+00   0.295758241861790E-01   0.289176E-01   0.102487E+01   0.533867E+02   0.226592E-14
  Finished solving LPB equations
  A_corr:   -0.328309895859815     
 End minimization
 Ecorr=   1658.17472215146     
 A_corr= -0.328309895859815     
 Ecorr_band=  -1658.50303204732     
 End Solvation calculations
RMM:  19    -0.135751652757E+03   -0.16720E-02   -0.13621E-03 12013   0.108E-01    0.222E-01
 Begin Solvation calculations
  rms_SCF =   0.371572938317660      tol =   3.715729383176603E-002
 Begin minimization
 Creating dielectric and ionic cavities
  area:      137.879693711600     
  volume:    647.526017055722     
  Acav:     7.238683919858996E-002
  Solving linear dielectric/ionic screening model
        iter                  A_solv                     rms
   LPB:       -0.437455371813582E+00   0.181540412667121E+01
   LPB:    0  -0.435953205863993E+00   0.144209030889756E+01  -0.102612E-01   0.000000E+00   0.285333E+02  -0.292786E+00
   LPB:    1  -0.418720336093399E+00   0.330098298430250E+00   0.153680E-01   0.000000E+00   0.556983E+02  -0.244181E-17
   LPB:    2  -0.416701198000747E+00   0.124386534797562E+00   0.143825E-01   0.125196E+00   0.173396E+03  -0.759149E-15
   LPB:    3  -0.416321545012575E+00   0.679016565043440E-01   0.196489E-01   0.137632E+00   0.963724E+02  -0.136731E-14
   LPB:    4  -0.416156056584240E+00   0.903561017574392E-01   0.234119E-01   0.365831E+00   0.149385E+03  -0.255367E-14
   LPB:    5  -0.416023318011447E+00   0.583143413794464E-01   0.246930E-01   0.760490E+00   0.731362E+02  -0.310737E-14
   LPB:    6  -0.415880342683452E+00   0.202990943966802E-01   0.341174E-01   0.779581E+00   0.823072E+02  -0.360215E-14
  Finished solving LPB equations
  A_corr:   -0.343493503484863     
 End minimization
 Ecorr=   1651.22432794556     
 A_corr= -0.343493503484863     
 Ecorr_band=  -1651.56782144905     
 End Solvation calculations
RMM:  20    -0.135753129904E+03   -0.14771E-02   -0.14301E-03 11835   0.904E-02    0.194E-01
 Begin Solvation calculations
  rms_SCF =   0.371572938317660      tol =   3.715729383176603E-002
 Begin minimization
 Creating dielectric and ionic cavities
  area:      138.686831775554     
  volume:    647.158051265728     
  Acav:     7.281058668216576E-002
  Solving linear dielectric/ionic screening model
        iter                  A_solv                     rms
   LPB:       -0.506884679224077E+00   0.339728751639891E+01
   LPB:    0  -0.501940483482755E+00   0.279913139229658E+01  -0.186104E-01   0.000000E+00   0.285505E+02  -0.531337E+00
   LPB:    1  -0.450079670089571E+00   0.609694379234551E+00   0.147538E-01   0.000000E+00   0.512275E+02   0.450990E-16
   LPB:    2  -0.443780652949275E+00   0.263339127158888E+00   0.135887E-01   0.131874E+00   0.216026E+03  -0.417999E-14
   LPB:    3  -0.442587193158964E+00   0.141985092658918E+00   0.170801E-01   0.150737E+00   0.107342E+03  -0.411858E-14
   LPB:    4  -0.442098258149960E+00   0.121619262192419E+00   0.212672E-01   0.329022E+00   0.108248E+03  -0.355008E-14
   LPB:    5  -0.441766340395956E+00   0.657009922277224E-01   0.265204E-01   0.544388E+00   0.986941E+02  -0.353541E-14
   LPB:    6  -0.441490416639031E+00   0.242953413849752E-01   0.344031E-01   0.640828E+00   0.990725E+02  -0.335733E-14
  Finished solving LPB equations
  A_corr:   -0.368679829956865     
 End minimization
 Ecorr=   1641.37547913780     
 A_corr= -0.368679829956865     
 Ecorr_band=  -1641.74415896775     
 End Solvation calculations
RMM:  21    -0.135754791664E+03   -0.16618E-02   -0.35402E-03 12079   0.131E-01    0.903E-02
 Begin Solvation calculations
  rms_SCF =   0.169521834402461      tol =   1.695218344024613E-002
 Begin minimization
 Creating dielectric and ionic cavities
  area:      138.915048261286     
  volume:    647.239736216171     
  Acav:     7.293040033717513E-002
  Solving linear dielectric/ionic screening model
        iter                  A_solv                     rms
   LPB:       -0.462028494481272E+00   0.144878441957883E+01
   LPB:    0  -0.461189739592612E+00   0.122620618198516E+01  -0.766575E-02   0.000000E+00   0.285467E+02  -0.218832E+00
   LPB:    1  -0.452271438262527E+00   0.236715518819892E+00   0.141082E-01   0.000000E+00   0.518905E+02  -0.792478E-17
   LPB:    2  -0.451245939212855E+00   0.120317578744488E+00   0.137141E-01   0.118292E+00   0.221342E+03   0.129730E-14
   LPB:    3  -0.451027545740188E+00   0.577574347760984E-01   0.168863E-01   0.172957E+00   0.938481E+02   0.162808E-14
   LPB:    4  -0.450878771033545E+00   0.792995923976537E-01   0.312350E-01   0.368284E+00   0.728618E+02   0.158588E-14
   LPB:    5  -0.450689811997413E+00   0.612991922259992E-01   0.348686E-01   0.113775E+01   0.655001E+02   0.156149E-14
   LPB:    6  -0.450499952308208E+00   0.214398056550500E-01   0.334160E-01   0.104844E+01   0.587421E+02   0.166020E-14
   LPB:    7  -0.450398941316801E+00   0.946107521633326E-02   0.313251E-01   0.567543E+00   0.218316E+03   0.159283E-14
  Finished solving LPB equations
  A_corr:   -0.377468540979626     
 End minimization
 Ecorr=   1635.95847896912     
 A_corr= -0.377468540979626     
 Ecorr_band=  -1636.33594751010     
 End Solvation calculations
RMM:  22    -0.135755746571E+03   -0.95491E-03   -0.55339E-04  8886   0.580E-02    0.121E-01
 Begin Solvation calculations
  rms_SCF =   0.169521834402461      tol =   1.695218344024613E-002
 Begin minimization
 Creating dielectric and ionic cavities
  area:      139.044980721301     
  volume:    647.321550476209     
  Acav:     7.299861487868284E-002
  Solving linear dielectric/ionic screening model
        iter                  A_solv                     rms
   LPB:       -0.465950976151545E+00   0.143197193423931E+01
   LPB:    0  -0.465257092429543E+00   0.126976085777858E+01  -0.697284E-02   0.000000E+00   0.285429E+02  -0.199025E+00
   LPB:    1  -0.458360719002361E+00   0.258187319208618E+00   0.126136E-01   0.000000E+00   0.496047E+02   0.104259E-17
   LPB:    2  -0.457433475987523E+00   0.828555941418737E-01   0.126911E-01   0.133632E+00   0.206353E+03  -0.219060E-15
   LPB:    3  -0.457273178785708E+00   0.349942866371581E-01   0.169562E-01   0.129391E+00   0.148725E+03  -0.202428E-15
   LPB:    4  -0.457233382421895E+00   0.298335746564165E-01   0.212675E-01   0.197938E+00   0.994165E+02  -0.227498E-15
   LPB:    5  -0.457207609034300E+00   0.202415940982555E-01   0.289569E-01   0.475655E+00   0.110440E+03  -0.556590E-15
   LPB:    6  -0.457173398945034E+00   0.109613887777545E-01   0.461199E-01   0.833387E+00   0.719261E+02  -0.792859E-15
  Finished solving LPB equations
  A_corr:   -0.384174784066352     
 End minimization
 Ecorr=   1633.83257944218     
 A_corr= -0.384174784066352     
 Ecorr_band=  -1634.21675422624     
 End Solvation calculations
RMM:  23    -0.135755620312E+03    0.12626E-03   -0.36263E-04  7736   0.485E-02    0.725E-02
 Begin Solvation calculations
  rms_SCF =   0.156809797906396      tol =   1.568097979063958E-002
 Begin minimization
 Creating dielectric and ionic cavities
  area:      139.078287760504     
  volume:    647.440220466995     
  Acav:     7.301610107426455E-002
  Solving linear dielectric/ionic screening model
        iter                  A_solv                     rms
   LPB:       -0.466162924031289E+00   0.114835054741051E+01
   LPB:    0  -0.465773083601750E+00   0.104612800031167E+01  -0.522699E-02   0.000000E+00   0.285373E+02  -0.149164E+00
   LPB:    1  -0.461646287232006E+00   0.188195604215391E+00   0.116812E-01   0.000000E+00   0.523446E+02  -0.377967E-17
   LPB:    2  -0.461138964261451E+00   0.602072294766898E-01   0.125309E-01   0.114597E+00   0.194857E+03   0.410179E-15
   LPB:    3  -0.461055053721563E+00   0.216341914068340E-01   0.173692E-01   0.119326E+00   0.127900E+03   0.487664E-15
   LPB:    4  -0.461030492992286E+00   0.255093351920643E-01   0.267164E-01   0.190294E+00   0.783363E+02   0.444162E-15
   LPB:    5  -0.461008477037037E+00   0.212933757112223E-01   0.326500E-01   0.733485E+00   0.862524E+02   0.352300E-15
   LPB:    6  -0.460981998841408E+00   0.104048627063007E-01   0.383692E-01   0.102341E+01   0.549256E+02  -0.143462E-16
  Finished solving LPB equations
  A_corr:   -0.387965897767143     
 End minimization
 Ecorr=   1632.41753723835     
 A_corr= -0.387965897767143     
 Ecorr_band=  -1632.80550313612     
 End Solvation calculations
RMM:  24    -0.135755749554E+03   -0.12924E-03   -0.20448E-04  7214   0.495E-02    0.403E-02
 Begin Solvation calculations
  rms_SCF =   7.765859757233359E-002 tol =   7.765859757233359E-003
 Begin minimization
 Creating dielectric and ionic cavities
  area:      139.068227007324     
  volume:    647.556806273711     
  Acav:     7.301081917884532E-002
  Solving linear dielectric/ionic screening model
        iter                  A_solv                     rms
   LPB:       -0.466161034647752E+00   0.888631791396353E+00
   LPB:    0  -0.465942950644366E+00   0.818265295714755E+00  -0.390987E-02   0.000000E+00   0.285318E+02  -0.111556E+00
   LPB:    1  -0.463453260013106E+00   0.134847037726892E+00   0.112441E-01   0.000000E+00   0.561606E+02  -0.537391E-17
   LPB:    2  -0.463196193401759E+00   0.435170059753183E-01   0.121040E-01   0.959169E-01   0.208789E+03  -0.797163E-15
   LPB:    3  -0.463156221195372E+00   0.138865660512966E-01   0.174237E-01   0.108020E+00   0.117453E+03  -0.847474E-15
   LPB:    4  -0.463146209207339E+00   0.161221297429262E-01   0.266650E-01   0.163667E+00   0.747035E+02  -0.907438E-15
   LPB:    5  -0.463135706655616E+00   0.156976981962174E-01   0.366806E-01   0.762571E+00   0.876672E+02  -0.838323E-15
   LPB:    6  -0.463119809712246E+00   0.923046041927913E-02   0.423765E-01   0.131018E+01   0.441689E+02  -0.879374E-15
   LPB:    7  -0.463104574671166E+00   0.429266314196923E-02   0.369588E-01   0.109885E+01   0.761122E+02  -0.952823E-15
  Finished solving LPB equations
  A_corr:   -0.390093755492321     
 End minimization
 Ecorr=   1631.34386701402     
 A_corr= -0.390093755492321     
 Ecorr_band=  -1631.73396076951     
 End Solvation calculations
RMM:  25    -0.135755913797E+03   -0.16424E-03   -0.13479E-04  7057   0.434E-02    0.307E-02
 Begin Solvation calculations
  rms_SCF =   6.308886463244198E-002 tol =   6.308886463244198E-003
 Begin minimization
 Creating dielectric and ionic cavities
  area:      139.064595661712     
  volume:    647.617617445466     
  Acav:     7.300891272239862E-002
  Solving linear dielectric/ionic screening model
        iter                  A_solv                     rms
   LPB:       -0.468307483449196E+00   0.906053640813985E+00
   LPB:    0  -0.468092339251762E+00   0.834003095016604E+00  -0.388362E-02   0.000000E+00   0.285290E+02  -0.110796E+00
   LPB:    1  -0.465717127811503E+00   0.127354112692066E+00   0.107653E-01   0.000000E+00   0.559315E+02  -0.215943E-17
   LPB:    2  -0.465470226580548E+00   0.384013157352110E-01   0.123131E-01   0.908823E-01   0.198088E+03  -0.633455E-15
   LPB:    3  -0.465435039234571E+00   0.138028454933790E-01   0.174738E-01   0.100425E+00   0.127645E+03  -0.797753E-15
   LPB:    4  -0.465429585694334E+00   0.958264213500319E-02   0.196713E-01   0.137672E+00   0.857607E+02  -0.825371E-15
   LPB:    5  -0.465427076770974E+00   0.592936247188188E-02   0.251624E-01   0.359659E+00   0.149656E+03  -0.629165E-15
  Finished solving LPB equations
  A_corr:   -0.392418164048575     
 End minimization
 Ecorr=   1630.75678277173     
 A_corr= -0.392418164048575     
 Ecorr_band=  -1631.14920093578     
 End Solvation calculations
RMM:  26    -0.135755969770E+03   -0.55973E-04   -0.15618E-04  7233   0.343E-02
 Begin Solvation calculations
  rms_SCF =   6.308886463244198E-002 tol =   6.308886463244198E-003
 Begin minimization
 Creating dielectric and ionic cavities
  area:      139.054707161081     
  volume:    647.620170954910     
  Acav:     7.300372125956738E-002
  Solving linear dielectric/ionic screening model
        iter                  A_solv                     rms
   LPB:       -0.465730215048108E+00   0.205931532545915E+00
   LPB:    0  -0.465723183151053E+00   0.193133915341980E+00  -0.702116E-03   0.000000E+00   0.285289E+02  -0.200306E-01
   LPB:    1  -0.465592406145808E+00   0.244066050278567E-01   0.986513E-02   0.000000E+00   0.674907E+02  -0.110491E-17
   LPB:    2  -0.465583605969242E+00   0.651319166337071E-02   0.115469E-01   0.574907E-01   0.234383E+03   0.433896E-16
   LPB:    3  -0.465581804213727E+00   0.544974390415402E-02   0.275452E-01   0.858271E-01   0.937868E+02   0.428809E-16
   LPB:    4  -0.465579327652534E+00   0.112143857478760E-01   0.498955E-01   0.758818E+00   0.326717E+02   0.284725E-16
   LPB:    5  -0.465575596237638E+00   0.561191143111990E-02   0.365572E-01   0.205642E+01   0.848533E+02  -0.445331E-17
  Finished solving LPB equations
  A_corr:   -0.392571874978071     
 End minimization
 Ecorr=   1630.26806583918     
 A_corr= -0.392571874978071     
 Ecorr_band=  -1630.66063771416     
 End Solvation calculations
   1 F= -.13575597E+03 E0= -.13575222E+03  d E =-.135756E+03
quench:  g(F)=  0.000E+00 g(S)=  0.000E+00 dE (1.order)= 0.000E+00
 bond charge predicted
       N       E                     dE             d eps       ncg     rms          rms(c)
 Begin Solvation calculations
  rms_SCF =   6.308886463244198E-002 tol =   6.308886463244198E-003
 Begin minimization
 Creating dielectric and ionic cavities
  area:      139.055058676874     
  volume:    647.620744986991     
  Acav:     7.300390580535894E-002
  Solving linear dielectric/ionic screening model
        iter                  A_solv                     rms
   LPB:       -0.465581282179983E+00   0.567727401949024E-02
   LPB:    0  -0.465581282179851E+00   0.568036425772114E-02   0.964129E-07   0.000000E+00   0.285288E+02   0.275055E-05
   LPB:    1  -0.465555176593709E+00   0.561312180681856E-02   0.162001E-01   0.000000E+00   0.514190E+04   0.188613E-21
   LPB:    2  -0.465551519484878E+00   0.668866088355962E-02   0.262790E-01   0.863601E-01   0.237747E+03  -0.579142E-17
   LPB:    3  -0.465550033468960E+00   0.575189703457536E-02   0.234351E-01   0.455646E+00   0.206201E+03  -0.778497E-17
   LPB:    4  -0.465548775954283E+00   0.338468246981931E-02   0.307022E-01   0.645932E+00   0.198144E+03  -0.234380E-16
  Finished solving LPB equations
  A_corr:   -0.392544870148924     
 End minimization
 Ecorr=   1630.32868773071     
 A_corr= -0.392544870148924     
 Ecorr_band=  -1630.72123260086     
 End Solvation calculations
DAV:   1    -0.135755950985E+03   -0.37187E-04   -0.22134E-03 15012   0.144E-01    0.196E-02
 Begin Solvation calculations
  rms_SCF =   5.278313885462474E-003 tol =   5.278313885462473E-004
 Begin minimization
 Creating dielectric and ionic cavities
  area:      139.058465137138     
  volume:    647.604236906279     
  Acav:     7.300569419699758E-002
  Solving linear dielectric/ionic screening model
        iter                  A_solv                     rms
   LPB:       -0.465721836972360E+00   0.652682811545757E-01
   LPB:    0  -0.465721678673804E+00   0.629645112615531E-01  -0.105343E-03   0.000000E+00   0.285296E+02  -0.300539E-02
   LPB:    1  -0.465707674642198E+00   0.842965956315823E-02   0.919533E-02   0.000000E+00   0.737607E+02   0.918296E-19
   LPB:    2  -0.465706516199888E+00   0.254736300916578E-02   0.147488E-01   0.515741E-01   0.120343E+03   0.113034E-15
   LPB:    3  -0.465705742304134E+00   0.288389731865329E-02   0.377754E-01   0.260829E+00   0.198933E+03   0.157037E-15
   LPB:    4  -0.465704812403930E+00   0.582281327375275E-02   0.425456E-01   0.106686E+01   0.804468E+02   0.188459E-15
   LPB:    5  -0.465703324633201E+00   0.490304606783927E-02   0.402480E-01   0.169126E+01   0.186267E+03   0.207331E-15
   LPB:    6  -0.465700865790019E+00   0.263678328233534E-02   0.484077E-01   0.137412E+01   0.604597E+02   0.238272E-15
   LPB:    7  -0.465699233473371E+00   0.144325856221224E-02   0.374026E-01   0.859185E+00   0.142465E+03   0.284575E-15
   LPB:    8  -0.465698210270787E+00   0.136004458273868E-02   0.366392E-01   0.639901E+00   0.246412E+03   0.314791E-15
   LPB:    9  -0.465697388166091E+00   0.900776064701646E-03   0.418291E-01   0.703774E+00   0.420768E+03   0.344829E-15
   LPB:   10  -0.465696540754200E+00   0.911308640771607E-03   0.482125E-01   0.894306E+00   0.532872E+03   0.371488E-15
   LPB:   11  -0.465695719701223E+00   0.101994751011215E-02   0.461547E-01   0.101209E+01   0.109646E+04   0.404909E-15
   LPB:   12  -0.465694939992846E+00   0.104313408727050E-02   0.450250E-01   0.973473E+00   0.260860E+04   0.440609E-15
   LPB:   13  -0.465694146243460E+00   0.111462779408797E-02   0.454504E-01   0.100848E+01   0.163341E+04   0.475962E-15
   LPB:   14  -0.465693355827422E+00   0.105493870708001E-02   0.448942E-01   0.100814E+01   0.770596E+03   0.512585E-15
   LPB:   15  -0.465692522130892E+00   0.929240051147480E-03   0.461153E-01   0.102683E+01   0.437856E+03   0.549084E-15
   LPB:   16  -0.465691822717395E+00   0.809957049520531E-03   0.406949E-01   0.950673E+00   0.410527E+03   0.582226E-15
   LPB:   17  -0.465691264621260E+00   0.698555169401924E-03   0.409087E-01   0.793779E+00   0.358095E+03   0.610871E-15
   LPB:   18  -0.465690813284523E+00   0.667009344173626E-03   0.425784E-01   0.776994E+00   0.469120E+03   0.633674E-15
   LPB:   19  -0.465690470595112E+00   0.562152277660980E-03   0.392874E-01   0.822878E+00   0.589579E+03   0.653651E-15
   LPB:   20  -0.465690206205445E+00   0.509451548099444E-03   0.404822E-01   0.748744E+00   0.852613E+03   0.668849E-15
  Finished solving LPB equations
  A_corr:   -0.392684512008448     
 End minimization
 Ecorr=   1629.93762987487     
 A_corr= -0.392684512008448     
 Ecorr_band=  -1630.33031438687     
 End Solvation calculations
RMM:   2    -0.135755967715E+03   -0.16730E-04   -0.12922E-04  6860   0.445E-02
 Begin Solvation calculations
  rms_SCF =   5.278313885462474E-003 tol =   5.278313885462473E-004
 Begin minimization
 Creating dielectric and ionic cavities
  area:      139.059666041668     
  volume:    647.591749997978     
  Acav:     7.300632467187593E-002
  Solving linear dielectric/ionic screening model
        iter                  A_solv                     rms
   LPB:       -0.465853360663951E+00   0.796563751369976E-01
   LPB:    0  -0.465852641703206E+00   0.765165824531254E-01  -0.224499E-03   0.000000E+00   0.285302E+02  -0.640501E-02
   LPB:    1  -0.465838080087518E+00   0.699891089844381E-02   0.857569E-02   0.000000E+00   0.653737E+02   0.373974E-18
   LPB:    2  -0.465837199826344E+00   0.154351304057147E-02   0.153907E-01   0.336832E-01   0.965910E+02  -0.259563E-16
   LPB:    3  -0.465837043213162E+00   0.115415119770670E-02   0.218419E-01   0.125368E+00   0.166234E+03  -0.393537E-16
   LPB:    4  -0.465836947629540E+00   0.172811020908058E-02   0.349041E-01   0.381916E+00   0.895889E+02  -0.404075E-16
   LPB:    5  -0.465836846557100E+00   0.114677587767331E-02   0.328319E-01   0.112416E+01   0.228416E+03  -0.505091E-16
   LPB:    6  -0.465836731957725E+00   0.546260606676945E-03   0.389585E-01   0.955528E+00   0.293760E+03  -0.601441E-16
   LPB:    7  -0.465836617602238E+00   0.383522152965112E-03   0.448122E-01   0.867522E+00   0.131766E+04  -0.599142E-16
  Finished solving LPB equations
  A_corr:   -0.392830292930362     
 End minimization
 Ecorr=   1629.85446497607     
 A_corr= -0.392830292930362     
 Ecorr_band=  -1630.24729526900     
 End Solvation calculations
   2 F= -.13575597E+03 E0= -.13575220E+03  d E =0.205550E-05
quench:  g(F)=  0.000E+00 g(S)=  0.000E+00 dE (1.order)= 0.000E+00
 bond charge predicted
       N       E                     dE             d eps       ncg     rms          rms(c)
 Begin Solvation calculations
  rms_SCF =   5.278313885462474E-003 tol =   5.278313885462473E-004
 Begin minimization
 Creating dielectric and ionic cavities
  area:      139.061390709760     
  volume:    647.589603506234     
  Acav:     7.300723012262408E-002
  Solving linear dielectric/ionic screening model
        iter                  A_solv                     rms
   LPB:       -0.465885337088330E+00   0.667296547900039E-03
   LPB:    0  -0.465885337087391E+00   0.671594027344868E-03  -0.256598E-06   0.000000E+00   0.285303E+02  -0.732082E-05
   LPB:    1  -0.465864536059537E+00   0.269062170083276E-03   0.161890E-01   0.000000E+00   0.326181E+06   0.627514E-21
   LPB:    2  -0.465862231659159E+00   0.240064635219182E-03   0.264768E-01   0.677371E-01   0.843497E+05   0.110113E-18
   LPB:    3  -0.465861505888412E+00   0.487325320818999E-03   0.327451E-01   0.254660E+00   0.241754E+05  -0.140387E-18
   LPB:    4  -0.465861183385399E+00   0.115140127311303E-02   0.356571E-01   0.408070E+00   0.238728E+04   0.348458E-18
   LPB:    5  -0.465861032071539E+00   0.249226249294113E-02   0.305954E-01   0.546807E+00   0.331084E+03  -0.298708E-17
   LPB:    6  -0.465860945641515E+00   0.160479381851008E-02   0.195877E-01   0.892193E+00   0.151596E+03  -0.572658E-17
   LPB:    7  -0.465860860512910E+00   0.100961318341074E-02   0.313180E-01   0.616028E+00   0.443386E+03  -0.694126E-17
   LPB:    8  -0.465860799542068E+00   0.133515938482590E-02   0.322036E-01   0.696524E+00   0.181214E+03  -0.853329E-17
   LPB:    9  -0.465860745960832E+00   0.858115276325977E-03   0.284994E-01   0.993021E+00   0.208714E+03  -0.455990E-17
   LPB:   10  -0.465860686114366E+00   0.458206051638102E-03   0.399995E-01   0.795807E+00   0.402132E+03   0.166879E-17
  Finished solving LPB equations
  A_corr:   -0.392853455991741     
 End minimization
 Ecorr=   1629.85134835727     
 A_corr= -0.392853455991741     
 Ecorr_band=  -1630.24420181326     
 End Solvation calculations
DAV:   1    -0.135755926041E+03    0.24944E-04   -0.16329E-03 14202   0.149E-01    0.182E-02
 Begin Solvation calculations
  rms_SCF =   5.278313885462474E-003 tol =   5.278313885462473E-004
 Begin minimization
 Creating dielectric and ionic cavities
  area:      139.067812228316     
  volume:    647.578960522489     
  Acav:     7.301060141986615E-002
  Solving linear dielectric/ionic screening model
        iter                  A_solv                     rms
   LPB:       -0.465823809322158E+00   0.210067823809462E-01
   LPB:    0  -0.465823748940895E+00   0.182995044605357E-01  -0.650593E-04   0.000000E+00   0.285308E+02  -0.185619E-02
   LPB:    1  -0.465819742225501E+00   0.712917938473994E-02   0.129341E-01   0.000000E+00   0.933163E+02  -0.262810E-20
   LPB:    2  -0.465819250904245E+00   0.210545926216420E-02   0.170780E-01   0.928704E-01   0.635856E+02  -0.683638E-16
   LPB:    3  -0.465819113987341E+00   0.126197530583578E-02   0.197202E-01   0.241333E+00   0.276299E+03  -0.658950E-16
   LPB:    4  -0.465819050927842E+00   0.139067850969110E-02   0.234929E-01   0.386606E+00   0.165173E+03  -0.605439E-16
   LPB:    5  -0.465819010920898E+00   0.976920553459594E-03   0.217391E-01   0.685614E+00   0.246974E+03  -0.570204E-16
   LPB:    6  -0.465818972396567E+00   0.581470381263787E-03   0.346796E-01   0.603623E+00   0.117985E+03  -0.546437E-16
   LPB:    7  -0.465818933799035E+00   0.386283258543807E-03   0.445280E-01   0.780308E+00   0.646141E+03  -0.499242E-16
  Finished solving LPB equations
  A_corr:   -0.392808332379169     
 End minimization
 Ecorr=   1629.74994833886     
 A_corr= -0.392808332379169     
 Ecorr_band=  -1630.14275667124     
 End Solvation calculations
RMM:   2    -0.135755954836E+03   -0.28795E-04   -0.19569E-04  7104   0.556E-02
 Begin Solvation calculations
  rms_SCF =   5.278313885462474E-003 tol =   5.278313885462473E-004
 Begin minimization
 Creating dielectric and ionic cavities
  area:      139.067701455084     
  volume:    647.572613182310     
  Acav:     7.301054326391904E-002
  Solving linear dielectric/ionic screening model
        iter                  A_solv                     rms
   LPB:       -0.465898270982784E+00   0.515897326697427E-01
   LPB:    0  -0.465897973083004E+00   0.494865336437429E-01  -0.144508E-03   0.000000E+00   0.285311E+02  -0.412296E-02
   LPB:    1  -0.465891876355617E+00   0.419695644867581E-02   0.842937E-02   0.000000E+00   0.674593E+02  -0.113279E-18
   LPB:    2  -0.465891596512788E+00   0.921932213924672E-03   0.151414E-01   0.255532E-01   0.880193E+02   0.115869E-16
   LPB:    3  -0.465891555360242E+00   0.622178467354137E-03   0.199659E-01   0.111522E+00   0.162908E+03   0.899967E-17
   LPB:    4  -0.465891533507491E+00   0.801620654462205E-03   0.321695E-01   0.329574E+00   0.823350E+02   0.853689E-17
   LPB:    5  -0.465891511137606E+00   0.428354258657616E-03   0.321628E-01   0.102388E+01   0.256240E+03   0.115785E-16
  Finished solving LPB equations
  A_corr:   -0.392880967873687     
 End minimization
 Ecorr=   1629.70743860203     
 A_corr= -0.392880967873687     
 Ecorr_band=  -1630.10031956990     
 End Solvation calculations
   3 F= -.13575595E+03 E0= -.13575220E+03  d E =0.128788E-04
quench:  g(F)=  0.000E+00 g(S)=  0.000E+00 dE (1.order)= 0.000E+00
 reached required accuracy - stopping structural energy minimisation
