 vasp.5.4.4.18Apr17-6-g9f103f2a35 (build Feb 06 2024 13:54:16) complex          
  
 POSCAR found type information on POSCAR  Ni N  O 
 03/POSCAR found :  3 types and      40 ions
 scaLAPACK will be used

 ----------------------------------------------------------------------------- 
|                                                                             |
|  ADVICE TO THIS USER RUNNING 'VASP/VAMP'   (HEAR YOUR MASTER'S VOICE ...):  |
|                                                                             |
|      You enforced a specific xc-type in the INCAR file,                     |
|      a different type was found on the POTCAR file                          |
|          I HOPE YOU KNOW, WHAT YOU ARE  DOING                               |
|                                                                             |
 ----------------------------------------------------------------------------- 

 LDA part: xc-table for Pade appr. of Perdew
 POSCAR found type information on POSCAR  Ni N  O 
 00/POSCAR found :  3 types and      40 ions
 POSCAR found type information on POSCAR  Ni N  O 
 06/POSCAR found :  3 types and      40 ions
 Jacobian:    19.9387148800365     
 POSCAR, INCAR and KPOINTS ok, starting setup
 FFT: planning ...
 WAVECAR not read
 entering main loop
       N       E                     dE             d eps       ncg     rms          rms(c)
DAV:   1     0.245072211641E+04    0.24507E+04   -0.12445E+05  1992   0.109E+03
DAV:   2     0.812606997315E+02   -0.23695E+04   -0.22410E+04  1992   0.306E+02
DAV:   3    -0.194501554398E+03   -0.27576E+03   -0.24065E+03  2562   0.122E+02
DAV:   4    -0.218726493396E+03   -0.24225E+02   -0.22873E+02  2409   0.328E+01
DAV:   5    -0.219363863179E+03   -0.63737E+00   -0.61190E+00  2166   0.492E+00    0.581E+01
RMM:   6    -0.235184670827E+03   -0.15821E+02   -0.41089E+02  1998   0.692E+01    0.827E+01
RMM:   7    -0.290441533821E+03   -0.55257E+02   -0.10942E+02  1994   0.307E+01    0.119E+02
RMM:   8    -0.201317949542E+03    0.89124E+02   -0.31404E+01  2001   0.173E+01    0.617E+01
RMM:   9    -0.207617166259E+03   -0.62992E+01   -0.42345E+01  2007   0.196E+01    0.858E+01
RMM:  10    -0.197601938074E+03    0.10015E+02   -0.41190E+01  2013   0.191E+01    0.629E+01
RMM:  11    -0.188426337707E+03    0.91756E+01   -0.33713E+01  2005   0.171E+01    0.489E+01
RMM:  12    -0.191204093845E+03   -0.27778E+01   -0.19109E+01  2014   0.131E+01    0.573E+01
RMM:  13    -0.187390073389E+03    0.38140E+01   -0.16133E+01  2021   0.124E+01    0.625E+01
RMM:  14    -0.189343537611E+03   -0.19535E+01   -0.88219E+00  2007   0.915E+00    0.770E+01
RMM:  15    -0.181295463718E+03    0.80481E+01   -0.58912E+00  2016   0.723E+00    0.597E+01
RMM:  16    -0.177600965124E+03    0.36945E+01   -0.23853E+00  2016   0.458E+00    0.508E+01
RMM:  17    -0.173861571706E+03    0.37394E+01   -0.31553E+00  2016   0.543E+00    0.223E+01
RMM:  18    -0.175739059931E+03   -0.18775E+01   -0.19985E+00  2023   0.417E+00    0.276E+01
RMM:  19    -0.175000457731E+03    0.73860E+00   -0.12382E+00  2016   0.337E+00    0.164E+01
RMM:  20    -0.175579254770E+03   -0.57880E+00   -0.75563E-01  2019   0.257E+00    0.137E+01
RMM:  21    -0.177438313000E+03   -0.18591E+01   -0.10369E+00  2012   0.282E+00    0.153E+01
RMM:  22    -0.178453239231E+03   -0.10149E+01   -0.76822E-01  2015   0.253E+00    0.131E+01
RMM:  23    -0.179983890376E+03   -0.15307E+01   -0.76381E-01  2018   0.226E+00    0.140E+01
RMM:  24    -0.180905649993E+03   -0.92176E+00   -0.56714E-01  2009   0.194E+00    0.110E+01
RMM:  25    -0.181575892664E+03   -0.67024E+00   -0.35549E-01  2012   0.152E+00    0.104E+01
RMM:  26    -0.182145242325E+03   -0.56935E+00   -0.42856E-01  2005   0.159E+00    0.702E+00
RMM:  27    -0.182677583889E+03   -0.53234E+00   -0.29163E-01  2009   0.151E+00    0.844E+00
RMM:  28    -0.183310696749E+03   -0.63311E+00   -0.28618E-01  2008   0.146E+00    0.741E+00
RMM:  29    -0.183468481637E+03   -0.15778E+00   -0.99280E-02  2010   0.892E-01    0.623E+00
RMM:  30    -0.183780823097E+03   -0.31234E+00   -0.98805E-02  2005   0.771E-01    0.690E+00
RMM:  31    -0.184029031537E+03   -0.24821E+00   -0.83836E-02  2009   0.762E-01    0.644E+00
RMM:  32    -0.184530316376E+03   -0.50128E+00   -0.11117E-01  2005   0.810E-01    0.851E+00
RMM:  33    -0.184754007993E+03   -0.22369E+00   -0.76044E-02  2007   0.745E-01    0.927E+00
RMM:  34    -0.184825356184E+03   -0.71348E-01   -0.43520E-02  2010   0.540E-01    0.854E+00
RMM:  35    -0.185006710604E+03   -0.18135E+00   -0.15807E-01  1997   0.811E-01    0.645E+00
RMM:  36    -0.185159474814E+03   -0.15276E+00   -0.11365E-01  2010   0.799E-01    0.550E+00
RMM:  37    -0.185452897640E+03   -0.29342E+00   -0.72678E-02  2006   0.649E-01    0.429E+00
RMM:  38    -0.185552275539E+03   -0.99378E-01   -0.30724E-02  2014   0.500E-01    0.363E+00
RMM:  39    -0.185727009850E+03   -0.17473E+00   -0.32107E-02  2005   0.454E-01    0.320E+00
RMM:  40    -0.185791428611E+03   -0.64419E-01   -0.13705E-02  2013   0.323E-01    0.255E+00
RMM:  41    -0.185908037248E+03   -0.11661E+00   -0.18740E-02  2009   0.350E-01    0.236E+00
RMM:  42    -0.186055441605E+03   -0.14740E+00   -0.26506E-02  2006   0.393E-01    0.181E+00
RMM:  43    -0.186364508199E+03   -0.30907E+00   -0.55099E-02  2001   0.483E-01    0.256E+00
RMM:  44    -0.186526171252E+03   -0.16166E+00   -0.30164E-02  2009   0.409E-01    0.236E+00
RMM:  45    -0.186712484968E+03   -0.18631E+00   -0.43550E-02  2007   0.467E-01    0.260E+00
RMM:  46    -0.186815328132E+03   -0.10284E+00   -0.32744E-02  2006   0.429E-01    0.218E+00
RMM:  47    -0.186913632504E+03   -0.98304E-01   -0.22872E-02  2007   0.337E-01    0.248E+00
RMM:  48    -0.186947910231E+03   -0.34278E-01   -0.92438E-03  2008   0.257E-01    0.236E+00
RMM:  49    -0.187006748164E+03   -0.58838E-01   -0.21454E-02  2001   0.310E-01    0.201E+00
RMM:  50    -0.187038177910E+03   -0.31430E-01   -0.73407E-03  2013   0.216E-01    0.200E+00
RMM:  51    -0.187032702526E+03    0.54754E-02   -0.15764E-02  2005   0.336E-01    0.144E+00
RMM:  52    -0.187058831075E+03   -0.26129E-01   -0.43022E-03  2000   0.178E-01    0.125E+00
RMM:  53    -0.187098255350E+03   -0.39424E-01   -0.29318E-03  2001   0.129E-01    0.139E+00
RMM:  54    -0.187149257587E+03   -0.51002E-01   -0.40059E-03  1995   0.161E-01    0.164E+00
RMM:  55    -0.187326061967E+03   -0.17680E+00   -0.25133E-02  1999   0.329E-01    0.245E+00
RMM:  56    -0.187316851829E+03    0.92101E-02   -0.13061E-02  1994   0.324E-01    0.164E+00
RMM:  57    -0.187404251199E+03   -0.87399E-01   -0.10298E-02  1999   0.237E-01    0.937E-01
RMM:  58    -0.187486096743E+03   -0.81846E-01   -0.92178E-03  2005   0.198E-01    0.859E-01
RMM:  59    -0.187508551437E+03   -0.22455E-01   -0.25633E-03  1988   0.132E-01    0.632E-01
RMM:  60    -0.187557910245E+03   -0.49359E-01   -0.32131E-03  1989   0.104E-01    0.645E-01
RMM:  61    -0.187566719030E+03   -0.88088E-02   -0.16449E-03  1977   0.109E-01    0.487E-01
RMM:  62    -0.187573421952E+03   -0.67029E-02   -0.60038E-04  1736   0.697E-02    0.329E-01
RMM:  63    -0.187590343988E+03   -0.16922E-01   -0.98381E-04  1846   0.676E-02    0.226E-01
RMM:  64    -0.187597228692E+03   -0.68847E-02   -0.38996E-04  1459   0.497E-02    0.167E-01
RMM:  65    -0.187604674372E+03   -0.74457E-02   -0.31386E-04  1355   0.412E-02    0.175E-01
RMM:  66    -0.187605404770E+03   -0.73040E-03   -0.11983E-04  1145   0.346E-02    0.228E-01
RMM:  67    -0.187611604795E+03   -0.62000E-02   -0.23522E-04  1295   0.386E-02    0.211E-01
RMM:  68    -0.187616879079E+03   -0.52743E-02   -0.21476E-04  1294   0.304E-02    0.130E-01
RMM:  69    -0.187620064580E+03   -0.31855E-02   -0.14013E-04  1221   0.251E-02    0.152E-01
RMM:  70    -0.187621508891E+03   -0.14443E-02   -0.62234E-05  1171   0.200E-02    0.102E-01
RMM:  71    -0.187623381383E+03   -0.18725E-02   -0.85256E-05  1192   0.188E-02    0.143E-01
RMM:  72    -0.187623815870E+03   -0.43449E-03   -0.30511E-05  1135   0.162E-02    0.132E-01
RMM:  73    -0.187624214477E+03   -0.39861E-03   -0.22301E-05  1140   0.104E-02    0.758E-02
RMM:  74    -0.187625057251E+03   -0.84277E-03   -0.41553E-05  1169   0.116E-02    0.469E-02
RMM:  75    -0.187625414009E+03   -0.35676E-03   -0.21932E-05  1140   0.102E-02    0.305E-02
RMM:  76    -0.187625761340E+03   -0.34733E-03   -0.33104E-05  1163   0.102E-02    0.365E-02
RMM:  77    -0.187625750238E+03    0.11102E-04   -0.60044E-06  1017   0.730E-03
   1 F= -.18762575E+03 E0= -.18763333E+03  d E =-.187626E+03  mag=    25.4181
quench:  g(F)=  0.000E+00 g(S)=  0.000E+00 dE (1.order)= 0.000E+00
 bond charge predicted
       N       E                     dE             d eps       ncg     rms          rms(c)
DAV:   1    -0.187723825625E+03   -0.98064E-01   -0.13700E+00  2049   0.212E+00    0.610E-01
RMM:   2    -0.187825338868E+03   -0.10151E+00   -0.85890E-02  2016   0.689E-01    0.559E+00
RMM:   3    -0.187735248224E+03    0.90091E-01   -0.15064E-02  2022   0.377E-01    0.220E+00
RMM:   4    -0.187728781088E+03    0.64671E-02   -0.68454E-03  2018   0.247E-01    0.132E+00
RMM:   5    -0.187730562188E+03   -0.17811E-02   -0.35625E-03  2000   0.171E-01    0.146E+00
RMM:   6    -0.187730465789E+03    0.96399E-04   -0.41365E-03  2020   0.196E-01    0.119E+00
RMM:   7    -0.187730637614E+03   -0.17183E-03   -0.41838E-03  1993   0.196E-01    0.127E+00
RMM:   8    -0.187729109368E+03    0.15282E-02   -0.42279E-03  1987   0.201E-01    0.105E+00
RMM:   9    -0.187729574910E+03   -0.46554E-03   -0.48832E-03  1992   0.207E-01    0.120E+00
RMM:  10    -0.187726086259E+03    0.34887E-02   -0.27058E-03  1994   0.164E-01    0.458E-01
RMM:  11    -0.187725935766E+03    0.15049E-03   -0.51904E-04  1686   0.703E-02    0.190E-01
RMM:  12    -0.187726026114E+03   -0.90348E-04   -0.15589E-04  1117   0.393E-02
   2 F= -.18772603E+03 E0= -.18773325E+03  d E =-.100276E+00  mag=    25.4556
quench:  g(F)=  0.000E+00 g(S)=  0.000E+00 dE (1.order)= 0.000E+00
 bond charge predicted
       N       E                     dE             d eps       ncg     rms          rms(c)
DAV:   1    -0.187863209437E+03   -0.13727E+00   -0.45264E+00  1992   0.389E+00    0.107E+00
RMM:   2    -0.188159322586E+03   -0.29611E+00   -0.25781E-01  2017   0.117E+00    0.967E+00
RMM:   3    -0.187893605255E+03    0.26572E+00   -0.50223E-02  2016   0.685E-01    0.370E+00
RMM:   4    -0.187884216694E+03    0.93886E-02   -0.23558E-02  2024   0.454E-01    0.279E+00
RMM:   5    -0.187878439655E+03    0.57770E-02   -0.12684E-02  2009   0.317E-01    0.216E+00
RMM:   6    -0.187881022718E+03   -0.25831E-02   -0.11033E-02  2012   0.321E-01    0.202E+00
RMM:   7    -0.187877432072E+03    0.35906E-02   -0.85188E-03  2008   0.280E-01    0.185E+00
RMM:   8    -0.187877671491E+03   -0.23942E-03   -0.10104E-02  1992   0.308E-01    0.187E+00
RMM:   9    -0.187879802126E+03   -0.21306E-02   -0.13412E-02  2002   0.342E-01    0.216E+00
RMM:  10    -0.187868674601E+03    0.11128E-01   -0.83057E-03  2003   0.290E-01    0.668E-01
RMM:  11    -0.187868567965E+03    0.10664E-03   -0.14231E-03  1969   0.112E-01    0.459E-01
RMM:  12    -0.187868582656E+03   -0.14691E-04   -0.53439E-04  1710   0.700E-02
   3 F= -.18786858E+03 E0= -.18787524E+03  d E =-.142557E+00  mag=    25.5453
quench:  g(F)=  0.000E+00 g(S)=  0.000E+00 dE (1.order)= 0.000E+00
 bond charge predicted
       N       E                     dE             d eps       ncg     rms          rms(c)
DAV:   1    -0.187992967389E+03   -0.12440E+00   -0.74720E+00  2016   0.511E+00    0.135E+00
RMM:   2    -0.188500388145E+03   -0.50742E+00   -0.42748E-01  2014   0.140E+00    0.128E+01
RMM:   3    -0.188033357659E+03    0.46703E+00   -0.83368E-02  2024   0.869E-01    0.422E+00
RMM:   4    -0.188038532387E+03   -0.51747E-02   -0.53073E-02  2017   0.678E-01    0.428E+00
RMM:   5    -0.188014421551E+03    0.24111E-01   -0.34416E-02  2010   0.523E-01    0.247E+00
RMM:   6    -0.188017752769E+03   -0.33312E-02   -0.18227E-02  2023   0.412E-01    0.243E+00
RMM:   7    -0.188004233277E+03    0.13519E-01   -0.10726E-02  2018   0.314E-01    0.169E+00
RMM:   8    -0.188006222120E+03   -0.19888E-02   -0.98691E-03  2007   0.300E-01    0.196E+00
RMM:   9    -0.188005671135E+03    0.55099E-03   -0.12382E-02  2008   0.328E-01    0.209E+00
RMM:  10    -0.187995290240E+03    0.10381E-01   -0.85974E-03  2015   0.294E-01    0.731E-01
RMM:  11    -0.187995677870E+03   -0.38763E-03   -0.26737E-03  2004   0.153E-01    0.820E-01
RMM:  12    -0.187994323446E+03    0.13544E-02   -0.11942E-03  1959   0.107E-01    0.520E-01
RMM:  13    -0.187993768285E+03    0.55516E-03   -0.32814E-04  1452   0.578E-02    0.339E-01
RMM:  14    -0.187993266464E+03    0.50182E-03   -0.12511E-04  1120   0.327E-02    0.338E-01
RMM:  15    -0.187992738234E+03    0.52823E-03   -0.91956E-05  1084   0.323E-02    0.306E-01
RMM:  16    -0.187992253464E+03    0.48477E-03   -0.62572E-05  1082   0.234E-02    0.299E-01
RMM:  17    -0.187990783333E+03    0.14701E-02   -0.14589E-04  1193   0.298E-02    0.271E-01
RMM:  18    -0.187990085723E+03    0.69761E-03   -0.10233E-04  1111   0.305E-02    0.268E-01
RMM:  19    -0.187988266851E+03    0.18189E-02   -0.38754E-04  1306   0.476E-02    0.305E-01
RMM:  20    -0.187986771854E+03    0.14950E-02   -0.34774E-04  1273   0.523E-02    0.212E-01
RMM:  21    -0.187986306006E+03    0.46585E-03   -0.32049E-04  1257   0.474E-02    0.257E-01
RMM:  22    -0.187984678256E+03    0.16278E-02   -0.13871E-03  1856   0.799E-02    0.180E-01
RMM:  23    -0.187985885261E+03   -0.12070E-02   -0.29161E-04  1239   0.472E-02    0.161E-01
RMM:  24    -0.187991529182E+03   -0.56439E-02   -0.31239E-04  1306   0.448E-02    0.241E-01
RMM:  25    -0.187994491825E+03   -0.29626E-02   -0.17915E-04  1185   0.410E-02    0.108E-01
RMM:  26    -0.187998666258E+03   -0.41744E-02   -0.26665E-04  1286   0.412E-02    0.203E-01
RMM:  27    -0.188006819027E+03   -0.81528E-02   -0.78124E-04  1667   0.580E-02    0.222E-01
RMM:  28    -0.188008984045E+03   -0.21650E-02   -0.14151E-04  1183   0.335E-02    0.170E-01
RMM:  29    -0.188013382641E+03   -0.43986E-02   -0.24962E-04  1285   0.354E-02    0.154E-01
RMM:  30    -0.188016250602E+03   -0.28680E-02   -0.18756E-04  1224   0.337E-02    0.449E-02
RMM:  31    -0.188017962453E+03   -0.17119E-02   -0.10926E-04  1180   0.246E-02    0.916E-02
RMM:  32    -0.188019007214E+03   -0.10448E-02   -0.83219E-05  1172   0.239E-02    0.293E-02
RMM:  33    -0.188019316486E+03   -0.30927E-03   -0.21820E-05  1132   0.121E-02    0.401E-02
RMM:  34    -0.188019725345E+03   -0.40886E-03   -0.24839E-05  1147   0.115E-02    0.183E-02
RMM:  35    -0.188019801997E+03   -0.76651E-04   -0.70449E-06  1009   0.684E-03
   4 F= -.18801980E+03 E0= -.18802651E+03  d E =-.151219E+00  mag=    26.3156
quench:  g(F)=  0.000E+00 g(S)=  0.000E+00 dE (1.order)= 0.000E+00
 bond charge predicted
       N       E                     dE             d eps       ncg     rms          rms(c)
DAV:   1    -0.188130444608E+03   -0.11072E+00   -0.97301E+00  2034   0.585E+00    0.149E+00
RMM:   2    -0.188852441494E+03   -0.72200E+00   -0.53419E-01  2019   0.154E+00    0.155E+01
RMM:   3    -0.188172685240E+03    0.67976E+00   -0.13180E-01  2016   0.108E+00    0.537E+00
RMM:   4    -0.188187134720E+03   -0.14449E-01   -0.74015E-02  2016   0.801E-01    0.481E+00
RMM:   5    -0.188158614262E+03    0.28520E-01   -0.44464E-02  2020   0.597E-01    0.246E+00
RMM:   6    -0.188160859061E+03   -0.22448E-02   -0.20410E-02  2021   0.438E-01    0.234E+00
RMM:   7    -0.188147308526E+03    0.13551E-01   -0.10315E-02  2014   0.306E-01    0.142E+00
RMM:   8    -0.188147249957E+03    0.58569E-04   -0.66206E-03  2009   0.246E-01    0.147E+00
RMM:   9    -0.188147386429E+03   -0.13647E-03   -0.94745E-03  2012   0.285E-01    0.185E+00
RMM:  10    -0.188137343022E+03    0.10043E-01   -0.71193E-03  2015   0.266E-01    0.712E-01
RMM:  11    -0.188136971477E+03    0.37154E-03   -0.27498E-03  1998   0.155E-01    0.824E-01
RMM:  12    -0.188134599869E+03    0.23716E-02   -0.13810E-03  1983   0.115E-01    0.555E-01
RMM:  13    -0.188133821678E+03    0.77819E-03   -0.39900E-04  1567   0.634E-02    0.289E-01
RMM:  14    -0.188133446820E+03    0.37486E-03   -0.17116E-04  1124   0.394E-02    0.315E-01
RMM:  15    -0.188132848403E+03    0.59842E-03   -0.15515E-04  1112   0.419E-02    0.259E-01
RMM:  16    -0.188132452383E+03    0.39602E-03   -0.11202E-04  1091   0.338E-02    0.235E-01
RMM:  17    -0.188131180730E+03    0.12717E-02   -0.21724E-04  1221   0.395E-02    0.235E-01
RMM:  18    -0.188130703424E+03    0.47731E-03   -0.15134E-04  1124   0.403E-02    0.187E-01
RMM:  19    -0.188130774258E+03   -0.70834E-04   -0.21068E-04  1195   0.407E-02
   5 F= -.18813077E+03 E0= -.18813821E+03  d E =-.110972E+00  mag=    26.5524
quench:  g(F)=  0.000E+00 g(S)=  0.000E+00 dE (1.order)= 0.000E+00
 bond charge predicted
       N       E                     dE             d eps       ncg     rms          rms(c)
DAV:   1    -0.188231084847E+03   -0.10038E+00   -0.11623E+01  2016   0.646E+00    0.138E+00
RMM:   2    -0.188695146813E+03   -0.46406E+00   -0.53577E-01  2033   0.142E+00    0.121E+01
RMM:   3    -0.188262116454E+03    0.43303E+00   -0.96580E-02  2017   0.894E-01    0.482E+00
RMM:   4    -0.188280074987E+03   -0.17959E-01   -0.66085E-02  2018   0.763E-01    0.398E+00
RMM:   5    -0.188266984653E+03    0.13090E-01   -0.43338E-02  2016   0.608E-01    0.254E+00
RMM:   6    -0.188259380406E+03    0.76042E-02   -0.18820E-02  2025   0.424E-01    0.195E+00
RMM:   7    -0.188248884423E+03    0.10496E-01   -0.88943E-03  2014   0.283E-01    0.117E+00
RMM:   8    -0.188246486449E+03    0.23980E-02   -0.40254E-03  2008   0.194E-01    0.724E-01
RMM:   9    -0.188248531326E+03   -0.20449E-02   -0.48818E-03  2001   0.206E-01    0.132E+00
RMM:  10    -0.188242497732E+03    0.60336E-02   -0.38151E-03  1998   0.195E-01    0.496E-01
RMM:  11    -0.188242694112E+03   -0.19638E-03   -0.15550E-03  1976   0.118E-01    0.542E-01
RMM:  12    -0.188242965931E+03   -0.27182E-03   -0.96758E-04  1929   0.938E-02    0.576E-01
RMM:  13    -0.188242689682E+03    0.27625E-03   -0.50362E-04  1686   0.721E-02    0.180E-01
RMM:  14    -0.188244491274E+03   -0.18016E-02   -0.25498E-04  1267   0.481E-02    0.266E-01
RMM:  15    -0.188247461674E+03   -0.29704E-02   -0.22779E-04  1226   0.477E-02    0.238E-01
RMM:  16    -0.188248987593E+03   -0.15259E-02   -0.12074E-04  1131   0.349E-02    0.192E-01
RMM:  17    -0.188256305219E+03   -0.73176E-02   -0.39978E-04  1414   0.444E-02    0.240E-01
RMM:  18    -0.188260404353E+03   -0.40991E-02   -0.26370E-04  1269   0.448E-02    0.124E-01
RMM:  19    -0.188264215857E+03   -0.38115E-02   -0.20757E-04  1213   0.367E-02    0.216E-01
RMM:  20    -0.188269835430E+03   -0.56196E-02   -0.33316E-04  1345   0.412E-02    0.148E-01
RMM:  21    -0.188271562636E+03   -0.17272E-02   -0.10130E-04  1161   0.284E-02    0.126E-01
RMM:  22    -0.188275843033E+03   -0.42804E-02   -0.21461E-04  1254   0.311E-02    0.143E-01
RMM:  23    -0.188277731288E+03   -0.18883E-02   -0.10813E-04  1176   0.283E-02    0.514E-02
RMM:  24    -0.188279416059E+03   -0.16848E-02   -0.84218E-05  1169   0.218E-02    0.112E-01
RMM:  25    -0.188281184783E+03   -0.17687E-02   -0.10129E-04  1184   0.232E-02    0.730E-02
RMM:  26    -0.188281568266E+03   -0.38348E-03   -0.26447E-05  1129   0.140E-02    0.585E-02
RMM:  27    -0.188282421368E+03   -0.85310E-03   -0.53041E-05  1165   0.147E-02    0.665E-02
RMM:  28    -0.188282647979E+03   -0.22661E-03   -0.22363E-05  1132   0.127E-02    0.403E-02
RMM:  29    -0.188282726585E+03   -0.78606E-04   -0.81083E-06  1030   0.757E-03
   6 F= -.18828273E+03 E0= -.18829072E+03  d E =-.151952E+00  mag=    26.9789
quench:  g(F)=  0.000E+00 g(S)=  0.000E+00 dE (1.order)= 0.000E+00
 bond charge predicted
       N       E                     dE             d eps       ncg     rms          rms(c)
DAV:   1    -0.188371984692E+03   -0.89337E-01   -0.13469E+01  2028   0.708E+00    0.122E+00
RMM:   2    -0.188547678638E+03   -0.17569E+00   -0.57740E-01  2125   0.136E+00    0.668E+00
RMM:   3    -0.188434680192E+03    0.11300E+00   -0.63056E-02  2019   0.660E-01    0.447E+00
RMM:   4    -0.188435751470E+03   -0.10713E-02   -0.47029E-02  2023   0.644E-01    0.341E+00
RMM:   5    -0.188422003435E+03    0.13748E-01   -0.31851E-02  2028   0.536E-01    0.233E+00
RMM:   6    -0.188412566298E+03    0.94371E-02   -0.12922E-02  2014   0.353E-01    0.141E+00
RMM:   7    -0.188410853221E+03    0.17131E-02   -0.64554E-03  2018   0.236E-01    0.112E+00
RMM:   8    -0.188409790767E+03    0.10625E-02   -0.37967E-03  2000   0.188E-01    0.666E-01
RMM:   9    -0.188412663013E+03   -0.28722E-02   -0.35881E-03  1994   0.178E-01    0.106E+00
RMM:  10    -0.188409970084E+03    0.26929E-02   -0.25657E-03  1987   0.159E-01    0.379E-01
RMM:  11    -0.188410297620E+03   -0.32754E-03   -0.11896E-03  1951   0.103E-01    0.470E-01
RMM:  12    -0.188410159201E+03    0.13842E-03   -0.76996E-04  1871   0.836E-02    0.503E-01
RMM:  13    -0.188409550511E+03    0.60869E-03   -0.39579E-04  1569   0.649E-02    0.139E-01
RMM:  14    -0.188409576603E+03   -0.26092E-04   -0.15008E-04  1095   0.382E-02
   7 F= -.18840958E+03 E0= -.18841726E+03  d E =-.126850E+00  mag=    26.9857
quench:  g(F)=  0.000E+00 g(S)=  0.000E+00 dE (1.order)= 0.000E+00
 bond charge predicted
       N       E                     dE             d eps       ncg     rms          rms(c)
DAV:   1    -0.188487119774E+03   -0.77569E-01   -0.15631E+01  2004   0.778E+00    0.124E+00
RMM:   2    -0.188596594849E+03   -0.10948E+00   -0.63350E-01  2386   0.142E+00    0.432E+00
RMM:   3    -0.188587196419E+03    0.93984E-02   -0.61710E-02  2026   0.645E-01    0.535E+00
RMM:   4    -0.188573251668E+03    0.13945E-01   -0.48319E-02  2026   0.656E-01    0.403E+00
RMM:   5    -0.188547207268E+03    0.26044E-01   -0.32133E-02  2016   0.552E-01    0.232E+00
RMM:   6    -0.188537813839E+03    0.93934E-02   -0.11752E-02  2016   0.337E-01    0.144E+00
RMM:   7    -0.188537164866E+03    0.64897E-03   -0.65009E-03  2012   0.239E-01    0.121E+00
RMM:   8    -0.188535696423E+03    0.14684E-02   -0.39223E-03  2002   0.193E-01    0.679E-01
RMM:   9    -0.188537953138E+03   -0.22567E-02   -0.33182E-03  1999   0.172E-01    0.968E-01
RMM:  10    -0.188535913747E+03    0.20394E-02   -0.23037E-03  1992   0.150E-01    0.383E-01
RMM:  11    -0.188536181053E+03   -0.26731E-03   -0.10912E-03  1959   0.992E-02    0.413E-01
RMM:  12    -0.188536372087E+03   -0.19103E-03   -0.69895E-04  1846   0.785E-02    0.454E-01
RMM:  13    -0.188535965862E+03    0.40623E-03   -0.39458E-04  1556   0.647E-02    0.152E-01
RMM:  14    -0.188536061432E+03   -0.95570E-04   -0.17036E-04  1111   0.408E-02
   8 F= -.18853606E+03 E0= -.18854342E+03  d E =-.126485E+00  mag=    26.9688
quench:  g(F)=  0.000E+00 g(S)=  0.000E+00 dE (1.order)= 0.000E+00
 bond charge predicted
       N       E                     dE             d eps       ncg     rms          rms(c)
DAV:   1    -0.188595279701E+03   -0.59314E-01   -0.13693E+01  2004   0.724E+00    0.118E+00
RMM:   2    -0.188663162425E+03   -0.67883E-01   -0.62846E-01  2075   0.141E+00    0.243E+00
RMM:   3    -0.188665312929E+03   -0.21505E-02   -0.74110E-02  2019   0.732E-01    0.312E+00
RMM:   4    -0.188696958147E+03   -0.31645E-01   -0.32374E-02  2036   0.530E-01    0.513E+00
RMM:   5    -0.188649037857E+03    0.47920E-01   -0.17556E-02  2024   0.399E-01    0.247E+00
RMM:   6    -0.188637746330E+03    0.11292E-01   -0.77262E-03  2014   0.264E-01    0.942E-01
RMM:   7    -0.188643951469E+03   -0.62051E-02   -0.76672E-03  2010   0.255E-01    0.168E+00
RMM:   8    -0.188638592465E+03    0.53590E-02   -0.56919E-03  2014   0.235E-01    0.717E-01
RMM:   9    -0.188638863623E+03   -0.27116E-03   -0.34769E-03  2000   0.176E-01    0.725E-01
RMM:  10    -0.188638699096E+03    0.16453E-03   -0.21677E-03  1986   0.140E-01    0.686E-01
RMM:  11    -0.188638120673E+03    0.57842E-03   -0.14166E-03  1955   0.116E-01    0.498E-01
RMM:  12    -0.188637623579E+03    0.49709E-03   -0.69497E-04  1875   0.785E-02    0.343E-01
RMM:  13    -0.188637426166E+03    0.19741E-03   -0.26509E-04  1273   0.541E-02    0.127E-01
RMM:  14    -0.188637520265E+03   -0.94099E-04   -0.11691E-04  1089   0.339E-02
   9 F= -.18863752E+03 E0= -.18864457E+03  d E =-.101459E+00  mag=    26.9126
quench:  g(F)=  0.000E+00 g(S)=  0.000E+00 dE (1.order)= 0.000E+00
 bond charge predicted
       N       E                     dE             d eps       ncg     rms          rms(c)
DAV:   1    -0.188674354962E+03   -0.36929E-01   -0.40129E+00  2028   0.358E+00    0.716E-01
RMM:   2    -0.188716085030E+03   -0.41730E-01   -0.17859E-01  2339   0.716E-01    0.324E+00
RMM:   3    -0.188689898832E+03    0.26186E-01   -0.14859E-02  2019   0.315E-01    0.191E+00
RMM:   4    -0.188695166837E+03   -0.52680E-02   -0.15728E-02  2023   0.366E-01    0.209E+00
RMM:   5    -0.188688124227E+03    0.70426E-02   -0.10942E-02  2006   0.306E-01    0.120E+00
RMM:   6    -0.188687294029E+03    0.83020E-03   -0.62281E-03  2004   0.236E-01    0.105E+00
RMM:   7    -0.188686959696E+03    0.33433E-03   -0.43568E-03  2003   0.196E-01    0.103E+00
RMM:   8    -0.188685327988E+03    0.16317E-02   -0.25760E-03  1988   0.157E-01    0.562E-01
RMM:   9    -0.188685318814E+03    0.91735E-05   -0.15523E-03  1992   0.116E-01    0.494E-01
RMM:  10    -0.188684937128E+03    0.38169E-03   -0.82434E-04  1956   0.895E-02    0.236E-01
RMM:  11    -0.188685199982E+03   -0.26285E-03   -0.35289E-04  1490   0.571E-02    0.286E-01
RMM:  12    -0.188685366301E+03   -0.16632E-03   -0.21710E-04  1185   0.485E-02    0.191E-01
RMM:  13    -0.188685374717E+03   -0.84167E-05   -0.87195E-05  1078   0.328E-02
  10 F= -.18868537E+03 E0= -.18869231E+03  d E =-.478545E-01  mag=    26.8771
quench:  g(F)=  0.000E+00 g(S)=  0.000E+00 dE (1.order)= 0.000E+00
 bond charge predicted
       N       E                     dE             d eps       ncg     rms          rms(c)
DAV:   1    -0.188710827328E+03   -0.25461E-01   -0.70629E-01  2040   0.165E+00    0.301E-01
RMM:   2    -0.188720919468E+03   -0.10092E-01   -0.38889E-02  2037   0.392E-01    0.172E+00
RMM:   3    -0.188716405561E+03    0.45139E-02   -0.48739E-03  2021   0.199E-01    0.120E+00
RMM:   4    -0.188715471247E+03    0.93431E-03   -0.23632E-03  2015   0.141E-01    0.971E-01
RMM:   5    -0.188714381413E+03    0.10898E-02   -0.16698E-03  1992   0.120E-01    0.640E-01
RMM:   6    -0.188713454309E+03    0.92710E-03   -0.96317E-04  1960   0.968E-02    0.224E-01
RMM:   7    -0.188713737679E+03   -0.28337E-03   -0.47230E-04  1659   0.649E-02    0.358E-01
RMM:   8    -0.188713662938E+03    0.74741E-04   -0.33531E-04  1439   0.597E-02
  11 F= -.18871366E+03 E0= -.18872049E+03  d E =-.282882E-01  mag=    26.8585
quench:  g(F)=  0.000E+00 g(S)=  0.000E+00 dE (1.order)= 0.000E+00
 bond charge predicted
       N       E                     dE             d eps       ncg     rms          rms(c)
DAV:   1    -0.188744627458E+03   -0.30890E-01   -0.11844E+00  2010   0.220E+00    0.348E-01
RMM:   2    -0.188755877021E+03   -0.11250E-01   -0.51698E-02  2043   0.453E-01    0.165E+00
RMM:   3    -0.188752539340E+03    0.33377E-02   -0.58635E-03  2017   0.211E-01    0.151E+00
RMM:   4    -0.188749860160E+03    0.26792E-02   -0.31225E-03  2006   0.164E-01    0.934E-01
RMM:   5    -0.188749354745E+03    0.50541E-03   -0.21459E-03  1995   0.139E-01    0.742E-01
RMM:   6    -0.188748102545E+03    0.12522E-02   -0.10346E-03  1945   0.101E-01    0.304E-01
RMM:   7    -0.188748343136E+03   -0.24059E-03   -0.48353E-04  1680   0.661E-02    0.405E-01
RMM:   8    -0.188748092251E+03    0.25088E-03   -0.38667E-04  1528   0.636E-02    0.221E-01
RMM:   9    -0.188748147787E+03   -0.55536E-04   -0.27878E-04  1343   0.534E-02
  12 F= -.18874815E+03 E0= -.18875503E+03  d E =-.344848E-01  mag=    26.8316
quench:  g(F)=  0.000E+00 g(S)=  0.000E+00 dE (1.order)= 0.000E+00
 bond charge predicted
       N       E                     dE             d eps       ncg     rms          rms(c)
DAV:   1    -0.188784636024E+03   -0.36544E-01   -0.18366E+00  2016   0.273E+00    0.437E-01
RMM:   2    -0.188809294102E+03   -0.24658E-01   -0.78401E-02  2028   0.579E-01    0.267E+00
RMM:   3    -0.188795780417E+03    0.13514E-01   -0.10267E-02  2019   0.286E-01    0.182E+00
RMM:   4    -0.188791820583E+03    0.39598E-02   -0.45509E-03  2015   0.199E-01    0.105E+00
RMM:   5    -0.188792166741E+03   -0.34616E-03   -0.35273E-03  2006   0.177E-01    0.951E-01
RMM:   6    -0.188790075337E+03    0.20914E-02   -0.18975E-03  1990   0.138E-01    0.440E-01
RMM:   7    -0.188790104474E+03   -0.29136E-04   -0.67565E-04  1799   0.775E-02
  13 F= -.18879010E+03 E0= -.18879669E+03  d E =-.419567E-01  mag=    26.8094
quench:  g(F)=  0.000E+00 g(S)=  0.000E+00 dE (1.order)= 0.000E+00
 bond charge predicted
       N       E                     dE             d eps       ncg     rms          rms(c)
DAV:   1    -0.188829739061E+03   -0.39664E-01   -0.25861E+00  1992   0.325E+00    0.583E-01
RMM:   2    -0.188870835278E+03   -0.41096E-01   -0.12152E-01  2021   0.787E-01    0.365E+00
RMM:   3    -0.188839967813E+03    0.30867E-01   -0.23586E-02  2014   0.462E-01    0.144E+00
RMM:   4    -0.188846851791E+03   -0.68840E-02   -0.57424E-03  2023   0.214E-01    0.211E+00
RMM:   5    -0.188842172072E+03    0.46797E-02   -0.55842E-03  2008   0.223E-01    0.160E+00
RMM:   6    -0.188836661195E+03    0.55109E-02   -0.39997E-03  2013   0.198E-01    0.406E-01
RMM:   7    -0.188837242260E+03   -0.58107E-03   -0.11741E-03  1963   0.103E-01    0.525E-01
RMM:   8    -0.188837262298E+03   -0.20038E-04   -0.88149E-04  1925   0.898E-02
  14 F= -.18883726E+03 E0= -.18884398E+03  d E =-.471578E-01  mag=    26.7735
quench:  g(F)=  0.000E+00 g(S)=  0.000E+00 dE (1.order)= 0.000E+00
 bond charge predicted
       N       E                     dE             d eps       ncg     rms          rms(c)
DAV:   1    -0.188877813856E+03   -0.40572E-01   -0.33970E+00  2004   0.372E+00    0.580E-01
RMM:   2    -0.188903731270E+03   -0.25917E-01   -0.14215E-01  2027   0.778E-01    0.232E+00
RMM:   3    -0.188890753607E+03    0.12978E-01   -0.18591E-02  2015   0.388E-01    0.134E+00
RMM:   4    -0.188906958183E+03   -0.16205E-01   -0.73285E-03  2022   0.242E-01    0.291E+00
RMM:   5    -0.188892534378E+03    0.14424E-01   -0.60116E-03  2009   0.235E-01    0.165E+00
RMM:   6    -0.188887471481E+03    0.50629E-02   -0.41658E-03  1999   0.202E-01    0.414E-01
RMM:   7    -0.188888469020E+03   -0.99754E-03   -0.15195E-03  1983   0.115E-01    0.675E-01
RMM:   8    -0.188887910462E+03    0.55856E-03   -0.10763E-03  1930   0.101E-01    0.438E-01
RMM:   9    -0.188887662351E+03    0.24811E-03   -0.71647E-04  1818   0.829E-02    0.255E-01
RMM:  10    -0.188888071924E+03   -0.40957E-03   -0.52219E-04  1728   0.684E-02    0.384E-01
RMM:  11    -0.188887998211E+03    0.73713E-04   -0.36090E-04  1521   0.627E-02
  15 F= -.18888800E+03 E0= -.18889452E+03  d E =-.507359E-01  mag=    26.7117
quench:  g(F)=  0.000E+00 g(S)=  0.000E+00 dE (1.order)= 0.000E+00
 bond charge predicted
       N       E                     dE             d eps       ncg     rms          rms(c)
DAV:   1    -0.188928975461E+03   -0.40904E-01   -0.42914E+00  2028   0.415E+00    0.652E-01
RMM:   2    -0.188987454385E+03   -0.58479E-01   -0.17997E-01  2023   0.882E-01    0.411E+00
RMM:   3    -0.188955187695E+03    0.32267E-01   -0.22122E-02  2018   0.418E-01    0.274E+00
RMM:   4    -0.188945268030E+03    0.99197E-02   -0.11366E-02  2026   0.317E-01    0.140E+00
RMM:   5    -0.188947591194E+03   -0.23232E-02   -0.73334E-03  2009   0.255E-01    0.161E+00
RMM:   6    -0.188941924171E+03    0.56670E-02   -0.44040E-03  1998   0.210E-01    0.627E-01
RMM:   7    -0.188942388433E+03   -0.46426E-03   -0.16867E-03  1990   0.123E-01    0.662E-01
RMM:   8    -0.188941735752E+03    0.65268E-03   -0.11056E-03  1970   0.102E-01    0.397E-01
RMM:   9    -0.188941934411E+03   -0.19866E-03   -0.88029E-04  1908   0.908E-02    0.435E-01
RMM:  10    -0.188941966303E+03   -0.31892E-04   -0.60360E-04  1824   0.741E-02
  16 F= -.18894197E+03 E0= -.18894858E+03  d E =-.539681E-01  mag=    26.6560
quench:  g(F)=  0.000E+00 g(S)=  0.000E+00 dE (1.order)= 0.000E+00
 bond charge predicted
       N       E                     dE             d eps       ncg     rms          rms(c)
DAV:   1    -0.188981059537E+03   -0.39125E-01   -0.51415E+00  1992   0.452E+00    0.705E-01
RMM:   2    -0.189047476151E+03   -0.66417E-01   -0.21410E-01  2019   0.972E-01    0.438E+00
RMM:   3    -0.189011876065E+03    0.35600E-01   -0.24782E-02  2018   0.441E-01    0.286E+00
RMM:   4    -0.188999476457E+03    0.12400E-01   -0.13146E-02  2024   0.338E-01    0.130E+00
RMM:   5    -0.189002579323E+03   -0.31029E-02   -0.76988E-03  2014   0.260E-01    0.177E+00
RMM:   6    -0.188996696696E+03    0.58826E-02   -0.46894E-03  1998   0.214E-01    0.679E-01
RMM:   7    -0.188997332204E+03   -0.63551E-03   -0.22292E-03  1999   0.141E-01    0.743E-01
RMM:   8    -0.188996487501E+03    0.84470E-03   -0.15443E-03  1983   0.123E-01    0.455E-01
RMM:   9    -0.188996709557E+03   -0.22206E-03   -0.12952E-03  1967   0.109E-01    0.499E-01
RMM:  10    -0.188996657687E+03    0.51870E-04   -0.79179E-04  1931   0.862E-02
  17 F= -.18899666E+03 E0= -.18900322E+03  d E =-.546914E-01  mag=    26.5915
quench:  g(F)=  0.000E+00 g(S)=  0.000E+00 dE (1.order)= 0.000E+00
 bond charge predicted
       N       E                     dE             d eps       ncg     rms          rms(c)
DAV:   1    -0.189031518999E+03   -0.34809E-01   -0.60319E+00  1992   0.488E+00    0.773E-01
RMM:   2    -0.189113753321E+03   -0.82234E-01   -0.25229E-01  2013   0.107E+00    0.493E+00
RMM:   3    -0.189067453485E+03    0.46300E-01   -0.30946E-02  2023   0.501E-01    0.306E+00
RMM:   4    -0.189053534863E+03    0.13919E-01   -0.14376E-02  2023   0.352E-01    0.151E+00
RMM:   5    -0.189059422190E+03   -0.58873E-02   -0.10270E-02  2007   0.302E-01    0.214E+00
RMM:   6    -0.189050215934E+03    0.92063E-02   -0.73105E-03  1999   0.270E-01    0.762E-01
RMM:   7    -0.189051052306E+03   -0.83637E-03   -0.27292E-03  1998   0.157E-01    0.895E-01
RMM:   8    -0.189049810686E+03    0.12416E-02   -0.18957E-03  1982   0.134E-01    0.506E-01
RMM:   9    -0.189050418551E+03   -0.60786E-03   -0.17891E-03  1980   0.128E-01    0.646E-01
RMM:  10    -0.189050066148E+03    0.35240E-03   -0.10705E-03  1977   0.100E-01    0.439E-01
RMM:  11    -0.189049997150E+03    0.68998E-04   -0.65341E-04  1816   0.796E-02
  18 F= -.18905000E+03 E0= -.18905645E+03  d E =-.533395E-01  mag=    26.5134
quench:  g(F)=  0.000E+00 g(S)=  0.000E+00 dE (1.order)= 0.000E+00
 bond charge predicted
       N       E                     dE             d eps       ncg     rms          rms(c)
DAV:   1    -0.189077830305E+03   -0.27764E-01   -0.64228E+00  1992   0.495E+00    0.852E-01
RMM:   2    -0.189154748120E+03   -0.76918E-01   -0.31100E-01  2017   0.122E+00    0.427E+00
RMM:   3    -0.189100260994E+03    0.54487E-01   -0.48809E-02  2019   0.658E-01    0.128E+00
RMM:   4    -0.189108027791E+03   -0.77668E-02   -0.16515E-02  2031   0.374E-01    0.201E+00
RMM:   5    -0.189100023652E+03    0.80041E-02   -0.89568E-03  2014   0.293E-01    0.103E+00
RMM:   6    -0.189101941161E+03   -0.19175E-02   -0.28958E-03  1991   0.163E-01    0.129E+00
RMM:   7    -0.189100841539E+03    0.10996E-02   -0.19163E-03  1979   0.127E-01    0.117E+00
RMM:   8    -0.189099888950E+03    0.95259E-03   -0.28130E-03  1992   0.159E-01    0.846E-01
RMM:   9    -0.189098371092E+03    0.15179E-02   -0.23181E-03  1984   0.150E-01    0.343E-01
RMM:  10    -0.189099748078E+03   -0.13770E-02   -0.15760E-03  1963   0.117E-01    0.770E-01
RMM:  11    -0.189098861778E+03    0.88630E-03   -0.10345E-03  1939   0.102E-01    0.362E-01
RMM:  12    -0.189098692640E+03    0.16914E-03   -0.26289E-04  1291   0.520E-02    0.155E-01
RMM:  13    -0.189098856282E+03   -0.16364E-03   -0.10643E-04  1099   0.325E-02    0.142E-01
RMM:  14    -0.189099020351E+03   -0.16407E-03   -0.61722E-05  1076   0.276E-02    0.711E-02
RMM:  15    -0.189099445379E+03   -0.42503E-03   -0.40391E-05  1091   0.198E-02    0.115E-01
RMM:  16    -0.189099874926E+03   -0.42955E-03   -0.34314E-05  1098   0.199E-02    0.592E-02
RMM:  17    -0.189100145316E+03   -0.27039E-03   -0.17076E-05  1077   0.127E-02    0.710E-02
RMM:  18    -0.189101423767E+03   -0.12785E-02   -0.60243E-05  1147   0.189E-02    0.101E-01
RMM:  19    -0.189102038207E+03   -0.61444E-03   -0.37353E-05  1126   0.182E-02    0.404E-02
RMM:  20    -0.189102447168E+03   -0.40896E-03   -0.19336E-05  1115   0.121E-02    0.601E-02
RMM:  21    -0.189103258393E+03   -0.81123E-03   -0.36183E-05  1143   0.138E-02    0.470E-02
RMM:  22    -0.189103468766E+03   -0.21037E-03   -0.13186E-05  1105   0.102E-02    0.311E-02
RMM:  23    -0.189103804431E+03   -0.33566E-03   -0.18953E-05  1132   0.105E-02    0.539E-02
RMM:  24    -0.189104022345E+03   -0.21791E-03   -0.19291E-05  1136   0.108E-02    0.227E-02
RMM:  25    -0.189104057256E+03   -0.34911E-04   -0.48350E-06   936   0.635E-03
  19 F= -.18910406E+03 E0= -.18911053E+03  d E =-.540601E-01  mag=    26.3262
quench:  g(F)=  0.000E+00 g(S)=  0.000E+00 dE (1.order)= 0.000E+00
 bond charge predicted
       N       E                     dE             d eps       ncg     rms          rms(c)
DAV:   1    -0.189111217388E+03   -0.71950E-02   -0.42934E+00  2058   0.387E+00    0.669E-01
RMM:   2    -0.189145555857E+03   -0.34338E-01   -0.20209E-01  2090   0.844E-01    0.244E+00
RMM:   3    -0.189134979101E+03    0.10577E-01   -0.19575E-02  2006   0.389E-01    0.230E+00
RMM:   4    -0.189133072666E+03    0.19064E-02   -0.89943E-03  2032   0.272E-01    0.194E+00
RMM:   5    -0.189128497278E+03    0.45754E-02   -0.82249E-03  1999   0.256E-01    0.133E+00
RMM:   6    -0.189126126832E+03    0.23704E-02   -0.53782E-03  1999   0.221E-01    0.816E-01
RMM:   7    -0.189126612477E+03   -0.48564E-03   -0.32907E-03  1994   0.171E-01    0.102E+00
RMM:   8    -0.189124880797E+03    0.17317E-02   -0.22378E-03  1980   0.147E-01    0.569E-01
RMM:   9    -0.189125135210E+03   -0.25441E-03   -0.17934E-03  1992   0.125E-01    0.652E-01
RMM:  10    -0.189124279607E+03    0.85560E-03   -0.10604E-03  1981   0.100E-01    0.303E-01
RMM:  11    -0.189124305772E+03   -0.26166E-04   -0.41048E-04  1600   0.626E-02
  20 F= -.18912431E+03 E0= -.18913071E+03  d E =-.202485E-01  mag=    26.3096
quench:  g(F)=  0.000E+00 g(S)=  0.000E+00 dE (1.order)= 0.000E+00
 bond charge predicted
       N       E                     dE             d eps       ncg     rms          rms(c)
DAV:   1    -0.189130319011E+03   -0.60394E-02   -0.75174E-02  2058   0.516E-01    0.204E-01
RMM:   2    -0.189141439868E+03   -0.11121E-01   -0.11521E-02  2004   0.274E-01    0.203E+00
RMM:   3    -0.189132953861E+03    0.84860E-02   -0.38805E-03  1994   0.193E-01    0.109E+00
RMM:   4    -0.189131128014E+03    0.18258E-02   -0.11774E-03  1963   0.102E-01    0.417E-01
RMM:   5    -0.189130988778E+03    0.13924E-03   -0.39432E-04  1559   0.591E-02    0.276E-01
RMM:   6    -0.189130880127E+03    0.10865E-03   -0.24935E-04  1178   0.492E-02    0.152E-01
RMM:   7    -0.189130889340E+03   -0.92135E-05   -0.14377E-04  1080   0.402E-02
  21 F= -.18913089E+03 E0= -.18913736E+03  d E =-.658357E-02  mag=    26.3023
quench:  g(F)=  0.000E+00 g(S)=  0.000E+00 dE (1.order)= 0.000E+00
 bond charge predicted
       N       E                     dE             d eps       ncg     rms          rms(c)
DAV:   1    -0.189138876298E+03   -0.79962E-02   -0.24309E-01  2028   0.867E-01    0.282E-01
RMM:   2    -0.189152093520E+03   -0.13217E-01   -0.24778E-02  2010   0.363E-01    0.216E+00
RMM:   3    -0.189140857127E+03    0.11236E-01   -0.65612E-03  2008   0.250E-01    0.904E-01
RMM:   4    -0.189140847099E+03    0.10028E-04   -0.12892E-03  1996   0.103E-01    0.764E-01
RMM:   5    -0.189140023528E+03    0.82357E-03   -0.94931E-04  1964   0.888E-02    0.424E-01
RMM:   6    -0.189139703371E+03    0.32016E-03   -0.68779E-04  1826   0.769E-02    0.249E-01
RMM:   7    -0.189139791901E+03   -0.88530E-04   -0.42269E-04  1592   0.627E-02
  22 F= -.18913979E+03 E0= -.18914621E+03  d E =-.890256E-02  mag=    26.2931
quench:  g(F)=  0.000E+00 g(S)=  0.000E+00 dE (1.order)= 0.000E+00
 bond charge predicted
       N       E                     dE             d eps       ncg     rms          rms(c)
DAV:   1    -0.189147033427E+03   -0.73301E-02   -0.32165E-01  2049   0.112E+00    0.432E-01
RMM:   2    -0.189184342711E+03   -0.37309E-01   -0.44910E-02  2012   0.589E-01    0.388E+00
RMM:   3    -0.189148345741E+03    0.35997E-01   -0.21142E-02  2015   0.459E-01    0.867E-01
RMM:   4    -0.189148792249E+03   -0.44651E-03   -0.22541E-03  2005   0.137E-01    0.702E-01
RMM:   5    -0.189148924558E+03   -0.13231E-03   -0.82847E-04  1895   0.826E-02    0.765E-01
RMM:   6    -0.189147947265E+03    0.97729E-03   -0.80404E-04  1886   0.819E-02    0.369E-01
RMM:   7    -0.189147733717E+03    0.21355E-03   -0.48681E-04  1695   0.694E-02    0.219E-01
RMM:   8    -0.189148030536E+03   -0.29682E-03   -0.44379E-04  1632   0.633E-02    0.386E-01
RMM:   9    -0.189147642648E+03    0.38789E-03   -0.32528E-04  1410   0.615E-02    0.148E-01
RMM:  10    -0.189147652156E+03   -0.95081E-05   -0.15175E-04  1087   0.399E-02
  23 F= -.18914765E+03 E0= -.18915407E+03  d E =-.786025E-02  mag=    26.2759
quench:  g(F)=  0.000E+00 g(S)=  0.000E+00 dE (1.order)= 0.000E+00
 bond charge predicted
       N       E                     dE             d eps       ncg     rms          rms(c)
DAV:   1    -0.189154467309E+03   -0.68247E-02   -0.32270E-01  2040   0.109E+00    0.217E-01
RMM:   2    -0.189161799422E+03   -0.73321E-02   -0.16667E-02  2007   0.304E-01    0.160E+00
RMM:   3    -0.189155331527E+03    0.64679E-02   -0.37717E-03  2011   0.192E-01    0.261E-01
RMM:   4    -0.189155962788E+03   -0.63126E-03   -0.92599E-04  1926   0.880E-02    0.447E-01
RMM:   5    -0.189156230566E+03   -0.26778E-03   -0.46916E-04  1651   0.678E-02    0.583E-01
RMM:   6    -0.189155713859E+03    0.51671E-03   -0.24136E-04  1214   0.507E-02    0.318E-01
RMM:   7    -0.189155565464E+03    0.14840E-03   -0.15313E-04  1131   0.394E-02    0.163E-01
RMM:   8    -0.189155642033E+03   -0.76569E-04   -0.15223E-04  1106   0.399E-02
  24 F= -.18915564E+03 E0= -.18916214E+03  d E =-.798988E-02  mag=    26.2635
quench:  g(F)=  0.000E+00 g(S)=  0.000E+00 dE (1.order)= 0.000E+00
 bond charge predicted
       N       E                     dE             d eps       ncg     rms          rms(c)
DAV:   1    -0.189162687897E+03   -0.71224E-02   -0.42458E-01  1992   0.125E+00    0.244E-01
RMM:   2    -0.189182244051E+03   -0.19556E-01   -0.22443E-02  2013   0.339E-01    0.274E+00
RMM:   3    -0.189164618132E+03    0.17626E-01   -0.38965E-03  2021   0.186E-01    0.798E-01
RMM:   4    -0.189164465433E+03    0.15270E-03   -0.18333E-03  1979   0.128E-01    0.484E-01
RMM:   5    -0.189164815538E+03   -0.35011E-03   -0.95323E-04  1927   0.907E-02    0.575E-01
RMM:   6    -0.189164104215E+03    0.71132E-03   -0.74852E-04  1812   0.861E-02    0.223E-01
RMM:   7    -0.189164215500E+03   -0.11129E-03   -0.29057E-04  1356   0.534E-02    0.289E-01
RMM:   8    -0.189164157588E+03    0.57912E-04   -0.22931E-04  1214   0.505E-02
  25 F= -.18916416E+03 E0= -.18917061E+03  d E =-.851556E-02  mag=    26.2501
quench:  g(F)=  0.000E+00 g(S)=  0.000E+00 dE (1.order)= 0.000E+00
 bond charge predicted
       N       E                     dE             d eps       ncg     rms          rms(c)
DAV:   1    -0.189171125255E+03   -0.69098E-02   -0.58652E-01  1992   0.147E+00    0.312E-01
RMM:   2    -0.189193937089E+03   -0.22812E-01   -0.31610E-02  2010   0.423E-01    0.299E+00
RMM:   3    -0.189176342068E+03    0.17595E-01   -0.67715E-03  2020   0.251E-01    0.136E+00
RMM:   4    -0.189173110939E+03    0.32311E-02   -0.25721E-03  1986   0.151E-01    0.466E-01
RMM:   5    -0.189173834144E+03   -0.72320E-03   -0.15059E-03  1980   0.114E-01    0.649E-01
RMM:   6    -0.189173090070E+03    0.74407E-03   -0.97620E-04  1947   0.987E-02    0.343E-01
RMM:   7    -0.189173055238E+03    0.34832E-04   -0.45554E-04  1638   0.655E-02
  26 F= -.18917306E+03 E0= -.18917950E+03  d E =-.889765E-02  mag=    26.2378
quench:  g(F)=  0.000E+00 g(S)=  0.000E+00 dE (1.order)= 0.000E+00
 bond charge predicted
       N       E                     dE             d eps       ncg     rms          rms(c)
DAV:   1    -0.189179353973E+03   -0.62639E-02   -0.73317E-01  2004   0.164E+00    0.389E-01
RMM:   2    -0.189211506908E+03   -0.32153E-01   -0.44323E-02  2012   0.525E-01    0.358E+00
RMM:   3    -0.189186707336E+03    0.24800E-01   -0.11466E-02  2023   0.329E-01    0.171E+00
RMM:   4    -0.189182446219E+03    0.42611E-02   -0.34246E-03  1990   0.173E-01    0.769E-01
RMM:   5    -0.189182682529E+03   -0.23631E-03   -0.20420E-03  1991   0.133E-01    0.716E-01
RMM:   6    -0.189181689460E+03    0.99307E-03   -0.13389E-03  1980   0.113E-01    0.389E-01
RMM:   7    -0.189181563222E+03    0.12624E-03   -0.60547E-04  1759   0.761E-02    0.291E-01
RMM:   8    -0.189181841291E+03   -0.27807E-03   -0.53584E-04  1703   0.690E-02    0.390E-01
RMM:   9    -0.189181585795E+03    0.25550E-03   -0.49964E-04  1702   0.729E-02    0.231E-01
RMM:  10    -0.189181635994E+03   -0.50199E-04   -0.27218E-04  1332   0.512E-02
  27 F= -.18918164E+03 E0= -.18918814E+03  d E =-.858076E-02  mag=    26.2140
quench:  g(F)=  0.000E+00 g(S)=  0.000E+00 dE (1.order)= 0.000E+00
 bond charge predicted
       N       E                     dE             d eps       ncg     rms          rms(c)
DAV:   1    -0.189186532122E+03   -0.49463E-02   -0.90787E-01  1992   0.180E+00    0.313E-01
RMM:   2    -0.189206481975E+03   -0.19950E-01   -0.40586E-02  2012   0.432E-01    0.264E+00
RMM:   3    -0.189191181133E+03    0.15301E-01   -0.54448E-03  2021   0.216E-01    0.109E+00
RMM:   4    -0.189190172894E+03    0.10082E-02   -0.22935E-03  1996   0.142E-01    0.664E-01
RMM:   5    -0.189191086414E+03   -0.91352E-03   -0.18393E-03  1975   0.126E-01    0.784E-01
RMM:   6    -0.189189478239E+03    0.16082E-02   -0.14084E-03  1942   0.118E-01    0.277E-01
RMM:   7    -0.189189615567E+03   -0.13733E-03   -0.42939E-04  1620   0.634E-02    0.303E-01
RMM:   8    -0.189189825655E+03   -0.21009E-03   -0.42218E-04  1591   0.625E-02    0.365E-01
RMM:   9    -0.189189624619E+03    0.20104E-03   -0.34690E-04  1490   0.620E-02    0.211E-01
RMM:  10    -0.189189654818E+03   -0.30198E-04   -0.18178E-04  1104   0.425E-02
  28 F= -.18918965E+03 E0= -.18919622E+03  d E =-.801882E-02  mag=    26.1912
quench:  g(F)=  0.000E+00 g(S)=  0.000E+00 dE (1.order)= 0.000E+00
 bond charge predicted
       N       E                     dE             d eps       ncg     rms          rms(c)
DAV:   1    -0.189192926480E+03   -0.33019E-02   -0.98961E-01  1992   0.186E+00    0.308E-01
RMM:   2    -0.189206051097E+03   -0.13125E-01   -0.43857E-02  2010   0.413E-01    0.189E+00
RMM:   3    -0.189197638637E+03    0.84125E-02   -0.41634E-03  2027   0.175E-01    0.950E-01
RMM:   4    -0.189197443909E+03    0.19473E-03   -0.26766E-03  2011   0.153E-01    0.779E-01
RMM:   5    -0.189197411169E+03    0.32739E-04   -0.16891E-03  1990   0.121E-01    0.742E-01
RMM:   6    -0.189196206216E+03    0.12050E-02   -0.13035E-03  1953   0.112E-01    0.275E-01
RMM:   7    -0.189196648519E+03   -0.44230E-03   -0.63495E-04  1810   0.757E-02    0.452E-01
RMM:   8    -0.189196369006E+03    0.27951E-03   -0.46069E-04  1632   0.684E-02    0.282E-01
RMM:   9    -0.189196405296E+03   -0.36290E-04   -0.36897E-04  1533   0.603E-02
  29 F= -.18919641E+03 E0= -.18920298E+03  d E =-.675048E-02  mag=    26.1711
quench:  g(F)=  0.000E+00 g(S)=  0.000E+00 dE (1.order)= 0.000E+00
 bond charge predicted
       N       E                     dE             d eps       ncg     rms          rms(c)
DAV:   1    -0.189197108351E+03   -0.73934E-03   -0.93104E-01  1992   0.182E+00    0.342E-01
RMM:   2    -0.189212571971E+03   -0.15464E-01   -0.45573E-02  2003   0.472E-01    0.230E+00
RMM:   3    -0.189200415893E+03    0.12156E-01   -0.84844E-03  2008   0.283E-01    0.735E-01
RMM:   4    -0.189202555551E+03   -0.21397E-02   -0.17368E-03  2008   0.118E-01    0.110E+00
RMM:   5    -0.189201315839E+03    0.12397E-02   -0.17469E-03  1987   0.123E-01    0.778E-01
RMM:   6    -0.189200222899E+03    0.10929E-02   -0.13121E-03  1974   0.112E-01    0.399E-01
RMM:   7    -0.189200014362E+03    0.20854E-03   -0.61118E-04  1792   0.754E-02    0.213E-01
RMM:   8    -0.189200277639E+03   -0.26328E-03   -0.35723E-04  1477   0.578E-02    0.365E-01
RMM:   9    -0.189200044416E+03    0.23322E-03   -0.30434E-04  1389   0.587E-02    0.184E-01
RMM:  10    -0.189200170146E+03   -0.12573E-03   -0.19626E-04  1132   0.436E-02    0.215E-01
RMM:  11    -0.189200167235E+03    0.29108E-05   -0.12818E-04  1095   0.399E-02
  30 F= -.18920017E+03 E0= -.18920675E+03  d E =-.376194E-02  mag=    26.1508
quench:  g(F)=  0.000E+00 g(S)=  0.000E+00 dE (1.order)= 0.000E+00
 bond charge predicted
       N       E                     dE             d eps       ncg     rms          rms(c)
DAV:   1    -0.189201260564E+03   -0.10904E-02   -0.31320E-01  2040   0.100E+00    0.211E-01
RMM:   2    -0.189205145479E+03   -0.38849E-02   -0.19558E-02  2066   0.261E-01    0.973E-01
RMM:   3    -0.189203220245E+03    0.19252E-02   -0.25934E-03  2013   0.147E-01    0.605E-01
RMM:   4    -0.189203807528E+03   -0.58728E-03   -0.73174E-04  1868   0.758E-02    0.767E-01
RMM:   5    -0.189202785356E+03    0.10222E-02   -0.76544E-04  1899   0.821E-02    0.407E-01
RMM:   6    -0.189202510575E+03    0.27478E-03   -0.52715E-04  1721   0.709E-02    0.182E-01
RMM:   7    -0.189202831662E+03   -0.32109E-03   -0.35918E-04  1492   0.570E-02    0.395E-01
RMM:   8    -0.189202592517E+03    0.23914E-03   -0.28452E-04  1341   0.572E-02    0.189E-01
RMM:   9    -0.189202595365E+03   -0.28477E-05   -0.17025E-04  1092   0.428E-02
  31 F= -.18920260E+03 E0= -.18920919E+03  d E =-.242813E-02  mag=    26.1374
quench:  g(F)=  0.000E+00 g(S)=  0.000E+00 dE (1.order)= 0.000E+00
 bond charge predicted
       N       E                     dE             d eps       ncg     rms          rms(c)
DAV:   1    -0.189203353163E+03   -0.76065E-03   -0.10844E-01  2040   0.641E-01    0.161E-01
RMM:   2    -0.189210009669E+03   -0.66565E-02   -0.75501E-03  2000   0.228E-01    0.167E+00
RMM:   3    -0.189204638589E+03    0.53711E-02   -0.24427E-03  1995   0.155E-01    0.746E-01
RMM:   4    -0.189203759176E+03    0.87941E-03   -0.50731E-04  1727   0.679E-02    0.242E-01
RMM:   5    -0.189203852303E+03   -0.93127E-04   -0.30817E-04  1393   0.536E-02
  32 F= -.18920385E+03 E0= -.18921055E+03  d E =-.125694E-02  mag=    26.1324
quench:  g(F)=  0.000E+00 g(S)=  0.000E+00 dE (1.order)= 0.000E+00
 bond charge predicted
       N       E                     dE             d eps       ncg     rms          rms(c)
DAV:   1    -0.189204356595E+03   -0.59742E-03   -0.12627E-01  2052   0.708E-01    0.214E-01
RMM:   2    -0.189213630989E+03   -0.92744E-02   -0.10691E-02  2002   0.291E-01    0.196E+00
RMM:   3    -0.189204538688E+03    0.90923E-02   -0.49636E-03  2005   0.224E-01    0.328E-01
RMM:   4    -0.189204786672E+03   -0.24798E-03   -0.64092E-04  1844   0.743E-02    0.242E-01
RMM:   5    -0.189205370185E+03   -0.58351E-03   -0.24553E-04  1229   0.475E-02    0.540E-01
RMM:   6    -0.189204942315E+03    0.42787E-03   -0.21292E-04  1159   0.493E-02    0.348E-01
RMM:   7    -0.189204705259E+03    0.23706E-03   -0.15404E-04  1124   0.430E-02    0.614E-02
RMM:   8    -0.189204830128E+03   -0.12487E-03   -0.89306E-05  1070   0.292E-02    0.179E-01
RMM:   9    -0.189204796091E+03    0.34037E-04   -0.78264E-05  1063   0.312E-02
  33 F= -.18920480E+03 E0= -.18921144E+03  d E =-.943789E-03  mag=    26.1227
quench:  g(F)=  0.000E+00 g(S)=  0.000E+00 dE (1.order)= 0.000E+00
 bond charge predicted
       N       E                     dE             d eps       ncg     rms          rms(c)
DAV:   1    -0.189205087605E+03   -0.25748E-03   -0.18480E-01  1992   0.816E-01    0.132E-01
RMM:   2    -0.189207256340E+03   -0.21687E-02   -0.72631E-03  2039   0.177E-01    0.799E-01
RMM:   3    -0.189206250181E+03    0.10062E-02   -0.91022E-04  1939   0.867E-02    0.550E-01
RMM:   4    -0.189205811725E+03    0.43846E-03   -0.40460E-04  1578   0.607E-02    0.303E-01
RMM:   5    -0.189205938337E+03   -0.12661E-03   -0.31522E-04  1404   0.562E-02    0.322E-01
RMM:   6    -0.189205671802E+03    0.26654E-03   -0.19541E-04  1132   0.504E-02    0.815E-02
RMM:   7    -0.189205727398E+03   -0.55596E-04   -0.77567E-05  1060   0.279E-02
  34 F= -.18920573E+03 E0= -.18921244E+03  d E =-.931306E-03  mag=    26.1160
quench:  g(F)=  0.000E+00 g(S)=  0.000E+00 dE (1.order)= 0.000E+00
 bond charge predicted
       N       E                     dE             d eps       ncg     rms          rms(c)
DAV:   1    -0.189205587728E+03    0.84074E-04   -0.24844E-01  1992   0.952E-01    0.204E-01
RMM:   2    -0.189211941051E+03   -0.63533E-02   -0.12844E-02  2007   0.282E-01    0.155E+00
RMM:   3    -0.189206242652E+03    0.56984E-02   -0.38346E-03  2011   0.193E-01    0.358E-01
RMM:   4    -0.189206669212E+03   -0.42656E-03   -0.69751E-04  1879   0.776E-02    0.442E-01
RMM:   5    -0.189207075451E+03   -0.40624E-03   -0.33467E-04  1458   0.545E-02    0.595E-01
RMM:   6    -0.189206373738E+03    0.70171E-03   -0.31188E-04  1389   0.590E-02    0.253E-01
RMM:   7    -0.189206276144E+03    0.97595E-04   -0.15089E-04  1109   0.413E-02
  35 F= -.18920628E+03 E0= -.18921301E+03  d E =-.548746E-03  mag=    26.1101
quench:  g(F)=  0.000E+00 g(S)=  0.000E+00 dE (1.order)= 0.000E+00
 bond charge predicted
       N       E                     dE             d eps       ncg     rms          rms(c)
DAV:   1    -0.189205591483E+03    0.78226E-03   -0.31933E-01  1992   0.108E+00    0.249E-01
RMM:   2    -0.189216987463E+03   -0.11396E-01   -0.17341E-02  2001   0.335E-01    0.204E+00
RMM:   3    -0.189209397934E+03    0.75895E-02   -0.52271E-03  2009   0.226E-01    0.123E+00
RMM:   4    -0.189206458932E+03    0.29390E-02   -0.11988E-03  1980   0.102E-01    0.356E-01
RMM:   5    -0.189206917316E+03   -0.45838E-03   -0.78872E-04  1875   0.838E-02    0.462E-01
RMM:   6    -0.189206537019E+03    0.38030E-03   -0.43363E-04  1621   0.678E-02    0.251E-01
RMM:   7    -0.189206433875E+03    0.10314E-03   -0.20420E-04  1115   0.473E-02    0.139E-01
RMM:   8    -0.189206561033E+03   -0.12716E-03   -0.16747E-04  1097   0.399E-02    0.235E-01
RMM:   9    -0.189206472896E+03    0.88136E-04   -0.14197E-04  1079   0.425E-02
  36 F= -.18920647E+03 E0= -.18921313E+03  d E =-.196753E-03  mag=    26.1017
quench:  g(F)=  0.000E+00 g(S)=  0.000E+00 dE (1.order)= 0.000E+00
 bond charge predicted
       N       E                     dE             d eps       ncg     rms          rms(c)
DAV:   1    -0.189204895719E+03    0.16653E-02   -0.40128E-01  1992   0.121E+00    0.196E-01
RMM:   2    -0.189210655776E+03   -0.57601E-02   -0.15864E-02  2010   0.272E-01    0.137E+00
RMM:   3    -0.189207259518E+03    0.33963E-02   -0.21980E-03  2010   0.139E-01    0.811E-01
RMM:   4    -0.189206219151E+03    0.10404E-02   -0.83190E-04  1899   0.855E-02    0.360E-01
RMM:   5    -0.189206689517E+03   -0.47037E-03   -0.64464E-04  1781   0.767E-02    0.525E-01
RMM:   6    -0.189206061729E+03    0.62779E-03   -0.44123E-04  1620   0.690E-02    0.141E-01
RMM:   7    -0.189206126431E+03   -0.64702E-04   -0.14405E-04  1091   0.375E-02
  37 F= -.18920613E+03 E0= -.18921288E+03  d E =0.346466E-03  mag=    26.0957
quench:  g(F)=  0.000E+00 g(S)=  0.000E+00 dE (1.order)= 0.000E+00
 bond charge predicted
       N       E                     dE             d eps       ncg     rms          rms(c)
DAV:   1    -0.189203830860E+03    0.22309E-02   -0.46598E-01  1992   0.132E+00    0.282E-01
RMM:   2    -0.189216863733E+03   -0.13033E-01   -0.24456E-02  2009   0.393E-01    0.225E+00
RMM:   3    -0.189206363817E+03    0.10500E-01   -0.70372E-03  2018   0.260E-01    0.922E-01
RMM:   4    -0.189206231441E+03    0.13238E-03   -0.13495E-03  1977   0.107E-01    0.752E-01
RMM:   5    -0.189205445827E+03    0.78561E-03   -0.90530E-04  1917   0.883E-02    0.442E-01
RMM:   6    -0.189205298692E+03    0.14713E-03   -0.61674E-04  1753   0.771E-02    0.343E-01
RMM:   7    -0.189205079588E+03    0.21910E-03   -0.31353E-04  1421   0.574E-02    0.162E-01
RMM:   8    -0.189205188907E+03   -0.10932E-03   -0.19257E-04  1131   0.437E-02    0.239E-01
RMM:   9    -0.189205124932E+03    0.63975E-04   -0.17578E-04  1112   0.463E-02
  38 F= -.18920512E+03 E0= -.18921179E+03  d E =0.100150E-02  mag=    26.0881
quench:  g(F)=  0.000E+00 g(S)=  0.000E+00 dE (1.order)= 0.000E+00
 bond charge predicted
       N       E                     dE             d eps       ncg     rms          rms(c)
DAV:   1    -0.189202034558E+03    0.31543E-02   -0.48816E-01  1992   0.134E+00    0.254E-01
RMM:   2    -0.189216827355E+03   -0.14793E-01   -0.23156E-02  2009   0.352E-01    0.230E+00
RMM:   3    -0.189205992235E+03    0.10835E-01   -0.45945E-03  2012   0.207E-01    0.122E+00
RMM:   4    -0.189203595147E+03    0.23971E-02   -0.17986E-03  1988   0.127E-01    0.442E-01
RMM:   5    -0.189204111834E+03   -0.51669E-03   -0.10122E-03  1965   0.942E-02    0.535E-01
RMM:   6    -0.189203487637E+03    0.62420E-03   -0.57696E-04  1802   0.770E-02    0.220E-01
RMM:   7    -0.189203477894E+03    0.97424E-05   -0.26313E-04  1276   0.511E-02
  39 F= -.18920348E+03 E0= -.18921024E+03  d E =0.164704E-02  mag=    26.0840
quench:  g(F)=  0.000E+00 g(S)=  0.000E+00 dE (1.order)= 0.000E+00
 bond charge predicted
       N       E                     dE             d eps       ncg     rms          rms(c)
DAV:   1    -0.189201779675E+03    0.17080E-02   -0.25461E-01  2007   0.961E-01    0.278E-01
RMM:   2    -0.189220313539E+03   -0.18534E-01   -0.21412E-02  2009   0.374E-01    0.280E+00
RMM:   3    -0.189205834014E+03    0.14480E-01   -0.66333E-03  2011   0.251E-01    0.135E+00
RMM:   4    -0.189203242989E+03    0.25910E-02   -0.23250E-03  1995   0.143E-01    0.642E-01
RMM:   5    -0.189202780457E+03    0.46253E-03   -0.90987E-04  1949   0.884E-02    0.403E-01
RMM:   6    -0.189202572089E+03    0.20837E-03   -0.48400E-04  1659   0.663E-02    0.242E-01
RMM:   7    -0.189202563460E+03    0.86299E-05   -0.31154E-04  1377   0.568E-02
  40 F= -.18920256E+03 E0= -.18920954E+03  d E =0.914435E-03  mag=    26.0793
quench:  g(F)=  0.000E+00 g(S)=  0.000E+00 dE (1.order)= 0.000E+00
 bond charge predicted
       N       E                     dE             d eps       ncg     rms          rms(c)
DAV:   1    -0.189202162780E+03    0.40931E-03   -0.55972E-02  2028   0.500E-01    0.245E-01
RMM:   2    -0.189225304136E+03   -0.23141E-01   -0.12880E-02  2002   0.335E-01    0.303E+00
RMM:   3    -0.189206322593E+03    0.18982E-01   -0.65880E-03  1996   0.254E-01    0.150E+00
RMM:   4    -0.189202198577E+03    0.41240E-02   -0.20618E-03  1972   0.137E-01    0.313E-01
RMM:   5    -0.189202311185E+03   -0.11261E-03   -0.38228E-04  1553   0.584E-02    0.187E-01
RMM:   6    -0.189202388809E+03   -0.77624E-04   -0.19813E-04  1117   0.458E-02
  41 F= -.18920239E+03 E0= -.18920920E+03  d E =0.174650E-03  mag=    26.0770
quench:  g(F)=  0.000E+00 g(S)=  0.000E+00 dE (1.order)= 0.000E+00
 bond charge predicted
       N       E                     dE             d eps       ncg     rms          rms(c)
DAV:   1    -0.189201309279E+03    0.10019E-02   -0.65267E-02  2040   0.531E-01    0.125E-01
RMM:   2    -0.189205711106E+03   -0.44018E-02   -0.40335E-03  2003   0.169E-01    0.138E+00
RMM:   3    -0.189202098146E+03    0.36130E-02   -0.13787E-03  1956   0.115E-01    0.595E-01
RMM:   4    -0.189201492696E+03    0.60545E-03   -0.32464E-04  1457   0.552E-02    0.164E-01
RMM:   5    -0.189201617163E+03   -0.12447E-03   -0.19173E-04  1133   0.432E-02    0.212E-01
RMM:   6    -0.189201535141E+03    0.82022E-04   -0.11684E-04  1072   0.392E-02
  42 F= -.18920154E+03 E0= -.18920833E+03  d E =0.853668E-03  mag=    26.0748
quench:  g(F)=  0.000E+00 g(S)=  0.000E+00 dE (1.order)= 0.000E+00
 bond charge predicted
       N       E                     dE             d eps       ncg     rms          rms(c)
DAV:   1    -0.189200317870E+03    0.12993E-02   -0.94916E-02  2007   0.604E-01    0.113E-01
RMM:   2    -0.189202495825E+03   -0.21780E-02   -0.39727E-03  2021   0.146E-01    0.913E-01
RMM:   3    -0.189200898837E+03    0.15970E-02   -0.84770E-04  1892   0.892E-02    0.445E-01
RMM:   4    -0.189200618795E+03    0.28004E-03   -0.19556E-04  1173   0.436E-02    0.207E-01
RMM:   5    -0.189200730478E+03   -0.11168E-03   -0.17016E-04  1129   0.434E-02    0.231E-01
RMM:   6    -0.189200596534E+03    0.13394E-03   -0.10638E-04  1083   0.382E-02    0.858E-02
RMM:   7    -0.189200615072E+03   -0.18539E-04   -0.44114E-05  1054   0.209E-02
  43 F= -.18920062E+03 E0= -.18920746E+03  d E =0.920069E-03  mag=    26.0719
quench:  g(F)=  0.000E+00 g(S)=  0.000E+00 dE (1.order)= 0.000E+00
 bond charge predicted
       N       E                     dE             d eps       ncg     rms          rms(c)
DAV:   1    -0.189199171582E+03    0.14250E-02   -0.12991E-01  2022   0.702E-01    0.130E-01
RMM:   2    -0.189203746257E+03   -0.45747E-02   -0.58199E-03  2007   0.184E-01    0.130E+00
RMM:   3    -0.189200103711E+03    0.36425E-02   -0.11373E-03  1980   0.103E-01    0.581E-01
RMM:   4    -0.189199539811E+03    0.56390E-03   -0.62431E-04  1820   0.760E-02    0.187E-01
RMM:   5    -0.189199719026E+03   -0.17922E-03   -0.25596E-04  1284   0.487E-02    0.293E-01
RMM:   6    -0.189199556809E+03    0.16222E-03   -0.15803E-04  1099   0.450E-02    0.135E-01
RMM:   7    -0.189199513946E+03    0.42863E-04   -0.55341E-05  1081   0.255E-02
  44 F= -.18919951E+03 E0= -.18920636E+03  d E =0.110113E-02  mag=    26.0698
quench:  g(F)=  0.000E+00 g(S)=  0.000E+00 dE (1.order)= 0.000E+00
 bond charge predicted
       N       E                     dE             d eps       ncg     rms          rms(c)
DAV:   1    -0.189197843968E+03    0.17128E-02   -0.17165E-01  2043   0.809E-01    0.200E-01
RMM:   2    -0.189206332620E+03   -0.84887E-02   -0.10478E-02  2005   0.270E-01    0.187E+00
RMM:   3    -0.189198652412E+03    0.76802E-02   -0.42545E-03  2001   0.205E-01    0.587E-01
RMM:   4    -0.189198413450E+03    0.23896E-03   -0.39799E-04  1569   0.589E-02    0.334E-01
RMM:   5    -0.189198526912E+03   -0.11346E-03   -0.40239E-04  1590   0.614E-02    0.320E-01
RMM:   6    -0.189198341656E+03    0.18526E-03   -0.21410E-04  1165   0.505E-02    0.191E-01
RMM:   7    -0.189198287724E+03    0.53932E-04   -0.88812E-05  1065   0.317E-02
  45 F= -.18919829E+03 E0= -.18920518E+03  d E =0.122622E-02  mag=    26.0682
quench:  g(F)=  0.000E+00 g(S)=  0.000E+00 dE (1.order)= 0.000E+00
 bond charge predicted
       N       E                     dE             d eps       ncg     rms          rms(c)
DAV:   1    -0.189196233433E+03    0.21082E-02   -0.21744E-01  2019   0.911E-01    0.175E-01
RMM:   2    -0.189199783383E+03   -0.35499E-02   -0.97428E-03  2010   0.238E-01    0.108E+00
RMM:   3    -0.189197108948E+03    0.26744E-02   -0.24625E-03  2009   0.154E-01    0.463E-01
RMM:   4    -0.189197293875E+03   -0.18493E-03   -0.44672E-04  1660   0.617E-02    0.498E-01
RMM:   5    -0.189197124889E+03    0.16899E-03   -0.37640E-04  1545   0.589E-02    0.380E-01
RMM:   6    -0.189196901427E+03    0.22346E-03   -0.26397E-04  1301   0.548E-02    0.217E-01
RMM:   7    -0.189196812334E+03    0.89093E-04   -0.12783E-04  1092   0.380E-02
  46 F= -.18919681E+03 E0= -.18920369E+03  d E =0.147539E-02  mag=    26.0667
quench:  g(F)=  0.000E+00 g(S)=  0.000E+00 dE (1.order)= 0.000E+00
 bond charge predicted
       N       E                     dE             d eps       ncg     rms          rms(c)
DAV:   1    -0.189194449746E+03    0.24517E-02   -0.26829E-01  1992   0.102E+00    0.231E-01
RMM:   2    -0.189204817069E+03   -0.10367E-01   -0.14738E-02  2007   0.313E-01    0.198E+00
RMM:   3    -0.189196693880E+03    0.81232E-02   -0.50453E-03  2006   0.224E-01    0.927E-01
RMM:   4    -0.189195218021E+03    0.14759E-02   -0.74340E-04  1892   0.800E-02    0.357E-01
RMM:   5    -0.189195503314E+03   -0.28529E-03   -0.63095E-04  1800   0.752E-02    0.409E-01
RMM:   6    -0.189195201576E+03    0.30174E-03   -0.32910E-04  1449   0.608E-02    0.208E-01
RMM:   7    -0.189195137914E+03    0.63662E-04   -0.13069E-04  1096   0.379E-02
  47 F= -.18919514E+03 E0= -.18920204E+03  d E =0.167442E-02  mag=    26.0656
quench:  g(F)=  0.000E+00 g(S)=  0.000E+00 dE (1.order)= 0.000E+00
 bond charge predicted
       N       E                     dE             d eps       ncg     rms          rms(c)
DAV:   1    -0.189192416850E+03    0.27847E-02   -0.32032E-01  1992   0.111E+00    0.223E-01
RMM:   2    -0.189199003811E+03   -0.65870E-02   -0.15196E-02  2008   0.304E-01    0.152E+00
RMM:   3    -0.189193909090E+03    0.50947E-02   -0.41236E-03  2012   0.200E-01    0.650E-01
RMM:   4    -0.189193931388E+03   -0.22298E-04   -0.76135E-04  1906   0.798E-02
  48 F= -.18919393E+03 E0= -.18920115E+03  d E =0.120653E-02  mag=    26.0652
quench:  g(F)=  0.000E+00 g(S)=  0.000E+00 dE (1.order)= 0.000E+00
 bond charge predicted
       N       E                     dE             d eps       ncg     rms          rms(c)
DAV:   1    -0.189190395046E+03    0.35140E-02   -0.36571E-01  2025   0.129E+00    0.444E-01
RMM:   2    -0.189268799393E+03   -0.78404E-01   -0.42216E-02  2002   0.595E-01    0.568E+00
RMM:   3    -0.189202843478E+03    0.65956E-01   -0.20330E-02  2010   0.443E-01    0.246E+00
RMM:   4    -0.189191075839E+03    0.11768E-01   -0.59338E-03  1999   0.234E-01    0.602E-01
RMM:   5    -0.189191275872E+03   -0.20003E-03   -0.17841E-03  1968   0.123E-01    0.380E-01
RMM:   6    -0.189191575997E+03   -0.30013E-03   -0.78269E-04  1884   0.850E-02    0.467E-01
RMM:   7    -0.189191070858E+03    0.50514E-03   -0.49903E-04  1688   0.725E-02    0.165E-01
RMM:   8    -0.189191219766E+03   -0.14891E-03   -0.24505E-04  1242   0.480E-02    0.272E-01
RMM:   9    -0.189191120373E+03    0.99393E-04   -0.19744E-04  1138   0.492E-02
  49 F= -.18919112E+03 E0= -.18919796E+03  d E =0.281102E-02  mag=    26.0631
quench:  g(F)=  0.000E+00 g(S)=  0.000E+00 dE (1.order)= 0.000E+00
 bond charge predicted
       N       E                     dE             d eps       ncg     rms          rms(c)
DAV:   1    -0.189188729015E+03    0.24908E-02   -0.26655E-01  2001   0.980E-01    0.236E-01
RMM:   2    -0.189199203691E+03   -0.10475E-01   -0.17434E-02  2003   0.316E-01    0.201E+00
RMM:   3    -0.189190871035E+03    0.83327E-02   -0.47368E-03  2008   0.214E-01    0.891E-01
RMM:   4    -0.189190130631E+03    0.74040E-03   -0.10202E-03  1952   0.930E-02    0.576E-01
RMM:   5    -0.189189888027E+03    0.24260E-03   -0.68798E-04  1804   0.765E-02    0.436E-01
RMM:   6    -0.189189481695E+03    0.40633E-03   -0.44706E-04  1575   0.659E-02    0.113E-01
RMM:   7    -0.189189641665E+03   -0.15997E-03   -0.22146E-04  1155   0.474E-02    0.251E-01
RMM:   8    -0.189189577741E+03    0.63924E-04   -0.18494E-04  1130   0.482E-02
  50 F= -.18918958E+03 E0= -.18919655E+03  d E =0.154263E-02  mag=    26.0645
quench:  g(F)=  0.000E+00 g(S)=  0.000E+00 dE (1.order)= 0.000E+00
 bond charge predicted
       N       E                     dE             d eps       ncg     rms          rms(c)
DAV:   1    -0.189189301053E+03    0.34061E-03   -0.47081E-02  2037   0.435E-01    0.175E-01
RMM:   2    -0.189208136368E+03   -0.18835E-01   -0.72209E-03  2002   0.231E-01    0.289E+00
RMM:   3    -0.189189575409E+03    0.18561E-01   -0.33735E-03  1997   0.181E-01    0.754E-01
RMM:   4    -0.189189612687E+03   -0.37278E-04   -0.12316E-03  1964   0.106E-01    0.343E-01
RMM:   5    -0.189189509521E+03    0.10317E-03   -0.29691E-04  1341   0.517E-02    0.228E-01
RMM:   6    -0.189189455564E+03    0.53957E-04   -0.17276E-04  1127   0.455E-02
  51 F= -.18918946E+03 E0= -.18919636E+03  d E =0.122177E-03  mag=    26.0649
quench:  g(F)=  0.000E+00 g(S)=  0.000E+00 dE (1.order)= 0.000E+00
 bond charge predicted
       N       E                     dE             d eps       ncg     rms          rms(c)
DAV:   1    -0.189188669765E+03    0.83976E-03   -0.46388E-02  1992   0.451E-01    0.157E-01
RMM:   2    -0.189195932576E+03   -0.72628E-02   -0.52913E-03  2001   0.210E-01    0.179E+00
RMM:   3    -0.189189844236E+03    0.60883E-02   -0.25347E-03  1983   0.158E-01    0.799E-01
RMM:   4    -0.189188863866E+03    0.98037E-03   -0.64517E-04  1822   0.762E-02    0.287E-01
RMM:   5    -0.189188779810E+03    0.84056E-04   -0.21917E-04  1165   0.454E-02
  52 F= -.18918878E+03 E0= -.18919567E+03  d E =0.675754E-03  mag=    26.0653
quench:  g(F)=  0.000E+00 g(S)=  0.000E+00 dE (1.order)= 0.000E+00
 bond charge predicted
       N       E                     dE             d eps       ncg     rms          rms(c)
DAV:   1    -0.189187822348E+03    0.10415E-02   -0.62871E-02  2040   0.518E-01    0.161E-01
RMM:   2    -0.189197044384E+03   -0.92220E-02   -0.57758E-03  2006   0.216E-01    0.199E+00
RMM:   3    -0.189188857330E+03    0.81871E-02   -0.26905E-03  1991   0.163E-01    0.820E-01
RMM:   4    -0.189187992651E+03    0.86468E-03   -0.63966E-04  1788   0.768E-02    0.229E-01
RMM:   5    -0.189188062900E+03   -0.70249E-04   -0.24802E-04  1220   0.487E-02
  53 F= -.18918806E+03 E0= -.18919487E+03  d E =0.716910E-03  mag=    26.0658
quench:  g(F)=  0.000E+00 g(S)=  0.000E+00 dE (1.order)= 0.000E+00
 bond charge predicted
       N       E                     dE             d eps       ncg     rms          rms(c)
DAV:   1    -0.189186868525E+03    0.11241E-02   -0.87340E-02  2040   0.614E-01    0.175E-01
RMM:   2    -0.189198087398E+03   -0.11219E-01   -0.72113E-03  2006   0.237E-01    0.222E+00
RMM:   3    -0.189188159955E+03    0.99274E-02   -0.28654E-03  2000   0.167E-01    0.854E-01
RMM:   4    -0.189187176779E+03    0.98318E-03   -0.98854E-04  1929   0.950E-02    0.299E-01
RMM:   5    -0.189187140415E+03    0.36364E-04   -0.36279E-04  1509   0.570E-02
  54 F= -.18918714E+03 E0= -.18919407E+03  d E =0.922485E-03  mag=    26.0664
quench:  g(F)=  0.000E+00 g(S)=  0.000E+00 dE (1.order)= 0.000E+00
 bond charge predicted
       N       E                     dE             d eps       ncg     rms          rms(c)
DAV:   1    -0.189185838532E+03    0.13382E-02   -0.11361E-01  2004   0.695E-01    0.220E-01
RMM:   2    -0.189206787967E+03   -0.20949E-01   -0.10718E-02  2006   0.292E-01    0.299E+00
RMM:   3    -0.189187606373E+03    0.19182E-01   -0.50753E-03  2011   0.223E-01    0.114E+00
RMM:   4    -0.189186094794E+03    0.15116E-02   -0.14056E-03  1968   0.114E-01    0.306E-01
RMM:   5    -0.189186313728E+03   -0.21893E-03   -0.48871E-04  1696   0.660E-02    0.325E-01
RMM:   6    -0.189186172535E+03    0.14119E-03   -0.26556E-04  1306   0.540E-02    0.198E-01
RMM:   7    -0.189186119396E+03    0.53139E-04   -0.13679E-04  1096   0.396E-02
  55 F= -.18918612E+03 E0= -.18919312E+03  d E =0.102102E-02  mag=    26.0675
quench:  g(F)=  0.000E+00 g(S)=  0.000E+00 dE (1.order)= 0.000E+00
 bond charge predicted
       N       E                     dE             d eps       ncg     rms          rms(c)
DAV:   1    -0.189184656422E+03    0.15161E-02   -0.14724E-01  2052   0.762E-01    0.163E-01
RMM:   2    -0.189190325235E+03   -0.56688E-02   -0.77504E-03  2005   0.217E-01    0.138E+00
RMM:   3    -0.189186272058E+03    0.40532E-02   -0.20962E-03  2005   0.142E-01    0.837E-01
RMM:   4    -0.189185114773E+03    0.11573E-02   -0.66124E-04  1821   0.770E-02    0.267E-01
RMM:   5    -0.189185289652E+03   -0.17488E-03   -0.37238E-04  1528   0.586E-02    0.309E-01
RMM:   6    -0.189185083625E+03    0.20603E-03   -0.22772E-04  1167   0.528E-02    0.153E-01
RMM:   7    -0.189185082249E+03    0.13766E-05   -0.10612E-04  1098   0.345E-02
  56 F= -.18918508E+03 E0= -.18919199E+03  d E =0.103715E-02  mag=    26.0692
quench:  g(F)=  0.000E+00 g(S)=  0.000E+00 dE (1.order)= 0.000E+00
 bond charge predicted
       N       E                     dE             d eps       ncg     rms          rms(c)
DAV:   1    -0.189183432008E+03    0.16516E-02   -0.17537E-01  1992   0.823E-01    0.177E-01
RMM:   2    -0.189190397156E+03   -0.69651E-02   -0.90962E-03  2013   0.236E-01    0.173E+00
RMM:   3    -0.189184520163E+03    0.58770E-02   -0.27688E-03  2002   0.163E-01    0.662E-01
RMM:   4    -0.189184013945E+03    0.50622E-03   -0.47776E-04  1689   0.651E-02    0.324E-01
RMM:   5    -0.189184172725E+03   -0.15878E-03   -0.43585E-04  1649   0.641E-02    0.315E-01
RMM:   6    -0.189183914460E+03    0.25827E-03   -0.24784E-04  1226   0.544E-02    0.119E-01
RMM:   7    -0.189183913504E+03    0.95521E-06   -0.84911E-05  1088   0.297E-02
  57 F= -.18918391E+03 E0= -.18919079E+03  d E =0.116874E-02  mag=    26.0715
quench:  g(F)=  0.000E+00 g(S)=  0.000E+00 dE (1.order)= 0.000E+00
 bond charge predicted
       N       E                     dE             d eps       ncg     rms          rms(c)
DAV:   1    -0.189182098429E+03    0.18160E-02   -0.20783E-01  2043   0.901E-01    0.199E-01
RMM:   2    -0.189189957373E+03   -0.78589E-02   -0.11639E-02  2007   0.272E-01    0.167E+00
RMM:   3    -0.189184051832E+03    0.59055E-02   -0.34544E-03  2015   0.184E-01    0.914E-01
RMM:   4    -0.189182837202E+03    0.12146E-02   -0.82860E-04  1903   0.854E-02    0.399E-01
RMM:   5    -0.189182836288E+03    0.91419E-06   -0.50822E-04  1710   0.671E-02
  58 F= -.18918284E+03 E0= -.18918968E+03  d E =0.107722E-02  mag=    26.0730
quench:  g(F)=  0.000E+00 g(S)=  0.000E+00 dE (1.order)= 0.000E+00
 bond charge predicted
       N       E                     dE             d eps       ncg     rms          rms(c)
DAV:   1    -0.189180871381E+03    0.19658E-02   -0.20864E-01  1992   0.931E-01    0.253E-01
RMM:   2    -0.189196474541E+03   -0.15603E-01   -0.16182E-02  2008   0.344E-01    0.255E+00
RMM:   3    -0.189184502540E+03    0.11972E-01   -0.59073E-03  2008   0.241E-01    0.127E+00
RMM:   4    -0.189181629061E+03    0.28735E-02   -0.15460E-03  1981   0.117E-01    0.434E-01
RMM:   5    -0.189181630431E+03   -0.13699E-05   -0.73556E-04  1864   0.801E-02
  59 F= -.18918163E+03 E0= -.18918868E+03  d E =0.120586E-02  mag=    26.0747
quench:  g(F)=  0.000E+00 g(S)=  0.000E+00 dE (1.order)= 0.000E+00
 bond charge predicted
       N       E                     dE             d eps       ncg     rms          rms(c)
DAV:   1    -0.189180065379E+03    0.15637E-02   -0.17774E-01  2055   0.880E-01    0.326E-01
RMM:   2    -0.189224081153E+03   -0.44016E-01   -0.24219E-02  2002   0.443E-01    0.408E+00
RMM:   3    -0.189186471856E+03    0.37609E-01   -0.10770E-02  2010   0.325E-01    0.193E+00
RMM:   4    -0.189180493030E+03    0.59788E-02   -0.40868E-03  1992   0.193E-01    0.485E-01
RMM:   5    -0.189180578769E+03   -0.85739E-04   -0.88882E-04  1928   0.870E-02
  60 F= -.18918058E+03 E0= -.18918728E+03  d E =0.105166E-02  mag=    26.0759
quench:  g(F)=  0.000E+00 g(S)=  0.000E+00 dE (1.order)= 0.000E+00
 bond charge predicted
       N       E                     dE             d eps       ncg     rms          rms(c)
DAV:   1    -0.189179638833E+03    0.85420E-03   -0.91001E-02  2076   0.674E-01    0.318E-01
RMM:   2    -0.189203221909E+03   -0.23583E-01   -0.21270E-02  2005   0.433E-01    0.313E+00
RMM:   3    -0.189182756939E+03    0.20465E-01   -0.11693E-02  1999   0.344E-01    0.128E+00
RMM:   4    -0.189180471350E+03    0.22856E-02   -0.16587E-03  1980   0.119E-01    0.617E-01
RMM:   5    -0.189179797569E+03    0.67378E-03   -0.64595E-04  1816   0.752E-02    0.205E-01
RMM:   6    -0.189180026675E+03   -0.22911E-03   -0.30136E-04  1356   0.528E-02    0.322E-01
RMM:   7    -0.189179787367E+03    0.23931E-03   -0.23188E-04  1131   0.533E-02    0.107E-01
RMM:   8    -0.189179853319E+03   -0.65952E-04   -0.10184E-04  1101   0.319E-02
  61 F= -.18917985E+03 E0= -.18918688E+03  d E =0.725450E-03  mag=    26.0791
quench:  g(F)=  0.000E+00 g(S)=  0.000E+00 dE (1.order)= 0.000E+00
 bond charge predicted
       N       E                     dE             d eps       ncg     rms          rms(c)
DAV:   1    -0.189178999002E+03    0.78837E-03   -0.70444E-02  1992   0.540E-01    0.115E-01
RMM:   2    -0.189185374844E+03   -0.63758E-02   -0.40560E-03  2008   0.158E-01    0.165E+00
RMM:   3    -0.189179221856E+03    0.61530E-02   -0.12096E-03  1973   0.108E-01    0.400E-01
RMM:   4    -0.189179204624E+03    0.17232E-04   -0.36942E-04  1531   0.592E-02
  62 F= -.18917920E+03 E0= -.18918613E+03  d E =0.648695E-03  mag=    26.0809
quench:  g(F)=  0.000E+00 g(S)=  0.000E+00 dE (1.order)= 0.000E+00
 bond charge predicted
       N       E                     dE             d eps       ncg     rms          rms(c)
DAV:   1    -0.189178328186E+03    0.89367E-03   -0.81428E-02  2052   0.606E-01    0.258E-01
RMM:   2    -0.189193055891E+03   -0.14728E-01   -0.13559E-02  2004   0.346E-01    0.247E+00
RMM:   3    -0.189178488964E+03    0.14567E-01   -0.81229E-03  2005   0.287E-01    0.517E-01
RMM:   4    -0.189178399616E+03    0.89349E-04   -0.85133E-04  1903   0.844E-02
  63 F= -.18917840E+03 E0= -.18918525E+03  d E =0.805009E-03  mag=    26.0828
quench:  g(F)=  0.000E+00 g(S)=  0.000E+00 dE (1.order)= 0.000E+00
 bond charge predicted
       N       E                     dE             d eps       ncg     rms          rms(c)
DAV:   1    -0.189177470738E+03    0.10182E-02   -0.10782E-01  2064   0.689E-01    0.284E-01
RMM:   2    -0.189208704187E+03   -0.31233E-01   -0.16753E-02  2003   0.381E-01    0.361E+00
RMM:   3    -0.189183085301E+03    0.25619E-01   -0.87393E-03  2011   0.294E-01    0.170E+00
RMM:   4    -0.189177430574E+03    0.56547E-02   -0.25112E-03  1979   0.153E-01    0.296E-01
RMM:   5    -0.189177707580E+03   -0.27701E-03   -0.60337E-04  1794   0.726E-02    0.261E-01
RMM:   6    -0.189177854923E+03   -0.14734E-03   -0.29630E-04  1393   0.544E-02    0.346E-01
RMM:   7    -0.189177571701E+03    0.28322E-03   -0.19837E-04  1125   0.495E-02    0.840E-02
RMM:   8    -0.189177613584E+03   -0.41884E-04   -0.66175E-05  1069   0.255E-02
  64 F= -.18917761E+03 E0= -.18918453E+03  d E =0.786031E-03  mag=    26.0860
quench:  g(F)=  0.000E+00 g(S)=  0.000E+00 dE (1.order)= 0.000E+00
 bond charge predicted
       N       E                     dE             d eps       ncg     rms          rms(c)
DAV:   1    -0.189176410510E+03    0.11612E-02   -0.13458E-01  1992   0.725E-01    0.150E-01
RMM:   2    -0.189184268782E+03   -0.78583E-02   -0.70936E-03  2013   0.207E-01    0.183E+00
RMM:   3    -0.189177181914E+03    0.70869E-02   -0.18437E-03  2000   0.132E-01    0.598E-01
RMM:   4    -0.189176837525E+03    0.34439E-03   -0.62596E-04  1783   0.759E-02    0.280E-01
RMM:   5    -0.189176947508E+03   -0.10998E-03   -0.35451E-04  1467   0.575E-02    0.262E-01
RMM:   6    -0.189176790499E+03    0.15701E-03   -0.19986E-04  1123   0.508E-02    0.120E-01
RMM:   7    -0.189176780275E+03    0.10224E-04   -0.61516E-05  1067   0.256E-02
  65 F= -.18917678E+03 E0= -.18918363E+03  d E =0.833309E-03  mag=    26.0895
quench:  g(F)=  0.000E+00 g(S)=  0.000E+00 dE (1.order)= 0.000E+00
 bond charge predicted
       N       E                     dE             d eps       ncg     rms          rms(c)
DAV:   1    -0.189175365465E+03    0.14250E-02   -0.16621E-01  2031   0.805E-01    0.166E-01
RMM:   2    -0.189182962026E+03   -0.75966E-02   -0.85771E-03  2007   0.225E-01    0.170E+00
RMM:   3    -0.189176715518E+03    0.62465E-02   -0.21184E-03  2006   0.141E-01    0.796E-01
RMM:   4    -0.189175896718E+03    0.81880E-03   -0.86662E-04  1905   0.888E-02    0.314E-01
RMM:   5    -0.189176040123E+03   -0.14341E-03   -0.42671E-04  1614   0.620E-02    0.326E-01
[...]
DAV:   1    -0.190003662669E+03   -0.27060E-03   -0.14184E-02  2148   0.258E-01    0.157E-01
RMM:   2    -0.190009658456E+03   -0.59958E-02   -0.49448E-03  2001   0.212E-01    0.154E+00
RMM:   3    -0.190003415378E+03    0.62431E-02   -0.32241E-03  1968   0.182E-01    0.195E-01
RMM:   4    -0.190003654079E+03   -0.23870E-03   -0.17194E-04  1151   0.396E-02    0.101E-01
RMM:   5    -0.190003712047E+03   -0.57969E-04   -0.76433E-05  1073   0.271E-02
 582 F= -.19000371E+03 E0= -.19001406E+03  d E =-.383093E-03  mag=    25.8820
quench:  g(F)=  0.000E+00 g(S)=  0.000E+00 dE (1.order)= 0.000E+00
 bond charge predicted
       N       E                     dE             d eps       ncg     rms          rms(c)
DAV:   1    -0.190004009519E+03   -0.35544E-03   -0.82053E-03  2445   0.236E-01    0.210E-01
RMM:   2    -0.190055036672E+03   -0.51027E-01   -0.89729E-03  1992   0.276E-01    0.472E+00
RMM:   3    -0.190001518835E+03    0.53518E-01   -0.72282E-03  1978   0.265E-01    0.489E-01
RMM:   4    -0.190003835655E+03   -0.23168E-02   -0.10232E-03  1945   0.994E-02    0.206E-01
RMM:   5    -0.190004111933E+03   -0.27628E-03   -0.33879E-04  1472   0.563E-02    0.256E-01
RMM:   6    -0.190004022171E+03    0.89762E-04   -0.16604E-04  1114   0.463E-02
 583 F= -.19000402E+03 E0= -.19001453E+03  d E =-.310124E-03  mag=    25.8816
quench:  g(F)=  0.000E+00 g(S)=  0.000E+00 dE (1.order)= 0.000E+00
 bond charge predicted
       N       E                     dE             d eps       ncg     rms          rms(c)
DAV:   1    -0.190004212692E+03   -0.10076E-03   -0.10634E-02  2043   0.230E-01    0.343E-02
RMM:   2    -0.190004299573E+03   -0.86881E-04   -0.40715E-04  1264   0.442E-02
 584 F= -.19000430E+03 E0= -.19001460E+03  d E =-.277402E-03  mag=    25.8816
quench:  g(F)=  0.000E+00 g(S)=  0.000E+00 dE (1.order)= 0.000E+00
 bond charge predicted
       N       E                     dE             d eps       ncg     rms          rms(c)
DAV:   1    -0.190004539783E+03   -0.32709E-03   -0.13630E-02  1992   0.253E-01    0.104E-01
RMM:   2    -0.190017429356E+03   -0.12890E-01   -0.23535E-03  2000   0.140E-01    0.235E+00
RMM:   3    -0.190003748014E+03    0.13681E-01   -0.17601E-03  1951   0.130E-01    0.128E-01
RMM:   4    -0.190004551677E+03   -0.80366E-03   -0.22718E-04  1233   0.486E-02    0.129E-01
RMM:   5    -0.190004599082E+03   -0.47405E-04   -0.78549E-05  1104   0.314E-02
 585 F= -.19000460E+03 E0= -.19001498E+03  d E =-.299509E-03  mag=    25.8815
quench:  g(F)=  0.000E+00 g(S)=  0.000E+00 dE (1.order)= 0.000E+00
 bond charge predicted
       N       E                     dE             d eps       ncg     rms          rms(c)
DAV:   1    -0.190004820604E+03   -0.26893E-03   -0.17794E-02  2031   0.268E-01    0.538E-02
RMM:   2    -0.190005216089E+03   -0.39548E-03   -0.85274E-04  1700   0.690E-02    0.385E-01
RMM:   3    -0.190004855924E+03    0.36016E-03   -0.23135E-04  1178   0.509E-02    0.700E-02
RMM:   4    -0.190004911703E+03   -0.55779E-04   -0.67095E-05  1063   0.259E-02
 586 F= -.19000491E+03 E0= -.19001530E+03  d E =-.312622E-03  mag=    25.8816
quench:  g(F)=  0.000E+00 g(S)=  0.000E+00 dE (1.order)= 0.000E+00
 bond charge predicted
       N       E                     dE             d eps       ncg     rms          rms(c)
DAV:   1    -0.190005221512E+03   -0.36559E-03   -0.22288E-02  1992   0.318E-01    0.193E-01
RMM:   2    -0.190047930515E+03   -0.42709E-01   -0.78676E-03  1998   0.256E-01    0.433E+00
RMM:   3    -0.190002970577E+03    0.44960E-01   -0.60143E-03  1990   0.241E-01    0.339E-01
RMM:   4    -0.190005131665E+03   -0.21611E-02   -0.96403E-04  1961   0.961E-02    0.176E-01
RMM:   5    -0.190005414845E+03   -0.28318E-03   -0.27090E-04  1339   0.508E-02    0.297E-01
RMM:   6    -0.190005210659E+03    0.20419E-03   -0.16344E-04  1102   0.469E-02    0.684E-02
RMM:   7    -0.190005213974E+03   -0.33153E-05   -0.20055E-05  1065   0.147E-02
 587 F= -.19000521E+03 E0= -.19001561E+03  d E =-.302270E-03  mag=    25.8813
quench:  g(F)=  0.000E+00 g(S)=  0.000E+00 dE (1.order)= 0.000E+00
 bond charge predicted
       N       E                     dE             d eps       ncg     rms          rms(c)
DAV:   1    -0.190005527126E+03   -0.31647E-03   -0.27099E-02  2016   0.311E-01    0.864E-02
RMM:   2    -0.190007092378E+03   -0.15653E-02   -0.19021E-03  2006   0.115E-01    0.806E-01
RMM:   3    -0.190005699766E+03    0.13926E-02   -0.76863E-04  1808   0.867E-02    0.297E-01
RMM:   4    -0.190005605856E+03    0.93909E-04   -0.96205E-05  1115   0.301E-02
 588 F= -.19000561E+03 E0= -.19001605E+03  d E =-.391882E-03  mag=    25.8814
quench:  g(F)=  0.000E+00 g(S)=  0.000E+00 dE (1.order)= 0.000E+00
 bond charge predicted
       N       E                     dE             d eps       ncg     rms          rms(c)
DAV:   1    -0.190005976030E+03   -0.27626E-03   -0.30536E-02  2061   0.362E-01    0.129E-01
RMM:   2    -0.190012143718E+03   -0.61677E-02   -0.35376E-03  1999   0.172E-01    0.159E+00
RMM:   3    -0.190006893203E+03    0.52505E-02   -0.16934E-03  1983   0.129E-01    0.703E-01
RMM:   4    -0.190006019693E+03    0.87351E-03   -0.49453E-04  1704   0.680E-02    0.168E-01
RMM:   5    -0.190006051303E+03   -0.31610E-04   -0.12537E-04  1107   0.345E-02
 589 F= -.19000605E+03 E0= -.19001642E+03  d E =-.445447E-03  mag=    25.8813
quench:  g(F)=  0.000E+00 g(S)=  0.000E+00 dE (1.order)= 0.000E+00
 bond charge predicted
       N       E                     dE             d eps       ncg     rms          rms(c)
DAV:   1    -0.190006439736E+03   -0.42004E-03   -0.30506E-02  1992   0.347E-01    0.112E-01
RMM:   2    -0.190008447055E+03   -0.20073E-02   -0.30160E-03  2010   0.155E-01    0.814E-01
RMM:   3    -0.190006569246E+03    0.18778E-02   -0.14002E-03  1976   0.119E-01    0.276E-01
RMM:   4    -0.190006554408E+03    0.14838E-04   -0.11666E-04  1121   0.318E-02
 590 F= -.19000655E+03 E0= -.19001698E+03  d E =-.503105E-03  mag=    25.8813
quench:  g(F)=  0.000E+00 g(S)=  0.000E+00 dE (1.order)= 0.000E+00
 bond charge predicted
       N       E                     dE             d eps       ncg     rms          rms(c)
DAV:   1    -0.190006838273E+03   -0.26903E-03   -0.18704E-02  2160   0.305E-01    0.147E-01
RMM:   2    -0.190020129289E+03   -0.13291E-01   -0.43311E-03  1998   0.192E-01    0.240E+00
RMM:   3    -0.190007281186E+03    0.12848E-01   -0.26088E-03  1977   0.159E-01    0.677E-01
RMM:   4    -0.190006863602E+03    0.41758E-03   -0.61245E-04  1760   0.763E-02    0.167E-01
RMM:   5    -0.190006914982E+03   -0.51380E-04   -0.17908E-04  1117   0.413E-02
 591 F= -.19000691E+03 E0= -.19001726E+03  d E =-.360575E-03  mag=    25.8811
quench:  g(F)=  0.000E+00 g(S)=  0.000E+00 dE (1.order)= 0.000E+00
 bond charge predicted
       N       E                     dE             d eps       ncg     rms          rms(c)
DAV:   1    -0.190007109390E+03   -0.24579E-03   -0.74439E-03  2190   0.207E-01    0.101E-01
RMM:   2    -0.190009851560E+03   -0.27422E-02   -0.21243E-03  1996   0.137E-01    0.108E+00
RMM:   3    -0.190007445723E+03    0.24058E-02   -0.12182E-03  1900   0.110E-01    0.450E-01
RMM:   4    -0.190007118883E+03    0.32684E-03   -0.14429E-04  1140   0.371E-02    0.117E-01
RMM:   5    -0.190007132116E+03   -0.13233E-04   -0.56993E-05  1081   0.234E-02
 592 F= -.19000713E+03 E0= -.19001752E+03  d E =-.217134E-03  mag=    25.8810
quench:  g(F)=  0.000E+00 g(S)=  0.000E+00 dE (1.order)= 0.000E+00
 bond charge predicted
       N       E                     dE             d eps       ncg     rms          rms(c)
DAV:   1    -0.190007367543E+03   -0.24866E-03   -0.67602E-03  2061   0.181E-01    0.101E-01
RMM:   2    -0.190009803397E+03   -0.24359E-02   -0.20331E-03  1994   0.137E-01    0.989E-01
RMM:   3    -0.190007358518E+03    0.24449E-02   -0.12633E-03  1937   0.114E-01    0.239E-01
RMM:   4    -0.190007423520E+03   -0.65002E-04   -0.11388E-04  1125   0.325E-02
 593 F= -.19000742E+03 E0= -.19001770E+03  d E =-.291404E-03  mag=    25.8810
quench:  g(F)=  0.000E+00 g(S)=  0.000E+00 dE (1.order)= 0.000E+00
 bond charge predicted
       N       E                     dE             d eps       ncg     rms          rms(c)
DAV:   1    -0.190007586783E+03   -0.22826E-03   -0.96044E-03  2019   0.224E-01    0.656E-02
RMM:   2    -0.190010025721E+03   -0.24389E-02   -0.92900E-04  1960   0.879E-02    0.102E+00
RMM:   3    -0.190007624468E+03    0.24013E-02   -0.46334E-04  1663   0.675E-02    0.280E-01
RMM:   4    -0.190007609275E+03    0.15192E-04   -0.11669E-04  1137   0.349E-02
 594 F= -.19000761E+03 E0= -.19001798E+03  d E =-.185755E-03  mag=    25.8809
quench:  g(F)=  0.000E+00 g(S)=  0.000E+00 dE (1.order)= 0.000E+00
 bond charge predicted
       N       E                     dE             d eps       ncg     rms          rms(c)
DAV:   1    -0.190007865265E+03   -0.24080E-03   -0.12449E-02  1992   0.235E-01    0.101E-01
RMM:   2    -0.190010420524E+03   -0.25553E-02   -0.20559E-03  2000   0.135E-01    0.103E+00
RMM:   3    -0.190008156566E+03    0.22640E-02   -0.11535E-03  1920   0.108E-01    0.429E-01
RMM:   4    -0.190007906604E+03    0.24996E-03   -0.14931E-04  1143   0.378E-02    0.157E-01
RMM:   5    -0.190007884123E+03    0.22481E-04   -0.73065E-05  1075   0.263E-02
 595 F= -.19000788E+03 E0= -.19001824E+03  d E =-.274848E-03  mag=    25.8808
quench:  g(F)=  0.000E+00 g(S)=  0.000E+00 dE (1.order)= 0.000E+00
 bond charge predicted
       N       E                     dE             d eps       ncg     rms          rms(c)
DAV:   1    -0.190008151241E+03   -0.24464E-03   -0.16080E-02  1992   0.260E-01    0.118E-01
RMM:   2    -0.190011607179E+03   -0.34559E-02   -0.28505E-03  2003   0.159E-01    0.116E+00
RMM:   3    -0.190008642053E+03    0.29651E-02   -0.16510E-03  1967   0.129E-01    0.541E-01
RMM:   4    -0.190008160541E+03    0.48151E-03   -0.19737E-04  1168   0.431E-02    0.142E-01
RMM:   5    -0.190008174862E+03   -0.14320E-04   -0.88257E-05  1089   0.292E-02
 596 F= -.19000817E+03 E0= -.19001856E+03  d E =-.290739E-03  mag=    25.8807
quench:  g(F)=  0.000E+00 g(S)=  0.000E+00 dE (1.order)= 0.000E+00
 bond charge predicted
       N       E                     dE             d eps       ncg     rms          rms(c)
DAV:   1    -0.190008463824E+03   -0.30328E-03   -0.19673E-02  2019   0.289E-01    0.137E-01
RMM:   2    -0.190012980765E+03   -0.45169E-02   -0.38066E-03  1997   0.184E-01    0.139E+00
RMM:   3    -0.190008397840E+03    0.45829E-02   -0.23183E-03  1977   0.154E-01    0.253E-01
RMM:   4    -0.190008500737E+03   -0.10290E-03   -0.22057E-04  1176   0.455E-02    0.146E-01
RMM:   5    -0.190008533599E+03   -0.32863E-04   -0.58944E-05  1077   0.231E-02
 597 F= -.19000853E+03 E0= -.19001895E+03  d E =-.358738E-03  mag=    25.8807
quench:  g(F)=  0.000E+00 g(S)=  0.000E+00 dE (1.order)= 0.000E+00
 bond charge predicted
       N       E                     dE             d eps       ncg     rms          rms(c)
DAV:   1    -0.190008809917E+03   -0.30918E-03   -0.22841E-02  1992   0.323E-01    0.149E-01
RMM:   2    -0.190017253824E+03   -0.84439E-02   -0.45239E-03  2003   0.200E-01    0.184E+00
RMM:   3    -0.190010270245E+03    0.69836E-02   -0.24482E-03  1974   0.155E-01    0.906E-01
RMM:   4    -0.190008767812E+03    0.15024E-02   -0.69625E-04  1840   0.804E-02    0.143E-01
RMM:   5    -0.190008859067E+03   -0.91256E-04   -0.14703E-04  1111   0.375E-02
 598 F= -.19000886E+03 E0= -.19001924E+03  d E =-.325468E-03  mag=    25.8806
quench:  g(F)=  0.000E+00 g(S)=  0.000E+00 dE (1.order)= 0.000E+00
 bond charge predicted
       N       E                     dE             d eps       ncg     rms          rms(c)
DAV:   1    -0.190009197219E+03   -0.42941E-03   -0.21425E-02  2004   0.316E-01    0.183E-01
RMM:   2    -0.190017992394E+03   -0.87952E-02   -0.66666E-03  1995   0.246E-01    0.196E+00
RMM:   3    -0.190009202897E+03    0.87895E-02   -0.42750E-03  1985   0.208E-01    0.410E-01
RMM:   4    -0.190009374307E+03   -0.17141E-03   -0.34270E-04  1472   0.553E-02    0.321E-01
RMM:   5    -0.190009190336E+03    0.18397E-03   -0.11889E-04  1111   0.336E-02    0.960E-02
RMM:   6    -0.190009255426E+03   -0.65090E-04   -0.84805E-05  1070   0.292E-02
 599 F= -.19000926E+03 E0= -.19001971E+03  d E =-.396358E-03  mag=    25.8805
quench:  g(F)=  0.000E+00 g(S)=  0.000E+00 dE (1.order)= 0.000E+00
 bond charge predicted
       N       E                     dE             d eps       ncg     rms          rms(c)
DAV:   1    -0.190009446415E+03   -0.25608E-03   -0.14976E-02  1992   0.254E-01    0.427E-02
RMM:   2    -0.190009630587E+03   -0.18417E-03   -0.66057E-04  1390   0.526E-02    0.237E-01
RMM:   3    -0.190009530704E+03    0.99883E-04   -0.10337E-04  1085   0.343E-02
 600 F= -.19000953E+03 E0= -.19001980E+03  d E =-.275279E-03  mag=    25.8805
quench:  g(F)=  0.000E+00 g(S)=  0.000E+00 dE (1.order)= 0.000E+00
 bond charge predicted
       N       E                     dE             d eps       ncg     rms          rms(c)
DAV:   1    -0.190009703797E+03   -0.73210E-04   -0.68352E-03  2145   0.195E-01    0.112E-01
RMM:   2    -0.190017355524E+03   -0.76517E-02   -0.23562E-03  1992   0.143E-01    0.188E+00
RMM:   3    -0.190009864554E+03    0.74910E-02   -0.16289E-03  1940   0.126E-01    0.521E-01
RMM:   4    -0.190009670561E+03    0.19399E-03   -0.28088E-04  1349   0.528E-02    0.676E-02
RMM:   5    -0.190009778278E+03   -0.10772E-03   -0.88812E-05  1101   0.297E-02    0.156E-01
RMM:   6    -0.190009716539E+03    0.61739E-04   -0.56181E-05  1063   0.273E-02
 601 F= -.19000972E+03 E0= -.19002007E+03  d E =-.185834E-03  mag=    25.8804
quench:  g(F)=  0.000E+00 g(S)=  0.000E+00 dE (1.order)= 0.000E+00
 bond charge predicted
       N       E                     dE             d eps       ncg     rms          rms(c)
DAV:   1    -0.190009886611E+03   -0.10833E-03   -0.51034E-03  2034   0.142E-01    0.565E-02
RMM:   2    -0.190010586892E+03   -0.70028E-03   -0.64076E-04  1785   0.741E-02    0.548E-01
RMM:   3    -0.190009864223E+03    0.72267E-03   -0.38810E-04  1552   0.654E-02    0.701E-02
RMM:   4    -0.190009896432E+03   -0.32208E-04   -0.38187E-05  1076   0.187E-02
 602 F= -.19000990E+03 E0= -.19002024E+03  d E =-.179893E-03  mag=    25.8804
quench:  g(F)=  0.000E+00 g(S)=  0.000E+00 dE (1.order)= 0.000E+00
 bond charge predicted
       N       E                     dE             d eps       ncg     rms          rms(c)
DAV:   1    -0.190010079926E+03   -0.21570E-03   -0.64999E-03  2058   0.170E-01    0.102E-01
RMM:   2    -0.190018970284E+03   -0.88904E-02   -0.21235E-03  1993   0.136E-01    0.196E+00
RMM:   3    -0.190009948935E+03    0.90213E-02   -0.14479E-03  1935   0.120E-01    0.382E-01
RMM:   4    -0.190010071336E+03   -0.12240E-03   -0.29805E-04  1400   0.545E-02    0.110E-01
RMM:   5    -0.190010097954E+03   -0.26618E-04   -0.89753E-05  1093   0.296E-02
 603 F= -.19001010E+03 E0= -.19002043E+03  d E =-.201522E-03  mag=    25.8803
quench:  g(F)=  0.000E+00 g(S)=  0.000E+00 dE (1.order)= 0.000E+00
 bond charge predicted
       N       E                     dE             d eps       ncg     rms          rms(c)
DAV:   1    -0.190010257276E+03   -0.18594E-03   -0.90208E-03  2016   0.205E-01    0.101E-01
RMM:   2    -0.190012896959E+03   -0.26397E-02   -0.20523E-03  1997   0.135E-01    0.108E+00
RMM:   3    -0.190010219570E+03    0.26774E-02   -0.13127E-03  1924   0.115E-01    0.203E-01
RMM:   4    -0.190010287475E+03   -0.67906E-04   -0.70036E-05  1107   0.250E-02
 604 F= -.19001029E+03 E0= -.19002069E+03  d E =-.189521E-03  mag=    25.8803
quench:  g(F)=  0.000E+00 g(S)=  0.000E+00 dE (1.order)= 0.000E+00
 bond charge predicted
       N       E                     dE             d eps       ncg     rms          rms(c)
DAV:   1    -0.190010428205E+03   -0.20864E-03   -0.11781E-02  2055   0.234E-01    0.786E-02
RMM:   2    -0.190012743639E+03   -0.23154E-02   -0.13069E-03  1998   0.105E-01    0.995E-01
RMM:   3    -0.190010706235E+03    0.20374E-02   -0.63405E-04  1814   0.794E-02    0.404E-01
RMM:   4    -0.190010450655E+03    0.25558E-03   -0.15304E-04  1145   0.392E-02    0.104E-01
RMM:   5    -0.190010464437E+03   -0.13782E-04   -0.64031E-05  1073   0.247E-02
 605 F= -.19001046E+03 E0= -.19002078E+03  d E =-.176962E-03  mag=    25.8802
quench:  g(F)=  0.000E+00 g(S)=  0.000E+00 dE (1.order)= 0.000E+00
 bond charge predicted
       N       E                     dE             d eps       ncg     rms          rms(c)
DAV:   1    -0.190010641841E+03   -0.19119E-03   -0.14777E-02  2031   0.244E-01    0.974E-02
RMM:   2    -0.190013014170E+03   -0.23723E-02   -0.20207E-03  2002   0.130E-01    0.101E+00
RMM:   3    -0.190010761443E+03    0.22527E-02   -0.11375E-03  1902   0.107E-01    0.320E-01
RMM:   4    -0.190010675084E+03    0.86359E-04   -0.96784E-05  1129   0.300E-02
 606 F= -.19001068E+03 E0= -.19002106E+03  d E =-.210647E-03  mag=    25.8802
quench:  g(F)=  0.000E+00 g(S)=  0.000E+00 dE (1.order)= 0.000E+00
 bond charge predicted
       N       E                     dE             d eps       ncg     rms          rms(c)
DAV:   1    -0.190010865425E+03   -0.10398E-03   -0.17734E-02  2016   0.282E-01    0.920E-02
RMM:   2    -0.190013135839E+03   -0.22704E-02   -0.18401E-03  2000   0.123E-01    0.969E-01
RMM:   3    -0.190011297917E+03    0.18379E-02   -0.83969E-04  1870   0.911E-02    0.472E-01
RMM:   4    -0.190010916182E+03    0.38174E-03   -0.18851E-04  1155   0.428E-02    0.148E-01
RMM:   5    -0.190010912402E+03    0.37807E-05   -0.83981E-05  1091   0.281E-02
 607 F= -.19001091E+03 E0= -.19002124E+03  d E =-.237317E-03  mag=    25.8802
quench:  g(F)=  0.000E+00 g(S)=  0.000E+00 dE (1.order)= 0.000E+00
 bond charge predicted
       N       E                     dE             d eps       ncg     rms          rms(c)
DAV:   1    -0.190011150523E+03   -0.23434E-03   -0.20173E-02  1992   0.284E-01    0.106E-01
RMM:   2    -0.190013418984E+03   -0.22685E-02   -0.24789E-03  2007   0.144E-01    0.929E-01
RMM:   3    -0.190011135754E+03    0.22832E-02   -0.13464E-03  1952   0.116E-01    0.164E-01
RMM:   4    -0.190011197478E+03   -0.61725E-04   -0.10855E-04  1108   0.315E-02
 608 F= -.19001120E+03 E0= -.19002156E+03  d E =-.285077E-03  mag=    25.8801
quench:  g(F)=  0.000E+00 g(S)=  0.000E+00 dE (1.order)= 0.000E+00
 bond charge predicted
       N       E                     dE             d eps       ncg     rms          rms(c)
DAV:   1    -0.190011498017E+03   -0.36226E-03   -0.18873E-02  2061   0.300E-01    0.210E-01
RMM:   2    -0.190064120241E+03   -0.52622E-01   -0.91005E-03  1996   0.274E-01    0.474E+00
RMM:   3    -0.190009281758E+03    0.54838E-01   -0.72324E-03  1989   0.265E-01    0.331E-01
RMM:   4    -0.190011403801E+03   -0.21220E-02   -0.94470E-04  1952   0.962E-02    0.196E-01
RMM:   5    -0.190011683417E+03   -0.27962E-03   -0.30436E-04  1402   0.544E-02    0.292E-01
RMM:   6    -0.190011474270E+03    0.20915E-03   -0.19179E-04  1109   0.501E-02    0.931E-02
RMM:   7    -0.190011466228E+03    0.80416E-05   -0.30700E-05  1068   0.181E-02
 609 F= -.19001147E+03 E0= -.19002176E+03  d E =-.268750E-03  mag=    25.8798
quench:  g(F)=  0.000E+00 g(S)=  0.000E+00 dE (1.order)= 0.000E+00
 bond charge predicted
       N       E                     dE             d eps       ncg     rms          rms(c)
DAV:   1    -0.190011645363E+03   -0.17109E-03   -0.99820E-03  2070   0.190E-01    0.830E-02
RMM:   2    -0.190013509317E+03   -0.18640E-02   -0.14690E-03  1995   0.110E-01    0.897E-01
RMM:   3    -0.190011782856E+03    0.17265E-02   -0.80662E-04  1853   0.901E-02    0.314E-01
RMM:   4    -0.190011675711E+03    0.10714E-03   -0.84666E-05  1119   0.285E-02    0.107E-01
RMM:   5    -0.190011675733E+03   -0.22359E-07   -0.41620E-05  1061   0.199E-02
 610 F= -.19001168E+03 E0= -.19002199E+03  d E =-.209505E-03  mag=    25.8797
quench:  g(F)=  0.000E+00 g(S)=  0.000E+00 dE (1.order)= 0.000E+00
 reached required accuracy - stopping structural energy minimisation
