 vasp.5.4.4.18Apr17-6-g9f103f2a35 (build Feb 06 2024 13:54:16) complex          
  
 POSCAR found type information on POSCAR  Cu Pd Cu N  O 
 05/POSCAR found :  5 types and      40 ions
 scaLAPACK will be used

 ----------------------------------------------------------------------------- 
|                                                                             |
|  ADVICE TO THIS USER RUNNING 'VASP/VAMP'   (HEAR YOUR MASTER'S VOICE ...):  |
|                                                                             |
|      You enforced a specific xc-type in the INCAR file,                     |
|      a different type was found on the POTCAR file                          |
|          I HOPE YOU KNOW, WHAT YOU ARE  DOING                               |
|                                                                             |
 ----------------------------------------------------------------------------- 

 LDA part: xc-table for Pade appr. of Perdew
 POSCAR found type information on POSCAR  Cu Pd Cu N  O 
 00/POSCAR found :  5 types and      40 ions
 POSCAR found type information on POSCAR  Cu Pd Cu N  O 
 06/POSCAR found :  5 types and      40 ions
 Jacobian:    19.9537150754471     
 POSCAR, INCAR and KPOINTS ok, starting setup
 FFT: planning ...
 WAVECAR not read
 entering main loop
       N       E                     dE             d eps       ncg     rms          rms(c)
  Solvation turned off during non-self-consistent phase (first NELMDL steps)
DAV:   1     0.429792657986E+04    0.42979E+04   -0.18018E+05 12096   0.211E+03
DAV:   2     0.667913208760E+03   -0.36300E+04   -0.34988E+04 12132   0.480E+02
DAV:   3    -0.237897879207E+02   -0.69170E+03   -0.63504E+03 13725   0.242E+02
DAV:   4    -0.150405898337E+03   -0.12662E+03   -0.11217E+03 20214   0.980E+01
DAV:   5    -0.165738960546E+03   -0.15333E+02   -0.14594E+02 19179   0.325E+01    0.454E+01
 Begin Solvation calculations
  rms_SCF =    8.34487547163936      tol =   0.834487547163935     
 Begin minimization
 Creating dielectric and ionic cavities
  area:      175.509193387147     
  volume:    657.387257545657     
  Acav:     9.214232652825231E-002
  Solving linear dielectric/ionic screening model
        iter                  A_solv                     rms
   LPB:       -0.384134869553550E+03   0.282318170359820E+03
   LPB:    0  -0.121746840324029E+02   0.545743064606636E+02  -0.514795E+01   0.000000E+00   0.280710E+02  -0.144508E+03
   LPB:    1  -0.186401090531871E+01   0.712649544429472E+01   0.976238E-02   0.000000E+00   0.707764E+02   0.358906E-14
   LPB:    2  -0.661002541694131E+00   0.123303848098391E+01   0.141144E-01   0.807000E-01   0.282138E+03   0.976179E-14
   LPB:    3  -0.422506584702433E+00   0.146593281512220E+01   0.256271E-01   0.109189E+00   0.567432E+03   0.347876E-13
   LPB:    4  -0.346745277221260E+00   0.104885938127005E+01   0.242691E-01   0.335438E+00   0.761920E+02   0.387284E-13
   LPB:    5  -0.306861211456692E+00   0.598106535899647E+00   0.236457E-01   0.540321E+00   0.430387E+03   0.309057E-13
  Finished solving LPB equations
  A_corr:   -0.214718884928439     
 End minimization
 Ecorr=   2008.85366317791     
 A_corr= -0.214718884928439     
 Ecorr_band=  -2009.06838206284     
 End Solvation calculations
RMM:   6    -0.168075772907E+03   -0.23368E+01   -0.38258E+02 12238   0.984E+01    0.441E+01
 Begin Solvation calculations
  rms_SCF =    8.34487547163936      tol =   0.834487547163935     
 Begin minimization
 Creating dielectric and ionic cavities
  area:      182.891176787210     
  volume:    669.271892642234     
  Acav:     9.601786781328508E-002
  Solving linear dielectric/ionic screening model
        iter                  A_solv                     rms
   LPB:       -0.337912069799290E+02   0.111435349425473E+03
   LPB:    0  -0.329172855798499E+02   0.110217843267522E+03   0.252044E+00   0.000000E+00   0.275138E+02   0.693468E+01
   LPB:    1  -0.295718290117693E+01   0.996511191428425E+01   0.892389E-02   0.000000E+00   0.619005E+02   0.406800E-15
   LPB:    2  -0.739465635906562E+00   0.250579370807880E+01   0.155332E-01   0.425261E-01   0.123703E+03  -0.369516E-14
   LPB:    3  -0.423332158043458E+00   0.991088566825249E+00   0.228231E-01   0.970178E-01   0.100803E+03  -0.264623E-14
   LPB:    4  -0.343968803048249E+00   0.963120503032722E+00   0.245091E-01   0.233774E+00   0.272774E+03  -0.126440E-14
   LPB:    5  -0.310817644240331E+00   0.533291737360069E+00   0.234379E-01   0.436805E+00   0.994234E+02  -0.647928E-15
  Finished solving LPB equations
  A_corr:   -0.214799776427045     
 End minimization
 Ecorr=   1912.24516035991     
 A_corr= -0.214799776427045     
 Ecorr_band=  -1912.45996013634     
 End Solvation calculations
RMM:   7    -0.159473690981E+03    0.86021E+01   -0.11316E+02 12446   0.463E+01    0.253E+01
 Begin Solvation calculations
  rms_SCF =    8.34487547163936      tol =   0.834487547163935     
 Begin minimization
 Creating dielectric and ionic cavities
  area:      181.526408884693     
  volume:    670.597881740933     
  Acav:     9.530136466446373E-002
  Solving linear dielectric/ionic screening model
        iter                  A_solv                     rms
   LPB:       -0.136359201267500E+02   0.705814962015825E+02
   LPB:    0  -0.136085490820648E+02   0.705127260930453E+02   0.446557E-01   0.000000E+00   0.274516E+02   0.122587E+01
   LPB:    1  -0.135418634927957E+01   0.660367199662315E+01   0.897144E-02   0.000000E+00   0.612270E+02   0.166847E-16
   LPB:    2  -0.360907800244597E+00   0.121109094599375E+01   0.159691E-01   0.455368E-01   0.117837E+03  -0.412645E-14
   LPB:    3  -0.217625301763146E+00   0.406237807541954E+00   0.222099E-01   0.103719E+00   0.197859E+03  -0.357602E-14
   LPB:    4  -0.189339069662459E+00   0.209400359394868E+00   0.258649E-01   0.169519E+00   0.355164E+03  -0.166259E-14
  Finished solving LPB equations
  A_corr:   -9.403770499799555E-002
 End minimization
 Ecorr=   1892.78603890480     
 A_corr= -9.403770499799555E-002
 Ecorr_band=  -1892.88007660980     
 End Solvation calculations
RMM:   8    -0.142459709376E+03    0.17014E+02   -0.96409E+00 12311   0.133E+01    0.173E+01
 Begin Solvation calculations
  rms_SCF =    4.02028914640155      tol =   0.402028914640155     
 Begin minimization
 Creating dielectric and ionic cavities
  area:      169.923037937868     
  volume:    669.858279157479     
  Acav:     8.920959491738076E-002
  Solving linear dielectric/ionic screening model
        iter                  A_solv                     rms
   LPB:       -0.948543895928968E+00   0.166379880657208E+02
   LPB:    0  -0.938784569105891E+00   0.164178336962934E+02  -0.266481E-01   0.000000E+00   0.274863E+02  -0.732459E+00
   LPB:    1  -0.266491317030454E+00   0.175371350991054E+01   0.903549E-02   0.000000E+00   0.602667E+02  -0.371094E-16
   LPB:    2  -0.195169410137207E+00   0.362021319453751E+00   0.176360E-01   0.543519E-01   0.887766E+02  -0.611154E-14
   LPB:    3  -0.184526317203743E+00   0.183411682239657E+00   0.209727E-01   0.125485E+00   0.172101E+03  -0.327088E-14
   LPB:    4  -0.180461810876247E+00   0.134871099591501E+00   0.342254E-01   0.234016E+00   0.655583E+02   0.790884E-16
  Finished solving LPB equations
  A_corr:   -9.125221595886626E-002
 End minimization
 Ecorr=   1870.10478253809     
 A_corr= -9.125221595886626E-002
 Ecorr_band=  -1870.19603475405     
 End Solvation calculations
RMM:   9    -0.139296008245E+03    0.31637E+01   -0.40069E+00 12425   0.883E+00    0.112E+01
 Begin Solvation calculations
  rms_SCF =    4.02028914640155      tol =   0.402028914640155     
 Begin minimization
 Creating dielectric and ionic cavities
  area:      161.872492135230     
  volume:    665.717573037754     
  Acav:     8.498305837099590E-002
  Solving linear dielectric/ionic screening model
        iter                  A_solv                     rms
   LPB:       -0.193479531159498E+01   0.229307618989339E+02
   LPB:    0  -0.183033370092963E+01   0.214526106284582E+02  -0.868774E-01   0.000000E+00   0.276804E+02  -0.240480E+01
   LPB:    1  -0.437892865155524E+00   0.257125563926621E+01   0.956608E-02   0.000000E+00   0.633938E+02  -0.440339E-16
   LPB:    2  -0.297642905837841E+00   0.460384368666884E+00   0.143728E-01   0.670377E-01   0.148757E+03  -0.875380E-15
   LPB:    3  -0.267946112984582E+00   0.546233325172216E+00   0.261582E-01   0.116343E+00   0.343877E+03  -0.146963E-15
   LPB:    4  -0.256521387853013E+00   0.399129128108665E+00   0.251297E-01   0.400457E+00   0.630773E+02   0.317257E-16
  Finished solving LPB equations
  A_corr:   -0.171538329482017     
 End minimization
 Ecorr=   1833.46147388249     
 A_corr= -0.171538329482017     
 Ecorr_band=  -1833.63301221197     
 End Solvation calculations
RMM:  10    -0.136849171436E+03    0.24468E+01   -0.55532E+00 12259   0.634E+00    0.758E+00
 Begin Solvation calculations
  rms_SCF =    3.74496456033589      tol =   0.374496456033589     
 Begin minimization
 Creating dielectric and ionic cavities
  area:      170.982853695285     
  volume:    667.888000108540     
  Acav:     8.976599819002481E-002
  Solving linear dielectric/ionic screening model
        iter                  A_solv                     rms
   LPB:       -0.351366611433123E+00   0.549328640737178E+01
   LPB:    0  -0.288119869974705E+00   0.251816740632252E+01   0.677248E-01   0.000000E+00   0.275787E+02   0.186776E+01
   LPB:    1  -0.248656687186581E+00   0.528676859336479E+00   0.115043E-01   0.000000E+00   0.711682E+02  -0.813914E-16
   LPB:    2  -0.240532748286378E+00   0.338286490579205E+00   0.197730E-01   0.119774E+00   0.392199E+03  -0.221914E-14
   LPB:    3  -0.236966236415027E+00   0.332852636981103E+00   0.232052E-01   0.374080E+00   0.121657E+03  -0.348820E-14
   LPB:    4  -0.233828689460052E+00   0.297299639830185E+00   0.279949E-01   0.729210E+00   0.125144E+03  -0.434564E-14
  Finished solving LPB equations
  A_corr:   -0.144062691270027     
 End minimization
 Ecorr=   1812.07839886118     
 A_corr= -0.144062691270027     
 Ecorr_band=  -1812.22246155245     
 End Solvation calculations
RMM:  11    -0.135808531794E+03    0.10406E+01   -0.10483E+00 12303   0.295E+00    0.506E+00
 Begin Solvation calculations
  rms_SCF =    2.13948230713477      tol =   0.213948230713477     
 Begin minimization
 Creating dielectric and ionic cavities
  area:      162.733156707645     
  volume:    667.638513712289     
  Acav:     8.543490727151343E-002
  Solving linear dielectric/ionic screening model
        iter                  A_solv                     rms
   LPB:       -0.268605449269794E+00   0.287168711491915E+01
   LPB:    0  -0.245230121229931E+00   0.134160454333356E+01   0.411638E-01   0.000000E+00   0.275904E+02   0.113572E+01
   LPB:    1  -0.230369323248352E+00   0.488248042385980E+00   0.130960E-01   0.000000E+00   0.900180E+02  -0.658491E-16
   LPB:    2  -0.227827697125916E+00   0.153893277036458E+00   0.149066E-01   0.150255E+00   0.209169E+03  -0.866278E-15
   LPB:    3  -0.225648950416288E+00   0.131065884488446E+00   0.373878E-01   0.341776E+00   0.239855E+03  -0.986679E-15
   LPB:    4  -0.223608629690587E+00   0.269943812839712E+00   0.351361E-01   0.996478E+00   0.230612E+03  -0.140150E-14
   LPB:    5  -0.222015200253155E+00   0.125325425769391E+00   0.267427E-01   0.102609E+01   0.308472E+02  -0.201063E-14
  Finished solving LPB equations
  A_corr:   -0.136580292981642     
 End minimization
 Ecorr=   1789.53317235796     
 A_corr= -0.136580292981642     
 Ecorr_band=  -1789.66975265094     
 End Solvation calculations
RMM:  12    -0.135673384922E+03    0.13515E+00   -0.32263E-01 12568   0.139E+00    0.365E+00
 Begin Solvation calculations
  rms_SCF =   0.745884066694017      tol =   7.458840666940170E-002
 Begin minimization
 Creating dielectric and ionic cavities
  area:      145.454069214444     
  volume:    666.071805128353     
  Acav:     7.636338633758304E-002
  Solving linear dielectric/ionic screening model
        iter                  A_solv                     rms
   LPB:       -0.241397093468238E+00   0.102629953108392E+01
   LPB:    0  -0.236984042732107E+00   0.724817185958478E+00   0.178619E-01   0.000000E+00   0.276638E+02   0.494129E+00
   LPB:    1  -0.230850000836218E+00   0.416071345773254E+00   0.126781E-01   0.000000E+00   0.139566E+03   0.204597E-17
   LPB:    2  -0.229637706120925E+00   0.965701032859005E-01   0.152795E-01   0.163987E+00   0.723327E+02   0.134723E-15
   LPB:    3  -0.228842125548095E+00   0.657779035311547E-01   0.315450E-01   0.317873E+00   0.905439E+02   0.121349E-15
   LPB:    4  -0.228065595068946E+00   0.105172785300806E+00   0.456376E-01   0.674655E+00   0.145822E+03   0.202242E-15
   LPB:    5  -0.227397962130888E+00   0.125267187286188E+00   0.340778E-01   0.115141E+01   0.352400E+02   0.372825E-15
   LPB:    6  -0.226756800506142E+00   0.823640971212732E-01   0.312510E-01   0.104722E+01   0.139138E+03   0.198501E-14
   LPB:    7  -0.226296930685064E+00   0.346902810317519E-01   0.315201E-01   0.711122E+00   0.499161E+02   0.239582E-14
  Finished solving LPB equations
  A_corr:   -0.149933544347481     
 End minimization
 Ecorr=   1766.89918536219     
 A_corr= -0.149933544347481     
 Ecorr_band=  -1767.04911890653     
 End Solvation calculations
RMM:  13    -0.135689186416E+03   -0.15801E-01   -0.28356E-01 12302   0.230E+00    0.334E+00
 Begin Solvation calculations
  rms_SCF =   0.745884066694017      tol =   7.458840666940170E-002
 Begin minimization
 Creating dielectric and ionic cavities
  area:      145.280064315899     
  volume:    661.180548739288     
  Acav:     7.627203376584693E-002
  Solving linear dielectric/ionic screening model
        iter                  A_solv                     rms
   LPB:       -0.374672134758502E+00   0.267486386989437E+01
   LPB:    0  -0.374619981679134E+00   0.275774076301986E+01   0.193378E-02   0.000000E+00   0.278931E+02   0.539391E-01
   LPB:    1  -0.281390263901636E+00   0.823341475768830E+00   0.161728E-01   0.000000E+00   0.611231E+02   0.101862E-17
   LPB:    2  -0.269236019410435E+00   0.331197120268407E+00   0.160440E-01   0.131416E+00   0.158774E+03   0.637330E-14
   LPB:    3  -0.265624780850391E+00   0.211317924965794E+00   0.221772E-01   0.214948E+00   0.106254E+03   0.879286E-14
   LPB:    4  -0.264131757089551E+00   0.227809683125121E+00   0.266135E-01   0.344520E+00   0.167871E+03   0.123100E-13
   LPB:    5  -0.263374400478227E+00   0.142070331719841E+00   0.207720E-01   0.649917E+00   0.129227E+03   0.138285E-13
   LPB:    6  -0.262682546732588E+00   0.512099936904407E-01   0.280008E-01   0.677675E+00   0.154315E+03   0.146648E-13
  Finished solving LPB equations
  A_corr:   -0.186410512966741     
 End minimization
 Ecorr=   1735.66933181986     
 A_corr= -0.186410512966741     
 Ecorr_band=  -1735.85574233283     
 End Solvation calculations
RMM:  14    -0.135606603053E+03    0.82583E-01   -0.12108E-01 12306   0.125E+00    0.250E+00
 Begin Solvation calculations
  rms_SCF =   0.745884066694017      tol =   7.458840666940170E-002
 Begin minimization
 Creating dielectric and ionic cavities
  area:      143.721590771454     
  volume:    658.432654679798     
  Acav:     7.545383515501347E-002
  Solving linear dielectric/ionic screening model
        iter                  A_solv                     rms
   LPB:       -0.330314292528161E+00   0.205389772540167E+01
   LPB:    0  -0.330180078411287E+00   0.192530894087856E+01  -0.309503E-02   0.000000E+00   0.280220E+02  -0.867288E-01
   LPB:    1  -0.296753872605066E+00   0.865486885620649E+00   0.133472E-01   0.000000E+00   0.689475E+02  -0.251818E-17
   LPB:    2  -0.291644241181742E+00   0.193497249067499E+00   0.141374E-01   0.144319E+00   0.802126E+02   0.155466E-14
   LPB:    3  -0.290143032642033E+00   0.155546922419621E+00   0.207443E-01   0.200226E+00   0.238002E+03   0.167261E-14
   LPB:    4  -0.289146111109656E+00   0.168227279802549E+00   0.291509E-01   0.472571E+00   0.625502E+02   0.170723E-14
   LPB:    5  -0.288103915924453E+00   0.105669022418645E+00   0.318627E-01   0.956442E+00   0.174222E+03   0.282533E-14
   LPB:    6  -0.287258695114785E+00   0.399805159478461E-01   0.358059E-01   0.721687E+00   0.811815E+02   0.279795E-14
  Finished solving LPB equations
  A_corr:   -0.211804859959772     
 End minimization
 Ecorr=   1713.61800183939     
 A_corr= -0.211804859959772     
 Ecorr_band=  -1713.82980669935     
 End Solvation calculations
RMM:  15    -0.135522107619E+03    0.84495E-01   -0.15721E-01 12291   0.145E+00    0.159E+00
 Begin Solvation calculations
  rms_SCF =   0.504617419070750      tol =   5.046174190707501E-002
 Begin minimization
 Creating dielectric and ionic cavities
  area:      141.993731876124     
  volume:    657.483546471121     
  Acav:     7.454670923496495E-002
  Solving linear dielectric/ionic screening model
        iter                  A_solv                     rms
   LPB:       -0.310161589054638E+00   0.100175610820023E+01
   LPB:    0  -0.310161090881610E+00   0.994918225070223E+00  -0.188413E-03   0.000000E+00   0.280664E+02  -0.528809E-02
   LPB:    1  -0.301804946736563E+00   0.466953465010363E+00   0.126977E-01   0.000000E+00   0.770170E+02  -0.190331E-19
   LPB:    2  -0.300413986897752E+00   0.854125773063596E-01   0.138322E-01   0.152806E+00   0.779096E+02   0.101325E-14
   LPB:    3  -0.300058301538455E+00   0.702728865894800E-01   0.209754E-01   0.168630E+00   0.266923E+03   0.119426E-14
   LPB:    4  -0.299760021045038E+00   0.978384275719550E-01   0.375390E-01   0.468583E+00   0.548566E+02   0.128848E-14
   LPB:    5  -0.299271168158934E+00   0.810153030545293E-01   0.403585E-01   0.152441E+01   0.108821E+03   0.114837E-14
   LPB:    6  -0.298796407640047E+00   0.303672788010192E-01   0.357294E-01   0.109700E+01   0.473450E+02   0.196766E-15
  Finished solving LPB equations
  A_corr:   -0.224249698405082     
 End minimization
 Ecorr=   1700.26159708288     
 A_corr= -0.224249698405082     
 Ecorr_band=  -1700.48584678128     
 End Solvation calculations
RMM:  16    -0.135508978531E+03    0.13129E-01   -0.95310E-02 12574   0.881E-01    0.865E-01
 Begin Solvation calculations
  rms_SCF =   0.504617419070750      tol =   5.046174190707501E-002
 Begin minimization
 Creating dielectric and ionic cavities
  area:      141.302796474953     
  volume:    657.179470747310     
  Acav:     7.418396814935051E-002
  Solving linear dielectric/ionic screening model
        iter                  A_solv                     rms
   LPB:       -0.302340549805724E+00   0.350955822820334E+00
   LPB:    0  -0.302246527564172E+00   0.232831408424587E+00  -0.258777E-02   0.000000E+00   0.280807E+02  -0.726665E-01
   LPB:    1  -0.301518010259087E+00   0.117788125638198E+00   0.144426E-01   0.000000E+00   0.875420E+02   0.552303E-17
   LPB:    2  -0.301402772499533E+00   0.345013672086042E-01   0.148571E-01   0.153768E+00   0.856539E+02   0.802636E-15
   LPB:    3  -0.301368033742857E+00   0.260653593879669E-01   0.212305E-01   0.210956E+00   0.309907E+03   0.908011E-15
   LPB:    4  -0.301311623818030E+00   0.515005633755828E-01   0.480026E-01   0.718187E+00   0.701498E+02   0.987541E-15
   LPB:    5  -0.301218741044105E+00   0.351005721227824E-01   0.357618E-01   0.221016E+01   0.199568E+03   0.113852E-14
  Finished solving LPB equations
  A_corr:   -0.227034772894754     
 End minimization
 Ecorr=   1698.29579393505     
 A_corr= -0.227034772894754     
 Ecorr_band=  -1698.52282870795     
 End Solvation calculations
RMM:  17    -0.135505099423E+03    0.38791E-02   -0.99413E-03 16026   0.230E-01    0.666E-01
 Begin Solvation calculations
  rms_SCF =   0.504617419070750      tol =   5.046174190707501E-002
 Begin minimization
 Creating dielectric and ionic cavities
  area:      141.124539338312     
  volume:    656.812405771741     
  Acav:     7.409038315261354E-002
  Solving linear dielectric/ionic screening model
        iter                  A_solv                     rms
   LPB:       -0.304591089980645E+00   0.497345639852796E+00
   LPB:    0  -0.304535580959766E+00   0.440442026973904E+00  -0.198774E-02   0.000000E+00   0.280979E+02  -0.558514E-01
   LPB:    1  -0.303363895835080E+00   0.112679649558659E+00   0.137950E-01   0.000000E+00   0.551202E+02   0.307861E-17
   LPB:    2  -0.303185086781246E+00   0.379961167151203E-01   0.132597E-01   0.158769E+00   0.221598E+03  -0.997801E-16
   LPB:    3  -0.303144703150378E+00   0.316425228613901E-01   0.211025E-01   0.141911E+00   0.123091E+03  -0.901101E-16
   LPB:    4  -0.303117683301539E+00   0.234990846597815E-01   0.258570E-01   0.546052E+00   0.839362E+02  -0.959972E-16
  Finished solving LPB equations
  A_corr:   -0.229027300148926     
 End minimization
 Ecorr=   1696.70836615009     
 A_corr= -0.229027300148926     
 Ecorr_band=  -1696.93739345024     
 End Solvation calculations
RMM:  18    -0.135501070545E+03    0.40289E-02   -0.24758E-03 12214   0.149E-01    0.514E-01
 Begin Solvation calculations
  rms_SCF =   0.477485516850450      tol =   4.774855168504501E-002
 Begin minimization
 Creating dielectric and ionic cavities
  area:      141.860984075355     
  volume:    655.444043028347     
  Acav:     7.447701663956154E-002
  Solving linear dielectric/ionic screening model
        iter                  A_solv                     rms
   LPB:       -0.336608375430403E+00   0.164934768165339E+01
   LPB:    0  -0.336236743190875E+00   0.148862370012953E+01  -0.513735E-02   0.000000E+00   0.281621E+02  -0.144678E+00
   LPB:    1  -0.317039312936616E+00   0.356321646677871E+00   0.151063E-01   0.000000E+00   0.634119E+02  -0.729933E-17
   LPB:    2  -0.314796672843004E+00   0.167828198829218E+00   0.139929E-01   0.126116E+00   0.197355E+03  -0.577271E-14
   LPB:    3  -0.314273341686521E+00   0.101678340842441E+00   0.190946E-01   0.171007E+00   0.917988E+02  -0.605068E-14
   LPB:    4  -0.314055374608513E+00   0.797027589112039E-01   0.208564E-01   0.381317E+00   0.139709E+03  -0.666532E-14
   LPB:    5  -0.313911154113600E+00   0.388573690223533E-01   0.250825E-01   0.550179E+00   0.124947E+03  -0.700528E-14
  Finished solving LPB equations
  A_corr:   -0.239434137474038     
 End minimization
 Ecorr=   1690.24089365088     
 A_corr= -0.239434137474038     
 Ecorr_band=  -1690.48032778836     
 End Solvation calculations
RMM:  19    -0.135501826183E+03   -0.75564E-03   -0.12952E-02 12324   0.280E-01    0.473E-01
 Begin Solvation calculations
  rms_SCF =   0.260065078485475      tol =   2.600650784854752E-002
 Begin minimization
 Creating dielectric and ionic cavities
  area:      142.915807059774     
  volume:    653.808259915596     
  Acav:     7.503079870638157E-002
  Solving linear dielectric/ionic screening model
        iter                  A_solv                     rms
   LPB:       -0.376565437895326E+00   0.222040742594417E+01
   LPB:    0  -0.375546203679363E+00   0.189363681821500E+01  -0.849629E-02   0.000000E+00   0.282388E+02  -0.239925E+00
   LPB:    1  -0.339376984990210E+00   0.530563018942369E+00   0.151290E-01   0.000000E+00   0.668087E+02  -0.114177E-16
   LPB:    2  -0.335102560308044E+00   0.154766287931982E+00   0.147512E-01   0.121205E+00   0.128604E+03  -0.110864E-14
   LPB:    3  -0.334065068049195E+00   0.629454185611079E-01   0.242899E-01   0.147404E+00   0.106154E+03  -0.150526E-14
   LPB:    4  -0.333517898824561E+00   0.714923265151835E-01   0.325110E-01   0.394033E+00   0.270776E+03  -0.101469E-14
   LPB:    5  -0.333201379854481E+00   0.113268145896364E+00   0.296858E-01   0.633518E+00   0.102883E+03  -0.102256E-14
   LPB:    6  -0.333006972532454E+00   0.754503759228190E-01   0.205933E-01   0.885394E+00   0.131045E+03  -0.123072E-14
   LPB:    7  -0.332822391801080E+00   0.262519092334589E-01   0.297015E-01   0.658295E+00   0.131260E+03  -0.136669E-14
   LPB:    8  -0.332686861972824E+00   0.151609694408836E-01   0.373353E-01   0.584127E+00   0.199926E+03  -0.149370E-14
  Finished solving LPB equations
  A_corr:   -0.257656063266442     
 End minimization
 Ecorr=   1677.66989932836     
 A_corr= -0.257656063266442     
 Ecorr_band=  -1677.92755539163     
 End Solvation calculations
RMM:  20    -0.135503313656E+03   -0.14875E-02   -0.86621E-03 12292   0.253E-01    0.454E-01
 Begin Solvation calculations
  rms_SCF =   0.232588239489623      tol =   2.325882394896228E-002
 Begin minimization
 Creating dielectric and ionic cavities
  area:      142.969544611468     
  volume:    653.645876141088     
  Acav:     7.505901092102060E-002
  Solving linear dielectric/ionic screening model
        iter                  A_solv                     rms
   LPB:       -0.337027440508837E+00   0.416882162637520E+00
   LPB:    0  -0.336995537749786E+00   0.367944726573842E+00  -0.150296E-02   0.000000E+00   0.282464E+02  -0.424532E-01
   LPB:    1  -0.335967433917926E+00   0.861852676291573E-01   0.151222E-01   0.000000E+00   0.542827E+02   0.148522E-18
   LPB:    2  -0.335822006808727E+00   0.403292832277077E-01   0.147711E-01   0.144814E+00   0.214380E+03   0.390026E-15
   LPB:    3  -0.335775423367173E+00   0.356832116741541E-01   0.221155E-01   0.213946E+00   0.106671E+03   0.362490E-15
   LPB:    4  -0.335744896740557E+00   0.306781840220947E-01   0.246649E-01   0.587576E+00   0.124401E+03   0.424085E-15
   LPB:    5  -0.335704363988221E+00   0.330053543607304E-01   0.397160E-01   0.824596E+00   0.142572E+03   0.480822E-15
   LPB:    6  -0.335636142111786E+00   0.155176199746025E-01   0.438340E-01   0.152501E+01   0.625068E+02   0.812561E-15
  Finished solving LPB equations
  A_corr:   -0.260577131190766     
 End minimization
 Ecorr=   1674.90123018477     
 A_corr= -0.260577131190766     
 Ecorr_band=  -1675.16180731596     
 End Solvation calculations
RMM:  21    -0.135501923543E+03    0.13901E-02   -0.80714E-04  9770   0.753E-02    0.357E-01
 Begin Solvation calculations
  rms_SCF =   0.232588239489623      tol =   2.325882394896228E-002
 Begin minimization
 Creating dielectric and ionic cavities
  area:      143.067296478688     
  volume:    653.481787729488     
  Acav:     7.511033065131142E-002
  Solving linear dielectric/ionic screening model
        iter                  A_solv                     rms
   LPB:       -0.340190392448714E+00   0.450810118580688E+00
   LPB:    0  -0.340103824653664E+00   0.362460716267427E+00  -0.247544E-02   0.000000E+00   0.282541E+02  -0.699413E-01
   LPB:    1  -0.339021472613388E+00   0.827069477739010E-01   0.151942E-01   0.000000E+00   0.573385E+02  -0.663648E-18
   LPB:    2  -0.338884244382319E+00   0.334107110598643E-01   0.145095E-01   0.132770E+00   0.196054E+03  -0.885600E-15
   LPB:    3  -0.338858555986003E+00   0.223984029081124E-01   0.191284E-01   0.141993E+00   0.100995E+03  -0.123971E-14
   LPB:    4  -0.338842728347651E+00   0.276204778941783E-01   0.264353E-01   0.445834E+00   0.130867E+03  -0.129289E-14
   LPB:    5  -0.338825453088874E+00   0.188820852486251E-01   0.297272E-01   0.970597E+00   0.841399E+02  -0.132671E-14
  Finished solving LPB equations
  A_corr:   -0.263715122437563     
 End minimization
 Ecorr=   1673.39595507854     
 A_corr= -0.263715122437563     
 Ecorr_band=  -1673.65967020098     
 End Solvation calculations
RMM:  22    -0.135501279175E+03    0.64437E-03   -0.53210E-04  8620   0.645E-02    0.279E-01
 Begin Solvation calculations
  rms_SCF =   0.232588239489623      tol =   2.325882394896228E-002
 Begin minimization
 Creating dielectric and ionic cavities
  area:      143.536442775519     
  volume:    653.045688424630     
  Acav:     7.535663245714770E-002
  Solving linear dielectric/ionic screening model
        iter                  A_solv                     rms
   LPB:       -0.375731310264056E+00   0.199756245442763E+01
   LPB:    0  -0.374473055250468E+00   0.170038737692437E+01  -0.943413E-02   0.000000E+00   0.282745E+02  -0.266745E+00
   LPB:    1  -0.354657650230309E+00   0.371143722239562E+00   0.146586E-01   0.000000E+00   0.538510E+02   0.580505E-17
   LPB:    2  -0.352267264283817E+00   0.155560988057980E+00   0.136919E-01   0.129149E+00   0.205777E+03   0.293867E-14
   LPB:    3  -0.351813179525285E+00   0.913410457651481E-01   0.178271E-01   0.145899E+00   0.104170E+03   0.193338E-14
   LPB:    4  -0.351629410894263E+00   0.715783451311953E-01   0.203668E-01   0.354235E+00   0.131461E+03   0.147422E-14
   LPB:    5  -0.351518752585045E+00   0.351713569767356E-01   0.251158E-01   0.488303E+00   0.108091E+03   0.117028E-14
   LPB:    6  -0.351441456179313E+00   0.138449879383565E-01   0.326491E-01   0.537343E+00   0.137605E+03   0.914492E-15
  Finished solving LPB equations
  A_corr:   -0.276084823722165     
 End minimization
 Ecorr=   1667.47393920175     
 A_corr= -0.276084823722165     
 Ecorr_band=  -1667.75002402547     
 End Solvation calculations
RMM:  23    -0.135502109494E+03   -0.83032E-03   -0.68813E-03 12176   0.180E-01    0.142E-01
 Begin Solvation calculations
  rms_SCF =   0.214399921137663      tol =   2.143999211376627E-002
 Begin minimization
 Creating dielectric and ionic cavities
  area:      143.788656205969     
  volume:    652.893227107833     
  Acav:     7.548904450813348E-002
  Solving linear dielectric/ionic screening model
        iter                  A_solv                     rms
   LPB:       -0.362845581075844E+00   0.915318296483446E+00
   LPB:    0  -0.362614595737569E+00   0.792667336820289E+00  -0.404161E-02   0.000000E+00   0.282817E+02  -0.114304E+00
   LPB:    1  -0.358195599845740E+00   0.160538474835669E+00   0.146655E-01   0.000000E+00   0.558308E+02  -0.607313E-17
   LPB:    2  -0.357684564850508E+00   0.763682780747958E-01   0.141288E-01   0.120038E+00   0.203068E+03   0.435513E-16
   LPB:    3  -0.357581207018028E+00   0.441955583322211E-01   0.181397E-01   0.157532E+00   0.892087E+02  -0.429326E-17
   LPB:    4  -0.357516133918138E+00   0.524813398931975E-01   0.266813E-01   0.428036E+00   0.109142E+03  -0.400470E-16
   LPB:    5  -0.357447472549544E+00   0.369499082030226E-01   0.309414E-01   0.909869E+00   0.726872E+02  -0.101332E-15
   LPB:    6  -0.357381693554299E+00   0.121445785127826E-01   0.336277E-01   0.881490E+00   0.807112E+02  -0.234116E-15
  Finished solving LPB equations
  A_corr:   -0.281892649046165     
 End minimization
 Ecorr=   1664.07789888157     
 A_corr= -0.281892649046165     
 Ecorr_band=  -1664.35979153061     
 End Solvation calculations
RMM:  24    -0.135502981676E+03   -0.87218E-03   -0.60963E-04  8459   0.758E-02    0.156E-01
 Begin Solvation calculations
  rms_SCF =   0.214399921137663      tol =   2.143999211376627E-002
 Begin minimization
 Creating dielectric and ionic cavities
  area:      143.963511467387     
  volume:    652.865822846891     
  Acav:     7.558084352037829E-002
  Solving linear dielectric/ionic screening model
        iter                  A_solv                     rms
   LPB:       -0.366499785072010E+00   0.953886782244139E+00
   LPB:    0  -0.366263310718839E+00   0.855542144785745E+00  -0.408926E-02   0.000000E+00   0.282829E+02  -0.115656E+00
   LPB:    1  -0.362543964770611E+00   0.183249224913326E+00   0.134755E-01   0.000000E+00   0.510970E+02   0.512243E-17
   LPB:    2  -0.362064942291356E+00   0.674043992980024E-01   0.128222E-01   0.135355E+00   0.214799E+03   0.138421E-15
   LPB:    3  -0.361982838398049E+00   0.268236520709311E-01   0.164099E-01   0.133925E+00   0.126838E+03   0.175403E-15
   LPB:    4  -0.361951016303934E+00   0.300883104533093E-01   0.258736E-01   0.245819E+00   0.960495E+02   0.148158E-15
   LPB:    5  -0.361920661134711E+00   0.252736916906185E-01   0.338054E-01   0.730087E+00   0.794315E+02   0.126020E-15
   LPB:    6  -0.361881459467970E+00   0.111116758989727E-01   0.409464E-01   0.106621E+01   0.590688E+02   0.115867E-15
  Finished solving LPB equations
  A_corr:   -0.286300615947592     
 End minimization
 Ecorr=   1661.85694839716     
 A_corr= -0.286300615947592     
 Ecorr_band=  -1662.14324901310     
 End Solvation calculations
RMM:  25    -0.135503146267E+03   -0.16459E-03   -0.43616E-04  7844   0.662E-02    0.126E-01
 Begin Solvation calculations
  rms_SCF =   0.170640188245456      tol =   1.706401882454560E-002
 Begin minimization
 Creating dielectric and ionic cavities
  area:      144.187763630627     
  volume:    652.906094888947     
  Acav:     7.569857590607917E-002
  Solving linear dielectric/ionic screening model
        iter                  A_solv                     rms
   LPB:       -0.379332354845688E+00   0.147283128485130E+01
   LPB:    0  -0.378527891432447E+00   0.127805167958902E+01  -0.754259E-02   0.000000E+00   0.282810E+02  -0.213312E+00
   LPB:    1  -0.370286266877157E+00   0.265951414533278E+00   0.134310E-01   0.000000E+00   0.505730E+02  -0.102449E-16
   LPB:    2  -0.369246347749575E+00   0.101193788627739E+00   0.128882E-01   0.131493E+00   0.213532E+03  -0.537860E-16
   LPB:    3  -0.369068730889886E+00   0.401862273434449E-01   0.162176E-01   0.135735E+00   0.123131E+03   0.280235E-17
   LPB:    4  -0.369009729371171E+00   0.381740897761226E-01   0.231362E-01   0.232848E+00   0.103243E+03   0.192779E-15
   LPB:    5  -0.368971886828919E+00   0.242297014394334E-01   0.275991E-01   0.537668E+00   0.939019E+02   0.293455E-15
   LPB:    6  -0.368936941242979E+00   0.967459637248207E-02   0.360578E-01   0.706819E+00   0.851255E+02   0.461618E-15
  Finished solving LPB equations
  A_corr:   -0.293238365336900     
 End minimization
 Ecorr=   1659.27484631219     
 A_corr= -0.293238365336900     
 Ecorr_band=  -1659.56808467753     
 End Solvation calculations
RMM:  26    -0.135503702549E+03   -0.55628E-03   -0.95668E-04 11065   0.704E-02    0.995E-02
 Begin Solvation calculations
  rms_SCF =   9.150069067066997E-002 tol =   9.150069067066998E-003
 Begin minimization
 Creating dielectric and ionic cavities
  area:      144.334635018518     
  volume:    653.011360854467     
  Acav:     7.577568338472213E-002
  Solving linear dielectric/ionic screening model
        iter                  A_solv                     rms
   LPB:       -0.382265747791520E+00   0.124464701524303E+01
   LPB:    0  -0.381581682958347E+00   0.105750526859045E+01  -0.695591E-02   0.000000E+00   0.282761E+02  -0.196686E+00
   LPB:    1  -0.375914362384068E+00   0.211908804862820E+00   0.134238E-01   0.000000E+00   0.504297E+02   0.839252E-17
   LPB:    2  -0.375221665717031E+00   0.874088653631055E-01   0.130324E-01   0.125897E+00   0.211500E+03   0.998822E-15
   LPB:    3  -0.375096754394657E+00   0.348762878628492E-01   0.162781E-01   0.144371E+00   0.112460E+03   0.108714E-14
   LPB:    4  -0.375048740986709E+00   0.363597165102732E-01   0.249045E-01   0.251238E+00   0.940833E+02   0.107718E-14
   LPB:    5  -0.375012145674012E+00   0.249198351871640E-01   0.294876E-01   0.643727E+00   0.873278E+02   0.118082E-14
   LPB:    6  -0.374975529570352E+00   0.999354533119018E-02   0.364964E-01   0.808417E+00   0.756950E+02   0.145640E-14
   LPB:    7  -0.374946671334344E+00   0.524219030305639E-02   0.377195E-01   0.762574E+00   0.138547E+03   0.180486E-14
  Finished solving LPB equations
  A_corr:   -0.299170987949622     
 End minimization
 Ecorr=   1656.89373946858     
 A_corr= -0.299170987949622     
 Ecorr_band=  -1657.19291045653     
 End Solvation calculations
RMM:  27    -0.135504019038E+03   -0.31649E-03   -0.28637E-04  7587   0.416E-02    0.513E-02
 Begin Solvation calculations
  rms_SCF =   9.150069067066997E-002 tol =   9.150069067066998E-003
 Begin minimization
 Creating dielectric and ionic cavities
  area:      144.364657995211     
  volume:    653.025800996371     
  Acav:     7.579144544748588E-002
  Solving linear dielectric/ionic screening model
        iter                  A_solv                     rms
   LPB:       -0.376980187595184E+00   0.355882384268054E+00
   LPB:    0  -0.376939664635022E+00   0.316684304977680E+00  -0.169302E-02   0.000000E+00   0.282754E+02  -0.478707E-01
   LPB:    1  -0.376521290863889E+00   0.636022742027270E-01   0.124742E-01   0.000000E+00   0.493692E+02   0.992346E-18
   LPB:    2  -0.376461782925551E+00   0.201955024451340E-01   0.130660E-01   0.135793E+00   0.196830E+03  -0.213420E-15
   LPB:    3  -0.376449924001490E+00   0.991908891551518E-02   0.185036E-01   0.140721E+00   0.150265E+03  -0.231652E-15
   LPB:    4  -0.376444270423030E+00   0.139647520364612E-01   0.301823E-01   0.292268E+00   0.964848E+02  -0.192735E-15
   LPB:    5  -0.376434230139108E+00   0.157429245640976E-01   0.481500E-01   0.111322E+01   0.899724E+02  -0.151229E-15
   LPB:    6  -0.376416650108493E+00   0.703274697346018E-02   0.459524E-01   0.183468E+01   0.498167E+02  -0.775029E-17
  Finished solving LPB equations
  A_corr:   -0.300625204661007     
 End minimization
 Ecorr=   1656.06675306514     
 A_corr= -0.300625204661007     
 Ecorr_band=  -1656.36737826980     
 End Solvation calculations
RMM:  28    -0.135504045566E+03   -0.26528E-04   -0.59333E-05  6974   0.317E-02
 Begin Solvation calculations
  rms_SCF =   9.150069067066997E-002 tol =   9.150069067066998E-003
 Begin minimization
 Creating dielectric and ionic cavities
  area:      144.379008732267     
  volume:    653.064062140518     
  Acav:     7.579897958443998E-002
  Solving linear dielectric/ionic screening model
        iter                  A_solv                     rms
   LPB:       -0.378197286924851E+00   0.412403601789376E+00
   LPB:    0  -0.378148895804299E+00   0.378711535844184E+00  -0.185015E-02   0.000000E+00   0.282736E+02  -0.523105E-01
   LPB:    1  -0.377660388979216E+00   0.648399633342751E-01   0.111604E-01   0.000000E+00   0.521838E+02   0.588202E-18
   LPB:    2  -0.377595098291583E+00   0.180786111670653E-01   0.130667E-01   0.114155E+00   0.168531E+03   0.272410E-15
   LPB:    3  -0.377585617206001E+00   0.579667453010890E-02   0.173278E-01   0.109503E+00   0.145015E+03   0.298521E-15
   LPB:    4  -0.377582779230839E+00   0.807114120697397E-02   0.298316E-01   0.173868E+00   0.930786E+02   0.286040E-15
  Finished solving LPB equations
  A_corr:   -0.301783799646399     
 End minimization
 Ecorr=   1655.72837811446     
 A_corr= -0.301783799646399     
 Ecorr_band=  -1656.03016191411     
 End Solvation calculations
   1 F= -.13550405E+03 E0= -.13550053E+03  d E =-.135504E+03
quench:  g(F)=  0.000E+00 g(S)=  0.000E+00 dE (1.order)= 0.000E+00
 bond charge predicted
       N       E                     dE             d eps       ncg     rms          rms(c)
 Begin Solvation calculations
  rms_SCF =   9.150069067066997E-002 tol =   9.150069067066998E-003
 Begin minimization
 Creating dielectric and ionic cavities
  area:      144.382617942421     
  volume:    653.066033289269     
  Acav:     7.580087441977104E-002
  Solving linear dielectric/ionic screening model
        iter                  A_solv                     rms
   LPB:       -0.377624404329936E+00   0.804581883930074E-02
   LPB:    0  -0.377624404328216E+00   0.803262922039318E-02   0.348775E-06   0.000000E+00   0.282735E+02   0.986112E-05
   LPB:    1  -0.377575214676381E+00   0.490754838360247E-02   0.155984E-01   0.000000E+00   0.451868E+04  -0.148457E-21
   LPB:    2  -0.377570398296691E+00   0.698055907800692E-02   0.257098E-01   0.594059E-01   0.482272E+03   0.297008E-16
   LPB:    3  -0.377568415780197E+00   0.779960877333345E-02   0.258126E-01   0.409980E+00   0.156729E+03   0.402521E-16
   LPB:    4  -0.377566585393787E+00   0.532750778635368E-02   0.299306E-01   0.796238E+00   0.125359E+03   0.600198E-16
  Finished solving LPB equations
  A_corr:   -0.301765710974016     
 End minimization
 Ecorr=   1655.70109484114     
 A_corr= -0.301765710974016     
 Ecorr_band=  -1656.00286055211     
 End Solvation calculations
DAV:   1    -0.135504072041E+03   -0.53003E-04   -0.31504E-03 10827   0.214E-01    0.326E-02
 Begin Solvation calculations
  rms_SCF =   5.247335324867141E-002 tol =   5.247335324867141E-003
 Begin minimization
 Creating dielectric and ionic cavities
  area:      144.363185906805     
  volume:    653.092945105883     
  Acav:     7.579067260107247E-002
  Solving linear dielectric/ionic screening model
        iter                  A_solv                     rms
   LPB:       -0.378509668991174E+00   0.397718368726714E+00
   LPB:    0  -0.378480369391705E+00   0.380425904287312E+00  -0.143968E-02   0.000000E+00   0.282723E+02  -0.407030E-01
   LPB:    1  -0.378096828299037E+00   0.436103675270087E-01   0.938445E-02   0.000000E+00   0.590142E+02  -0.193775E-17
   LPB:    2  -0.378059686422925E+00   0.107544861948101E-01   0.140188E-01   0.648262E-01   0.137864E+03  -0.138542E-15
   LPB:    3  -0.378054536185333E+00   0.315415907011586E-02   0.205605E-01   0.945453E-01   0.117932E+03  -0.130212E-15
   LPB:    4  -0.378052952873445E+00   0.433231912695062E-02   0.308147E-01   0.205124E+00   0.114836E+03  -0.132901E-15
  Finished solving LPB equations
  A_corr:   -0.302262280272373     
 End minimization
 Ecorr=   1655.60914778758     
 A_corr= -0.302262280272373     
 Ecorr_band=  -1655.91141006786     
 End Solvation calculations
RMM:   2    -0.135504237693E+03   -0.16565E-03   -0.45615E-04  8736   0.621E-02    0.608E-02
 Begin Solvation calculations
  rms_SCF =   5.247335324867141E-002 tol =   5.247335324867141E-003
 Begin minimization
 Creating dielectric and ionic cavities
  area:      144.365779992136     
  volume:    653.108623754938     
  Acav:     7.579203449587150E-002
  Solving linear dielectric/ionic screening model
        iter                  A_solv                     rms
   LPB:       -0.377953690208701E+00   0.156684309486468E+00
   LPB:    0  -0.377953686674727E+00   0.156694711310563E+00  -0.158115E-04   0.000000E+00   0.282716E+02  -0.447014E-03
   LPB:    1  -0.377893150476091E+00   0.142740574038206E-01   0.870033E-02   0.000000E+00   0.651346E+02   0.397276E-19
   LPB:    2  -0.377886764196418E+00   0.284118833899529E-02   0.189227E-01   0.485049E-01   0.113522E+03  -0.550693E-20
   LPB:    3  -0.377885680795486E+00   0.284672579871573E-02   0.263239E-01   0.121948E+00   0.289831E+03   0.354421E-17
   LPB:    4  -0.377884703073366E+00   0.249549719514720E-02   0.514672E-01   0.461580E+00   0.129193E+03   0.185983E-16
  Finished solving LPB equations
  A_corr:   -0.302092668577494     
 End minimization
 Ecorr=   1655.57029481005     
 A_corr= -0.302092668577494     
 Ecorr_band=  -1655.87238747863     
 End Solvation calculations
RMM:   3    -0.135504213367E+03    0.24326E-04   -0.18444E-04  6726   0.730E-02
 Begin Solvation calculations
  rms_SCF =   5.247335324867141E-002 tol =   5.247335324867141E-003
 Begin minimization
 Creating dielectric and ionic cavities
  area:      144.363511009464     
  volume:    653.130155876873     
  Acav:     7.579084327996873E-002
  Solving linear dielectric/ionic screening model
        iter                  A_solv                     rms
   LPB:       -0.377801931598304E+00   0.875231995586978E-01
   LPB:    0  -0.377801651531350E+00   0.868480131526020E-01   0.140760E-03   0.000000E+00   0.282705E+02   0.397936E-02
   LPB:    1  -0.377779728045810E+00   0.949202772227407E-02   0.954409E-02   0.000000E+00   0.637774E+02  -0.168146E-18
   LPB:    2  -0.377777511461227E+00   0.306454696638553E-02   0.141491E-01   0.681994E-01   0.229550E+03   0.144234E-16
   LPB:    3  -0.377776710003888E+00   0.197361518469342E-02   0.318867E-01   0.160441E+00   0.105505E+03   0.132061E-16
   LPB:    4  -0.377775983300320E+00   0.324891642462471E-02   0.467626E-01   0.618284E+00   0.262599E+03   0.137055E-16
  Finished solving LPB equations
  A_corr:   -0.301985140020351     
 End minimization
 Ecorr=   1655.51287654232     
 A_corr= -0.301985140020351     
 Ecorr_band=  -1655.81486168234     
 End Solvation calculations
   2 F= -.13550421E+03 E0= -.13550074E+03  d E =-.167801E-03
quench:  g(F)=  0.000E+00 g(S)=  0.000E+00 dE (1.order)= 0.000E+00
 bond charge predicted
       N       E                     dE             d eps       ncg     rms          rms(c)
 Begin Solvation calculations
  rms_SCF =   5.247335324867141E-002 tol =   5.247335324867141E-003
 Begin minimization
 Creating dielectric and ionic cavities
  area:      144.370660719488     
  volume:    653.129851665857     
  Acav:     7.579459687773103E-002
  Solving linear dielectric/ionic screening model
        iter                  A_solv                     rms
   LPB:       -0.377899319317819E+00   0.334122514736992E-02
   LPB:    0  -0.377899319317786E+00   0.334286808946898E-02   0.480784E-07   0.000000E+00   0.282706E+02   0.135920E-05
   LPB:    1  -0.377822071634864E+00   0.245552761541604E-02   0.156244E-01   0.000000E+00   0.422272E+05   0.793053E-22
   LPB:    2  -0.377814600932429E+00   0.383474874922299E-02   0.265655E-01   0.568802E-01   0.277523E+04   0.953725E-17
   LPB:    3  -0.377812141227201E+00   0.593509472632774E-02   0.300465E-01   0.291102E+00   0.345611E+03   0.470559E-16
   LPB:    4  -0.377810902126813E+00   0.585206111117464E-02   0.249132E-01   0.607558E+00   0.170861E+03   0.642694E-16
   LPB:    5  -0.377809803523526E+00   0.383100084194702E-02   0.299604E-01   0.737253E+00   0.172417E+03   0.515112E-16
  Finished solving LPB equations
  A_corr:   -0.302015206645795     
 End minimization
 Ecorr=   1655.47169612446     
 A_corr= -0.302015206645795     
 Ecorr_band=  -1655.77371133110     
 End Solvation calculations
DAV:   1    -0.135504239784E+03   -0.20910E-05   -0.52443E-03 14292   0.139E-01    0.402E-02
 Begin Solvation calculations
  rms_SCF =   5.247335324867141E-002 tol =   5.247335324867141E-003
 Begin minimization
 Creating dielectric and ionic cavities
  area:      144.363175026515     
  volume:    653.206759673982     
  Acav:     7.579066688892060E-002
  Solving linear dielectric/ionic screening model
        iter                  A_solv                     rms
   LPB:       -0.377973829684203E+00   0.445876210301441E+00
   LPB:    0  -0.377970178397311E+00   0.444404434285800E+00   0.508275E-03   0.000000E+00   0.282670E+02   0.143674E-01
   LPB:    1  -0.377436927268181E+00   0.427571534451761E-01   0.926035E-02   0.000000E+00   0.629704E+02   0.107387E-17
   LPB:    2  -0.377391426391295E+00   0.954663663658620E-02   0.136281E-01   0.579801E-01   0.218662E+03  -0.489059E-17
   LPB:    3  -0.377385116220846E+00   0.373341769517747E-02   0.231142E-01   0.817671E-01   0.170260E+03   0.740484E-17
   LPB:    4  -0.377383184015361E+00   0.329589614906501E-02   0.277847E-01   0.254733E+00   0.365847E+03   0.180129E-16
  Finished solving LPB equations
  A_corr:   -0.301592517126440     
 End minimization
 Ecorr=   1655.34925394871     
 A_corr= -0.301592517126440     
 Ecorr_band=  -1655.65084646584     
 End Solvation calculations
RMM:   2    -0.135504742322E+03   -0.50254E-03   -0.37382E-04  7961   0.606E-02    0.205E-01
 Begin Solvation calculations
  rms_SCF =   5.247335324867141E-002 tol =   5.247335324867141E-003
 Begin minimization
 Creating dielectric and ionic cavities
  area:      144.395914172485     
  volume:    653.167307461029     
  Acav:     7.580785494055486E-002
  Solving linear dielectric/ionic screening model
        iter                  A_solv                     rms
   LPB:       -0.377900622378119E+00   0.257404693194698E+00
   LPB:    0  -0.377886275761355E+00   0.244684489454950E+00  -0.100748E-02   0.000000E+00   0.282688E+02  -0.284802E-01
   LPB:    1  -0.377733264910477E+00   0.212401321215236E-01   0.892918E-02   0.000000E+00   0.632288E+02   0.298771E-17
   LPB:    2  -0.377720516777503E+00   0.642305730315719E-02   0.152382E-01   0.488205E-01   0.157669E+03   0.240015E-16
   LPB:    3  -0.377718568428287E+00   0.479011276290940E-02   0.216138E-01   0.107752E+00   0.153533E+03   0.147580E-16
   LPB:    4  -0.377717972234241E+00   0.272131217195701E-02   0.223424E-01   0.296020E+00   0.134861E+03  -0.117330E-16
  Finished solving LPB equations
  A_corr:   -0.301910117293686     
 End minimization
 Ecorr=   1655.42459178715     
 A_corr= -0.301910117293686     
 Ecorr_band=  -1655.72650190444     
 End Solvation calculations
RMM:   3    -0.135504309870E+03    0.43245E-03   -0.12848E-04  7138   0.544E-02    0.178E-02
 Begin Solvation calculations
  rms_SCF =   1.613117393859361E-002 tol =   1.613117393859361E-003
 Begin minimization
 Creating dielectric and ionic cavities
  area:      144.361756145373     
  volume:    653.184737889951     
  Acav:     7.578992197632095E-002
  Solving linear dielectric/ionic screening model
        iter                  A_solv                     rms
   LPB:       -0.377640818882820E+00   0.674888839101532E-01
   LPB:    0  -0.377640593605865E+00   0.664539515448400E-01  -0.126248E-03   0.000000E+00   0.282680E+02  -0.356879E-02
   LPB:    1  -0.377620213286388E+00   0.117361522271225E-01   0.107873E-01   0.000000E+00   0.778162E+02  -0.268610E-19
   LPB:    2  -0.377618421035152E+00   0.275014862681679E-02   0.120521E-01   0.787111E-01   0.294761E+03   0.754954E-17
   LPB:    3  -0.377617857300134E+00   0.128486880526895E-02   0.269464E-01   0.140682E+00   0.267002E+03   0.134629E-16
   LPB:    4  -0.377617360204523E+00   0.149837360984127E-02   0.504295E-01   0.471175E+00   0.302140E+03   0.124661E-16
  Finished solving LPB equations
  A_corr:   -0.301827438228202     
 End minimization
 Ecorr=   1655.34753775491     
 A_corr= -0.301827438228202     
 Ecorr_band=  -1655.64936519314     
 End Solvation calculations
RMM:   4    -0.135504318205E+03   -0.83356E-05   -0.28114E-05  6701   0.205E-02
 Begin Solvation calculations
  rms_SCF =   1.613117393859361E-002 tol =   1.613117393859361E-003
 Begin minimization
 Creating dielectric and ionic cavities
  area:      144.355854308979     
  volume:    653.192647399705     
  Acav:     7.578682351221405E-002
  Solving linear dielectric/ionic screening model
        iter                  A_solv                     rms
   LPB:       -0.377684061632040E+00   0.110899994202184E+00
   LPB:    0  -0.377681961368573E+00   0.105874522094351E+00  -0.385485E-03   0.000000E+00   0.282676E+02  -0.108967E-01
   LPB:    1  -0.377647284839221E+00   0.122925914580937E-01   0.971967E-02   0.000000E+00   0.636395E+02   0.697642E-18
   LPB:    2  -0.377644497256457E+00   0.285930251300995E-02   0.123032E-01   0.635078E-01   0.233192E+03   0.411941E-16
   LPB:    3  -0.377644085263547E+00   0.142914227740941E-02   0.243714E-01   0.746102E-01   0.126924E+03   0.401910E-16
   LPB:    4  -0.377643675095509E+00   0.377822606601076E-02   0.513930E-01   0.472116E+00   0.726449E+02   0.350795E-16
   LPB:    5  -0.377643009098067E+00   0.392674385805738E-02   0.434243E-01   0.192168E+01   0.174370E+03   0.319496E-16
   LPB:    6  -0.377642159990131E+00   0.273691771747157E-02   0.368267E-01   0.150335E+01   0.128357E+03   0.986191E-16
   LPB:    7  -0.377641167131862E+00   0.135999012979510E-02   0.407427E-01   0.105691E+01   0.425760E+03   0.209859E-15
  Finished solving LPB equations
  A_corr:   -0.301854343619648     
 End minimization
 Ecorr=   1655.23224119864     
 A_corr= -0.301854343619648     
 Ecorr_band=  -1655.53409554226     
 End Solvation calculations
   3 F= -.13550432E+03 E0= -.13550080E+03  d E =-.104838E-03
quench:  g(F)=  0.000E+00 g(S)=  0.000E+00 dE (1.order)= 0.000E+00
 reached required accuracy - stopping structural energy minimisation
