 vasp.5.4.4.18Apr17-6-g9f103f2a35 (build Feb 06 2024 13:54:16) complex          
  
 POSCAR found type information on POSCAR  Cu N  O 
 02/POSCAR found :  3 types and      40 ions
 scaLAPACK will be used

 ----------------------------------------------------------------------------- 
|                                                                             |
|  ADVICE TO THIS USER RUNNING 'VASP/VAMP'   (HEAR YOUR MASTER'S VOICE ...):  |
|                                                                             |
|      You enforced a specific xc-type in the INCAR file,                     |
|      a different type was found on the POTCAR file                          |
|          I HOPE YOU KNOW, WHAT YOU ARE  DOING                               |
|                                                                             |
 ----------------------------------------------------------------------------- 

 LDA part: xc-table for Pade appr. of Perdew
 POSCAR found type information on POSCAR  Cu N  O 
 00/POSCAR found :  3 types and      40 ions
 POSCAR found type information on POSCAR  Cu N  O 
 06/POSCAR found :  3 types and      40 ions
 Jacobian:    20.5888137679208     
 POSCAR, INCAR and KPOINTS ok, starting setup
 FFT: planning ...
 WAVECAR not read
 entering main loop
       N       E                     dE             d eps       ncg     rms          rms(c)
  Solvation turned off during non-self-consistent phase (first NELMDL steps)
DAV:   1     0.415437494575E+04    0.41544E+04   -0.17873E+05  4032   0.204E+03
DAV:   2     0.576997573181E+03   -0.35774E+04   -0.34571E+04  4032   0.459E+02
DAV:   3    -0.326942511569E+02   -0.60969E+03   -0.56359E+03  4743   0.229E+02
DAV:   4    -0.144973416332E+03   -0.11228E+03   -0.10071E+03  7299   0.906E+01
DAV:   5    -0.160041445374E+03   -0.15068E+02   -0.13716E+02  6381   0.302E+01    0.432E+01
 Begin Solvation calculations
  rms_SCF =    5.22283677253002      tol =   0.522283677253002     
 Begin minimization
 Creating dielectric and ionic cavities
  area:      171.671556959335     
  volume:    685.318354488815     
  Acav:     9.012756740365091E-002
  Solving linear dielectric/ionic screening model
        iter                  A_solv                     rms
   LPB:       -0.346459307629741E+03   0.227251016487333E+03
   LPB:    0  -0.814248104798745E+01   0.319657734817294E+02  -0.455824E+01   0.000000E+00   0.325656E+02  -0.148442E+03
   LPB:    1  -0.164535160539691E+01   0.755961777276360E+01   0.112088E-01   0.000000E+00   0.955318E+02   0.264031E-14
   LPB:    2  -0.698128449589490E+00   0.140099651888908E+01   0.137210E-01   0.119098E+00   0.327978E+03   0.343257E-13
   LPB:    3  -0.424841051960982E+00   0.143976887174785E+01   0.264544E-01   0.149642E+00   0.631635E+03   0.334240E-13
   LPB:    4  -0.338711088237062E+00   0.112571932307309E+01   0.245273E-01   0.339925E+00   0.832950E+02   0.327417E-13
   LPB:    5  -0.294412634577441E+00   0.598814141892691E+00   0.229598E-01   0.549435E+00   0.493379E+03   0.249253E-13
   LPB:    6  -0.267770728856590E+00   0.203544347513911E+00   0.308786E-01   0.447186E+00   0.129773E+03   0.171971E-13
  Finished solving LPB equations
  A_corr:   -0.177643161452939     
 End minimization
 Ecorr=   1762.53714548462     
 A_corr= -0.177643161452939     
 Ecorr_band=  -1762.71478864607     
 End Solvation calculations
RMM:   6    -0.153023520892E+03    0.70179E+01   -0.34704E+02  4099   0.934E+01    0.344E+01
 Begin Solvation calculations
  rms_SCF =    5.22283677253002      tol =   0.522283677253002     
 Begin minimization
 Creating dielectric and ionic cavities
  area:      172.819911705364     
  volume:    704.864772865726     
  Acav:     9.073045364531633E-002
  Solving linear dielectric/ionic screening model
        iter                  A_solv                     rms
   LPB:       -0.101135393174473E+02   0.532706024484317E+02
   LPB:    0  -0.878990103444750E+01   0.497324250189319E+02   0.289213E+00   0.000000E+00   0.316492E+02   0.915337E+01
   LPB:    1  -0.103231951970820E+01   0.447990231999907E+01   0.916366E-02   0.000000E+00   0.739304E+02  -0.841721E-15
   LPB:    2  -0.412316429989824E+00   0.155813954442935E+01   0.161878E-01   0.452427E-01   0.160462E+03  -0.250577E-13
   LPB:    3  -0.294296607544469E+00   0.110130169353406E+01   0.233526E-01   0.131951E+00   0.105361E+03  -0.283211E-13
   LPB:    4  -0.251504256467319E+00   0.707280666342623E+00   0.223886E-01   0.378198E+00   0.254664E+03  -0.255920E-13
   LPB:    5  -0.227302391605141E+00   0.242555417126433E+00   0.269215E-01   0.470338E+00   0.161797E+03  -0.377704E-13
  Finished solving LPB equations
  A_corr:   -0.136571937959825     
 End minimization
 Ecorr=   1667.46034469227     
 A_corr= -0.136571937959825     
 Ecorr_band=  -1667.59691663023     
 End Solvation calculations
RMM:   7    -0.139917692644E+03    0.13106E+02   -0.76167E+01  4117   0.437E+01    0.139E+01
 Begin Solvation calculations
  rms_SCF =    5.22283677253002      tol =   0.522283677253002     
 Begin minimization
 Creating dielectric and ionic cavities
  area:      166.946728145593     
  volume:    703.857575359283     
  Acav:     8.764703227643657E-002
  Solving linear dielectric/ionic screening model
        iter                  A_solv                     rms
   LPB:       -0.389896227997207E+01   0.330136025589653E+02
   LPB:    0  -0.389868029708589E+01   0.330031229399865E+02  -0.421814E-02   0.000000E+00   0.316964E+02  -0.133700E+00
   LPB:    1  -0.561133027481344E+00   0.310950013526992E+01   0.918577E-02   0.000000E+00   0.725095E+02  -0.323373E-17
   LPB:    2  -0.279225414500537E+00   0.539758655585633E+00   0.159787E-01   0.485572E-01   0.149673E+03  -0.339647E-14
   LPB:    3  -0.233822228044250E+00   0.350076900630852E+00   0.235291E-01   0.109374E+00   0.324600E+03  -0.197675E-14
   LPB:    4  -0.222221511993671E+00   0.201236956351680E+00   0.273050E-01   0.220172E+00   0.160923E+03  -0.245599E-14
  Finished solving LPB equations
  A_corr:   -0.134574479717234     
 End minimization
 Ecorr=   1642.26370501014     
 A_corr= -0.134574479717234     
 Ecorr_band=  -1642.39827948986     
 End Solvation calculations
RMM:   8    -0.133184673488E+03    0.67330E+01   -0.50304E+00  4127   0.944E+00    0.858E+00
 Begin Solvation calculations
  rms_SCF =    1.94904285677967      tol =   0.194904285677967     
 Begin minimization
 Creating dielectric and ionic cavities
  area:      167.034358649301     
  volume:    701.743575619589     
  Acav:     8.769303829088314E-002
  Solving linear dielectric/ionic screening model
        iter                  A_solv                     rms
   LPB:       -0.378073339504564E+00   0.521701188050586E+01
   LPB:    0  -0.373974887915431E+00   0.491949620392413E+01  -0.160562E-01   0.000000E+00   0.317955E+02  -0.510514E+00
   LPB:    1  -0.266141278813127E+00   0.960385904677077E+00   0.103394E-01   0.000000E+00   0.770816E+02   0.197150E-16
   LPB:    2  -0.240735951046092E+00   0.229004844200383E+00   0.191085E-01   0.127479E+00   0.121844E+03   0.337777E-14
   LPB:    3  -0.233467473501038E+00   0.309227533495516E+00   0.283720E-01   0.192689E+00   0.346833E+03   0.201364E-14
   LPB:    4  -0.229571881039979E+00   0.205821200497658E+00   0.289817E-01   0.524683E+00   0.544665E+02   0.107161E-14
   LPB:    5  -0.226137423253817E+00   0.205430289727070E+00   0.324725E-01   0.786850E+00   0.139427E+03   0.422946E-14
   LPB:    6  -0.223274876009251E+00   0.115299427838769E+00   0.329418E-01   0.821606E+00   0.396024E+02   0.715611E-14
  Finished solving LPB equations
  A_corr:   -0.135581837718368     
 End minimization
 Ecorr=   1607.44186739372     
 A_corr= -0.135581837718368     
 Ecorr_band=  -1607.57744923144     
 End Solvation calculations
RMM:   9    -0.132086817443E+03    0.10979E+01   -0.18847E+00  4129   0.550E+00    0.456E+00
 Begin Solvation calculations
  rms_SCF =    1.94904285677967      tol =   0.194904285677967     
 Begin minimization
 Creating dielectric and ionic cavities
  area:      153.550039147621     
  volume:    698.438346142113     
  Acav:     8.061377055250092E-002
  Solving linear dielectric/ionic screening model
        iter                  A_solv                     rms
   LPB:       -0.557045985602899E+00   0.712610388573766E+01
   LPB:    0  -0.552623237928029E+00   0.723165781677116E+01   0.166388E-01   0.000000E+00   0.319505E+02   0.531618E+00
   LPB:    1  -0.328948936808905E+00   0.117844528457523E+01   0.103993E-01   0.000000E+00   0.771489E+02   0.289216E-17
   LPB:    2  -0.288866875656141E+00   0.312110117088386E+00   0.166922E-01   0.111641E+00   0.262025E+03  -0.273137E-14
   LPB:    3  -0.277510344924087E+00   0.212586143133505E+00   0.251055E-01   0.188382E+00   0.488250E+03  -0.111351E-14
   LPB:    4  -0.273306613069822E+00   0.203558661616325E+00   0.317396E-01   0.292790E+00   0.129392E+03   0.758697E-15
   LPB:    5  -0.270700244826205E+00   0.211257099196895E+00   0.270645E-01   0.727113E+00   0.381303E+03   0.340808E-14
   LPB:    6  -0.268733802636158E+00   0.102128100282061E+00   0.307609E-01   0.663815E+00   0.661663E+02   0.473777E-14
  Finished solving LPB equations
  A_corr:   -0.188120032083657     
 End minimization
 Ecorr=   1574.83919341113     
 A_corr= -0.188120032083657     
 Ecorr_band=  -1575.02731344321     
 End Solvation calculations
RMM:  10    -0.131765506895E+03    0.32131E+00   -0.12118E+00  4470   0.263E+00    0.406E+00
 Begin Solvation calculations
  rms_SCF =   0.864189546076708      tol =   8.641895460767079E-002
 Begin minimization
 Creating dielectric and ionic cavities
  area:      150.630944484542     
  volume:    695.417765973973     
  Acav:     7.908124585438452E-002
  Solving linear dielectric/ionic screening model
        iter                  A_solv                     rms
   LPB:       -0.343341062504242E+00   0.244471228074346E+01
   LPB:    0  -0.341571380496327E+00   0.256572342469414E+01   0.105018E-01   0.000000E+00   0.320921E+02   0.337025E+00
   LPB:    1  -0.302818136195411E+00   0.632581209108284E+00   0.112123E-01   0.000000E+00   0.869662E+02   0.139791E-16
   LPB:    2  -0.296891110710591E+00   0.133756831486961E+00   0.146125E-01   0.117354E+00   0.200794E+03  -0.459218E-15
   LPB:    3  -0.294768336258490E+00   0.120913967481213E+00   0.271132E-01   0.193023E+00   0.368834E+03  -0.140551E-14
   LPB:    4  -0.293250000999770E+00   0.160182309244517E+00   0.405917E-01   0.477758E+00   0.620860E+02  -0.182431E-14
   LPB:    5  -0.291485703987081E+00   0.172533611581550E+00   0.340695E-01   0.138444E+01   0.145555E+03  -0.297098E-14
   LPB:    6  -0.290110732915151E+00   0.854511345759656E-01   0.298466E-01   0.889596E+00   0.403562E+02  -0.459366E-14
  Finished solving LPB equations
  A_corr:   -0.211029487060767     
 End minimization
 Ecorr=   1548.14295425828     
 A_corr= -0.211029487060767     
 Ecorr_band=  -1548.35398374534     
 End Solvation calculations
RMM:  11    -0.131621542567E+03    0.14396E+00   -0.21976E-01  4382   0.124E+00    0.199E+00
 Begin Solvation calculations
  rms_SCF =   0.864189546076708      tol =   8.641895460767079E-002
 Begin minimization
 Creating dielectric and ionic cavities
  area:      148.383403916901     
  volume:    690.206120719248     
  Acav:     7.790128705637327E-002
  Solving linear dielectric/ionic screening model
        iter                  A_solv                     rms
   LPB:       -0.409504232476272E+00   0.243583176312956E+01
   LPB:    0  -0.399201604298203E+00   0.261487639795383E+01   0.252431E-01   0.000000E+00   0.323364E+02   0.816272E+00
   LPB:    1  -0.339530655111923E+00   0.960299086621850E+00   0.136805E-01   0.000000E+00   0.855929E+02  -0.279490E-16
   LPB:    2  -0.325143476004935E+00   0.283368583217726E+00   0.148051E-01   0.222795E+00   0.269077E+03  -0.212869E-14
   LPB:    3  -0.321279961716719E+00   0.198462336439047E+00   0.229798E-01   0.173010E+00   0.227266E+03  -0.308675E-14
   LPB:    4  -0.319594493214157E+00   0.158802869208065E+00   0.268593E-01   0.373240E+00   0.130827E+03  -0.381532E-14
   LPB:    5  -0.318364873660612E+00   0.132080472210711E+00   0.295799E-01   0.662442E+00   0.259537E+03  -0.372766E-14
   LPB:    6  -0.317275823412821E+00   0.608146749134253E-01   0.333067E-01   0.786581E+00   0.906647E+02  -0.501993E-14
  Finished solving LPB equations
  A_corr:   -0.239374536356448     
 End minimization
 Ecorr=   1523.34145529021     
 A_corr= -0.239374536356448     
 Ecorr_band=  -1523.58082982656     
 End Solvation calculations
RMM:  12    -0.131697162830E+03   -0.75620E-01   -0.35422E-01  4230   0.206E+00    0.298E+00
 Begin Solvation calculations
  rms_SCF =   0.864189546076708      tol =   8.641895460767079E-002
 Begin minimization
 Creating dielectric and ionic cavities
  area:      151.225476989040     
  volume:    687.200453815150     
  Acav:     7.939337541924604E-002
  Solving linear dielectric/ionic screening model
        iter                  A_solv                     rms
   LPB:       -0.392885605803717E+00   0.252691634189132E+01
   LPB:    0  -0.392391867400030E+00   0.240066263700966E+01  -0.551408E-02   0.000000E+00   0.324773E+02  -0.179083E+00
   LPB:    1  -0.354542260830217E+00   0.657639559397051E+00   0.114164E-01   0.000000E+00   0.898633E+02  -0.784954E-17
   LPB:    2  -0.348107750467888E+00   0.169583473913345E+00   0.151476E-01   0.128126E+00   0.220591E+03   0.209928E-14
   LPB:    3  -0.346155547386043E+00   0.150739461895463E+00   0.227535E-01   0.201979E+00   0.371262E+03   0.256815E-14
   LPB:    4  -0.345220166926844E+00   0.136546193047564E+00   0.274966E-01   0.396489E+00   0.885192E+02   0.251052E-14
   LPB:    5  -0.344160874532526E+00   0.961455378307180E-01   0.343407E-01   0.906771E+00   0.251481E+03   0.505703E-14
   LPB:    6  -0.343255381572967E+00   0.458808473676800E-01   0.376644E-01   0.779378E+00   0.773581E+02   0.871473E-14
  Finished solving LPB equations
  A_corr:   -0.263862006153721     
 End minimization
 Ecorr=   1509.39007604602     
 A_corr= -0.263862006153721     
 Ecorr_band=  -1509.65393805218     
 End Solvation calculations
RMM:  13    -0.131576836332E+03    0.12033E+00   -0.83154E-02  4137   0.124E+00    0.763E-01
 Begin Solvation calculations
  rms_SCF =   0.237901977844895      tol =   2.379019778448945E-002
 Begin minimization
 Creating dielectric and ionic cavities
  area:      149.220124853776     
  volume:    685.247971125976     
  Acav:     7.834056554823259E-002
  Solving linear dielectric/ionic screening model
        iter                  A_solv                     rms
   LPB:       -0.368845172031983E+00   0.753721343729180E+00
   LPB:    0  -0.368839271711719E+00   0.774180652023354E+00   0.601938E-03   0.000000E+00   0.325689E+02   0.196044E-01
   LPB:    1  -0.357986163757095E+00   0.287500095974402E+00   0.150837E-01   0.000000E+00   0.121775E+03  -0.500132E-18
   LPB:    2  -0.356254966296468E+00   0.107393304756467E+00   0.167592E-01   0.143564E+00   0.165733E+03  -0.330100E-15
   LPB:    3  -0.355740452050276E+00   0.608089967164266E-01   0.238811E-01   0.208569E+00   0.148986E+03  -0.991408E-15
   LPB:    4  -0.355332645726685E+00   0.108495942254018E+00   0.388589E-01   0.487103E+00   0.244710E+03  -0.101047E-14
   LPB:    5  -0.354945017521677E+00   0.131653298963528E+00   0.315075E-01   0.117230E+01   0.767016E+02  -0.105340E-14
   LPB:    6  -0.354555968379809E+00   0.531108438132837E-01   0.251562E-01   0.125706E+01   0.810359E+02  -0.122063E-14
   LPB:    7  -0.354229984034262E+00   0.317230095890973E-01   0.324504E-01   0.649558E+00   0.137864E+03  -0.123744E-14
   LPB:    8  -0.354046857517010E+00   0.168617509714613E-01   0.323990E-01   0.562655E+00   0.161241E+03  -0.125668E-14
  Finished solving LPB equations
  A_corr:   -0.275706291968778     
 End minimization
 Ecorr=   1498.54257371716     
 A_corr= -0.275706291968778     
 Ecorr_band=  -1498.81828000913     
 End Solvation calculations
RMM:  14    -0.131569828771E+03    0.70076E-02   -0.25902E-02  4239   0.545E-01    0.411E-01
 Begin Solvation calculations
  rms_SCF =   0.208069479715917      tol =   2.080694797159174E-002
 Begin minimization
 Creating dielectric and ionic cavities
  area:      149.431801353712     
  volume:    683.343979743156     
  Acav:     7.845169571069867E-002
  Solving linear dielectric/ionic screening model
        iter                  A_solv                     rms
   LPB:       -0.383016864817711E+00   0.827503260599744E+00
   LPB:    0  -0.383009079215735E+00   0.850693501133934E+00   0.690503E-03   0.000000E+00   0.326581E+02   0.225505E-01
   LPB:    1  -0.369377455295037E+00   0.360754488731986E+00   0.146381E-01   0.000000E+00   0.137443E+03  -0.168297E-19
   LPB:    2  -0.367449071367171E+00   0.111203990211919E+00   0.159101E-01   0.130154E+00   0.121857E+03  -0.164984E-16
   LPB:    3  -0.366966531143965E+00   0.568129204803660E-01   0.208999E-01   0.190488E+00   0.256939E+03  -0.155093E-14
   LPB:    4  -0.366822102760904E+00   0.595174907089490E-01   0.206880E-01   0.302375E+00   0.229449E+03  -0.161319E-14
   LPB:    5  -0.366743458527859E+00   0.471876299229097E-01   0.214493E-01   0.525193E+00   0.212154E+03  -0.165066E-14
   LPB:    6  -0.366667177837888E+00   0.184697755056942E-01   0.337741E-01   0.615994E+00   0.930882E+02  -0.173562E-14
  Finished solving LPB equations
  A_corr:   -0.288215482127189     
 End minimization
 Ecorr=   1492.24286261279     
 A_corr= -0.288215482127189     
 Ecorr_band=  -1492.53107809492     
 End Solvation calculations
RMM:  15    -0.131569465008E+03    0.36376E-03   -0.96490E-03  4179   0.328E-01    0.183E-01
 Begin Solvation calculations
  rms_SCF =   0.208069479715917      tol =   2.080694797159174E-002
 Begin minimization
 Creating dielectric and ionic cavities
  area:      150.187351802948     
  volume:    680.698639870333     
  Acav:     7.884835969654784E-002
  Solving linear dielectric/ionic screening model
        iter                  A_solv                     rms
   LPB:       -0.433526360434308E+00   0.149625152362998E+01
   LPB:    0  -0.433519699629000E+00   0.151538494250831E+01   0.637470E-03   0.000000E+00   0.327822E+02   0.208976E-01
   LPB:    1  -0.393825127380211E+00   0.560100186203657E+00   0.146302E-01   0.000000E+00   0.133705E+03  -0.167962E-17
   LPB:    2  -0.388579381980930E+00   0.175549815651481E+00   0.158088E-01   0.122300E+00   0.125896E+03   0.855072E-15
   LPB:    3  -0.387283635718446E+00   0.704428543454197E-01   0.222812E-01   0.175256E+00   0.175030E+03   0.269066E-14
   LPB:    4  -0.386722733747341E+00   0.681144741535015E-01   0.287129E-01   0.335914E+00   0.305731E+03   0.344343E-14
   LPB:    5  -0.386413287063966E+00   0.121587370554692E+00   0.274453E-01   0.577177E+00   0.219278E+03   0.350802E-14
   LPB:    6  -0.386186882862348E+00   0.642920155019835E-01   0.219920E-01   0.913063E+00   0.755665E+02   0.326159E-14
   LPB:    7  -0.385976470606853E+00   0.240643864424628E-01   0.326661E-01   0.625683E+00   0.258299E+03   0.330656E-14
   LPB:    8  -0.385818992843179E+00   0.157773519313726E-01   0.364393E-01   0.670927E+00   0.193050E+03   0.348462E-14
  Finished solving LPB equations
  A_corr:   -0.306970633146631     
 End minimization
 Ecorr=   1481.69871298231     
 A_corr= -0.306970633146631     
 Ecorr_band=  -1482.00568361546     
 End Solvation calculations
RMM:  16    -0.131571384918E+03   -0.19199E-02   -0.58007E-03  4186   0.173E-01    0.176E-01
 Begin Solvation calculations
  rms_SCF =   0.208069479715917      tol =   2.080694797159174E-002
 Begin minimization
 Creating dielectric and ionic cavities
  area:      150.513941474955     
  volume:    679.934455433755     
  Acav:     7.901981927435137E-002
  Solving linear dielectric/ionic screening model
        iter                  A_solv                     rms
   LPB:       -0.402412192143237E+00   0.827217438605183E+00
   LPB:    0  -0.402408350939258E+00   0.815878741511032E+00  -0.483830E-03   0.000000E+00   0.328180E+02  -0.158783E-01
   LPB:    1  -0.394217506864427E+00   0.215011997971339E+00   0.146112E-01   0.000000E+00   0.103193E+03  -0.683174E-18
   LPB:    2  -0.393214082766986E+00   0.915085925275462E-01   0.150223E-01   0.119153E+00   0.182050E+03  -0.380266E-15
   LPB:    3  -0.392973754008795E+00   0.606342341395965E-01   0.202732E-01   0.177474E+00   0.122922E+03   0.372216E-16
   LPB:    4  -0.392881121048393E+00   0.523928875183647E-01   0.208822E-01   0.374202E+00   0.217691E+03  -0.336764E-15
   LPB:    5  -0.392811175127098E+00   0.399801764056880E-01   0.271415E-01   0.580951E+00   0.129164E+03  -0.494916E-15
   LPB:    6  -0.392713340166736E+00   0.203399767735461E-01   0.410183E-01   0.925524E+00   0.835618E+02  -0.720070E-15
  Finished solving LPB equations
  A_corr:   -0.313693520892385     
 End minimization
 Ecorr=   1477.72617177256     
 A_corr= -0.313693520892385     
 Ecorr_band=  -1478.03986529345     
 End Solvation calculations
RMM:  17    -0.131572192717E+03   -0.80780E-03   -0.15205E-03  4202   0.105E-01    0.134E-01
 Begin Solvation calculations
  rms_SCF =   0.208069479715917      tol =   2.080694797159174E-002
 Begin minimization
 Creating dielectric and ionic cavities
  area:      150.986582736753     
  volume:    678.999922120788     
  Acav:     7.926795593679527E-002
  Solving linear dielectric/ionic screening model
        iter                  A_solv                     rms
   LPB:       -0.428305378994599E+00   0.132342839914661E+01
   LPB:    0  -0.428241367136260E+00   0.127543142761170E+01  -0.197378E-02   0.000000E+00   0.328618E+02  -0.648621E-01
   LPB:    1  -0.408142789689445E+00   0.330234688061511E+00   0.145922E-01   0.000000E+00   0.103892E+03   0.672406E-17
   LPB:    2  -0.405778706440745E+00   0.134803477727113E+00   0.149148E-01   0.115080E+00   0.178379E+03  -0.376028E-14
   LPB:    3  -0.405277992343718E+00   0.826758794578073E-01   0.198656E-01   0.159017E+00   0.117648E+03  -0.418545E-14
   LPB:    4  -0.405059664852944E+00   0.866402881354224E-01   0.229971E-01   0.376658E+00   0.225325E+03  -0.352226E-14
   LPB:    5  -0.404906474102211E+00   0.567444092703666E-01   0.243622E-01   0.662341E+00   0.108121E+03  -0.316934E-14
   LPB:    6  -0.404758564307827E+00   0.222341704941392E-01   0.321333E-01   0.732025E+00   0.110502E+03  -0.284459E-14
   LPB:    7  -0.404640734976076E+00   0.139918869417489E-01   0.379145E-01   0.675158E+00   0.191311E+03  -0.346880E-14
  Finished solving LPB equations
  A_corr:   -0.325372779039281     
 End minimization
 Ecorr=   1472.12560205568     
 A_corr= -0.325372779039281     
 Ecorr_band=  -1472.45097483472     
 End Solvation calculations
RMM:  18    -0.131573746836E+03   -0.15541E-02   -0.14899E-03  4087   0.893E-02    0.113E-01
 Begin Solvation calculations
  rms_SCF =   0.208069479715917      tol =   2.080694797159174E-002
 Begin minimization
 Creating dielectric and ionic cavities
  area:      151.300314416849     
  volume:    678.656392709008     
  Acav:     7.943266506884575E-002
  Solving linear dielectric/ionic screening model
        iter                  A_solv                     rms
   LPB:       -0.428930914665736E+00   0.130284791247516E+01
   LPB:    0  -0.428761077316306E+00   0.123622381193718E+01  -0.321425E-02   0.000000E+00   0.328779E+02  -0.105678E+00
   LPB:    1  -0.414952941264186E+00   0.282276754347662E+00   0.142009E-01   0.000000E+00   0.832700E+02   0.124350E-17
   LPB:    2  -0.413366473827474E+00   0.124886610658434E+00   0.138051E-01   0.118188E+00   0.223525E+03  -0.841138E-15
   LPB:    3  -0.413037682845077E+00   0.668885975435856E-01   0.178293E-01   0.160470E+00   0.125400E+03  -0.614563E-15
   LPB:    4  -0.412910929503217E+00   0.559383055533360E-01   0.212570E-01   0.323348E+00   0.180714E+03  -0.560360E-15
   LPB:    5  -0.412818195281968E+00   0.396869468802106E-01   0.286663E-01   0.542515E+00   0.112493E+03  -0.516311E-15
   LPB:    6  -0.412714486039039E+00   0.183602284082671E-01   0.390108E-01   0.821795E+00   0.895320E+02  -0.481049E-15
  Finished solving LPB equations
  A_corr:   -0.333281820970193     
 End minimization
 Ecorr=   1468.61806189587     
 A_corr= -0.333281820970193     
 Ecorr_band=  -1468.95134371684     
 End Solvation calculations
RMM:  19    -0.131575109714E+03   -0.13629E-02   -0.10263E-03  4069   0.733E-02    0.844E-02
 Begin Solvation calculations
  rms_SCF =   0.167255260056918      tol =   1.672552600569178E-002
 Begin minimization
 Creating dielectric and ionic cavities
  area:      151.591362439947     
  volume:    678.617673669185     
  Acav:     7.958546528097217E-002
  Solving linear dielectric/ionic screening model
        iter                  A_solv                     rms
   LPB:       -0.443629219470154E+00   0.166758986877477E+01
   LPB:    0  -0.443205756599431E+00   0.157480615826480E+01  -0.507526E-02   0.000000E+00   0.328797E+02  -0.166873E+00
   LPB:    1  -0.424023780055048E+00   0.335824748154907E+00   0.139063E-01   0.000000E+00   0.759616E+02   0.125886E-16
   LPB:    2  -0.421894275931740E+00   0.147557945976057E+00   0.132346E-01   0.116650E+00   0.248846E+03  -0.316705E-14
   LPB:    3  -0.421477928491447E+00   0.653246698082475E-01   0.171150E-01   0.151186E+00   0.126287E+03  -0.443956E-14
   LPB:    4  -0.421299111985984E+00   0.643772459722046E-01   0.242063E-01   0.303668E+00   0.167274E+03  -0.473178E-14
   LPB:    5  -0.421173040132740E+00   0.479879299335426E-01   0.283173E-01   0.602682E+00   0.997719E+02  -0.471583E-14
   LPB:    6  -0.421053211456841E+00   0.200127483393862E-01   0.343835E-01   0.782788E+00   0.985246E+02  -0.457830E-14
   LPB:    7  -0.420958558426981E+00   0.110257001187834E-01   0.374743E-01   0.724753E+00   0.196527E+03  -0.473051E-14
  Finished solving LPB equations
  A_corr:   -0.341373093146009     
 End minimization
 Ecorr=   1465.27211649860     
 A_corr= -0.341373093146009     
 Ecorr_band=  -1465.61348959174     
 End Solvation calculations
RMM:  20    -0.131576686423E+03   -0.15767E-02   -0.94240E-04  4086   0.678E-02    0.695E-02
 Begin Solvation calculations
  rms_SCF =   0.130543621094846      tol =   1.305436210948463E-002
 Begin minimization
 Creating dielectric and ionic cavities
  area:      151.827025865983     
  volume:    678.766947940392     
  Acav:     7.970918857964084E-002
  Solving linear dielectric/ionic screening model
        iter                  A_solv                     rms
   LPB:       -0.452452199200199E+00   0.181313235082290E+01
   LPB:    0  -0.451794422912780E+00   0.169967357100902E+01  -0.632610E-02   0.000000E+00   0.328727E+02  -0.207956E+00
   LPB:    1  -0.432164474612303E+00   0.354252792052326E+00   0.135965E-01   0.000000E+00   0.699743E+02  -0.102542E-16
   LPB:    2  -0.429980767490585E+00   0.140590405664850E+00   0.128636E-01   0.117582E+00   0.256576E+03   0.346546E-15
   LPB:    3  -0.429566938430601E+00   0.578231446773352E-01   0.170716E-01   0.142796E+00   0.141398E+03   0.877762E-16
   LPB:    4  -0.429428807663884E+00   0.521141991692904E-01   0.222494E-01   0.256109E+00   0.171350E+03  -0.296048E-15
   LPB:    5  -0.429346937448375E+00   0.375816926942831E-01   0.271818E-01   0.485150E+00   0.108566E+03  -0.387050E-15
   LPB:    6  -0.429264543394907E+00   0.176616164756217E-01   0.368311E-01   0.742733E+00   0.986684E+02  -0.544413E-15
   LPB:    7  -0.429189279316461E+00   0.978148767173618E-02   0.393478E-01   0.855040E+00   0.142817E+03  -0.819782E-15
  Finished solving LPB equations
  A_corr:   -0.349480090736820     
 End minimization
 Ecorr=   1462.35716390114     
 A_corr= -0.349480090736820     
 Ecorr_band=  -1462.70664399188     
 End Solvation calculations
RMM:  21    -0.131577812384E+03   -0.11260E-02   -0.92621E-04  4086   0.578E-02    0.546E-02
 Begin Solvation calculations
  rms_SCF =   9.606611533842013E-002 tol =   9.606611533842013E-003
 Begin minimization
 Creating dielectric and ionic cavities
  area:      151.906011636234     
  volume:    679.077446673467     
  Acav:     7.975065610902290E-002
  Solving linear dielectric/ionic screening model
        iter                  A_solv                     rms
   LPB:       -0.442247995865075E+00   0.131875752871195E+01
   LPB:    0  -0.441883338450590E+00   0.125202984359283E+01  -0.471125E-02   0.000000E+00   0.328582E+02  -0.154803E+00
   LPB:    1  -0.433575867950238E+00   0.241624289344312E+00   0.126140E-01   0.000000E+00   0.646535E+02  -0.105257E-16
   LPB:    2  -0.432654747014166E+00   0.774555003484646E-01   0.122740E-01   0.113950E+00   0.261148E+03  -0.112683E-14
   LPB:    3  -0.432497814768534E+00   0.242836860460075E-01   0.174888E-01   0.119570E+00   0.161671E+03  -0.127074E-14
   LPB:    4  -0.432454061299469E+00   0.260674635948814E-01   0.247389E-01   0.197097E+00   0.165409E+03  -0.134028E-14
   LPB:    5  -0.432424585510554E+00   0.268688433921870E-01   0.309152E-01   0.539089E+00   0.111592E+03  -0.141246E-14
   LPB:    6  -0.432386463802876E+00   0.157642673013486E-01   0.391948E-01   0.102012E+01   0.728251E+02  -0.147422E-14
   LPB:    7  -0.432347722166572E+00   0.731648580069600E-02   0.379451E-01   0.104973E+01   0.111466E+03  -0.151374E-14
  Finished solving LPB equations
  A_corr:   -0.352597066057549     
 End minimization
 Ecorr=   1460.85708980875     
 A_corr= -0.352597066057549     
 Ecorr_band=  -1461.20968687480     
 End Solvation calculations
RMM:  22    -0.131578266829E+03   -0.45444E-03   -0.34718E-04  4077   0.428E-02    0.353E-02
 Begin Solvation calculations
  rms_SCF =   4.995746792256448E-002 tol =   4.995746792256449E-003
 Begin minimization
 Creating dielectric and ionic cavities
  area:      151.961339819223     
  volume:    679.170634144633     
  Acav:     7.977970340509186E-002
  Solving linear dielectric/ionic screening model
        iter                  A_solv                     rms
   LPB:       -0.437900856243886E+00   0.740410153853758E+00
   LPB:    0  -0.437779561661088E+00   0.697291475215451E+00  -0.271733E-02   0.000000E+00   0.328538E+02  -0.892747E-01
   LPB:    1  -0.435284851398066E+00   0.133277950193594E+00   0.124456E-01   0.000000E+00   0.635769E+02   0.610610E-17
   LPB:    2  -0.434997610640968E+00   0.409834999268507E-01   0.123846E-01   0.115707E+00   0.257084E+03   0.411621E-15
   LPB:    3  -0.434951757532161E+00   0.140492248454850E-01   0.172014E-01   0.114932E+00   0.174692E+03   0.469638E-15
   LPB:    4  -0.434939634542652E+00   0.144105201700533E-01   0.240554E-01   0.189057E+00   0.153510E+03   0.501331E-15
   LPB:    5  -0.434930647242044E+00   0.145782642467018E-01   0.322708E-01   0.552614E+00   0.110682E+03   0.520826E-15
   LPB:    6  -0.434917001534728E+00   0.867309011679201E-02   0.436280E-01   0.112308E+01   0.675634E+02   0.616955E-15
   LPB:    7  -0.434902228744489E+00   0.451450806511860E-02   0.396062E-01   0.119253E+01   0.939204E+02   0.545946E-15
  Finished solving LPB equations
  A_corr:   -0.355122525339397     
 End minimization
 Ecorr=   1459.79989288063     
 A_corr= -0.355122525339397     
 Ecorr_band=  -1460.15501540597     
 End Solvation calculations
RMM:  23    -0.131578307442E+03   -0.40613E-04   -0.18365E-04  3635   0.270E-02    0.408E-02
 Begin Solvation calculations
  rms_SCF =   4.995746792256448E-002 tol =   4.995746792256449E-003
 Begin minimization
 Creating dielectric and ionic cavities
  area:      151.981226779972     
  volume:    679.210726215741     
  Acav:     7.979014405948510E-002
  Solving linear dielectric/ionic screening model
        iter                  A_solv                     rms
   LPB:       -0.436395599860696E+00   0.367045466423019E+00
   LPB:    0  -0.436377469971374E+00   0.354584984494680E+00  -0.105059E-02   0.000000E+00   0.328519E+02  -0.345138E-01
   LPB:    1  -0.435845634343999E+00   0.616445273084480E-01   0.114807E-01   0.000000E+00   0.626955E+02   0.175960E-17
   LPB:    2  -0.435778117729625E+00   0.148953995093715E-01   0.126763E-01   0.114976E+00   0.238005E+03  -0.668724E-16
   LPB:    3  -0.435768766585619E+00   0.490623431385838E-02   0.182068E-01   0.964308E-01   0.214053E+03  -0.677676E-16
   LPB:    4  -0.435766412789043E+00   0.593666255378302E-02   0.260350E-01   0.176027E+00   0.183962E+03  -0.770348E-16
   LPB:    5  -0.435764240052100E+00   0.807185419205779E-02   0.379699E-01   0.632930E+00   0.111257E+03  -0.934176E-16
   LPB:    6  -0.435760472951247E+00   0.551285826701514E-02   0.444033E-01   0.148260E+01   0.648458E+02  -0.880485E-16
   LPB:    7  -0.435756410694791E+00   0.254778421752406E-02   0.370304E-01   0.129305E+01   0.935822E+02   0.536287E-16
  Finished solving LPB equations
  A_corr:   -0.355966266635306     
 End minimization
 Ecorr=   1459.37870238520     
 A_corr= -0.355966266635306     
 Ecorr_band=  -1459.73466865184     
 End Solvation calculations
RMM:  24    -0.131578307579E+03   -0.13719E-06   -0.35984E-05  2539   0.142E-02
 Begin Solvation calculations
  rms_SCF =   4.995746792256448E-002 tol =   4.995746792256449E-003
 Begin minimization
 Creating dielectric and ionic cavities
  area:      152.015740598910     
  volume:    679.211568545855     
  Acav:     7.980826381442775E-002
  Solving linear dielectric/ionic screening model
        iter                  A_solv                     rms
   LPB:       -0.439413692154059E+00   0.627787806986159E+00
   LPB:    0  -0.439362410009385E+00   0.605750234449471E+00  -0.176692E-02   0.000000E+00   0.328519E+02  -0.580468E-01
   LPB:    1  -0.437926277907150E+00   0.100544387338319E+00   0.110875E-01   0.000000E+00   0.619408E+02   0.312647E-17
   LPB:    2  -0.437733193316611E+00   0.235410844266021E-01   0.131279E-01   0.113552E+00   0.208675E+03   0.370064E-15
   LPB:    3  -0.437707550243688E+00   0.873539973290925E-02   0.185211E-01   0.941347E-01   0.211344E+03   0.426993E-15
   LPB:    4  -0.437701096290084E+00   0.871578547937732E-02   0.244058E-01   0.190998E+00   0.170488E+03   0.433416E-15
   LPB:    5  -0.437698355974085E+00   0.699432098123440E-02   0.246137E-01   0.421009E+00   0.139654E+03   0.318320E-15
   LPB:    6  -0.437696511237447E+00   0.296706496078134E-02   0.281457E-01   0.588706E+00   0.112068E+03   0.322443E-15
  Finished solving LPB equations
  A_corr:   -0.357888247423019     
 End minimization
 Ecorr=   1458.70281559076     
 A_corr= -0.357888247423019     
 Ecorr_band=  -1459.06070383819     
 End Solvation calculations
   1 F= -.13157831E+03 E0= -.13158111E+03  d E =-.131578E+03
quench:  g(F)=  0.000E+00 g(S)=  0.000E+00 dE (1.order)= 0.000E+00
 bond charge predicted
       N       E                     dE             d eps       ncg     rms          rms(c)
 Begin Solvation calculations
  rms_SCF =   4.995746792256448E-002 tol =   4.995746792256449E-003
 Begin minimization
 Creating dielectric and ionic cavities
  area:      152.235566133608     
  volume:    679.205804293272     
  Acav:     7.992367222014407E-002
  Solving linear dielectric/ionic screening model
        iter                  A_solv                     rms
   LPB:       -0.449582488457996E+00   0.110411635538014E-01
   LPB:    0  -0.449582488354783E+00   0.110763761263347E-01  -0.250668E-05   0.000000E+00   0.328521E+02  -0.823499E-04
   LPB:    1  -0.440492349822285E+00   0.430411747878805E-02   0.154717E-01   0.000000E+00   0.586921E+06   0.423655E-20
   LPB:    2  -0.439645557670168E+00   0.507450501617175E-02   0.265712E-01   0.542419E-01   0.128499E+06   0.423546E-17
   LPB:    3  -0.439387577143601E+00   0.101768349620040E-01   0.322728E-01   0.250832E+00   0.234210E+05   0.709248E-17
   LPB:    4  -0.439280354251347E+00   0.282738699722076E-01   0.344473E-01   0.389388E+00   0.229107E+04   0.390813E-17
   LPB:    5  -0.439236715019622E+00   0.452666443987050E-01   0.259529E-01   0.540206E+00   0.228251E+03  -0.220181E-16
   LPB:    6  -0.439208483863785E+00   0.167650482469823E-01   0.193922E-01   0.865785E+00   0.240175E+03  -0.305103E-16
   LPB:    7  -0.439185656594873E+00   0.469133218601626E-02   0.340295E-01   0.460783E+00   0.962064E+03  -0.398916E-16
  Finished solving LPB equations
  A_corr:   -0.359261984374729     
 End minimization
 Ecorr=   1458.59981665161     
 A_corr= -0.359261984374729     
 Ecorr_band=  -1458.95907863599     
 End Solvation calculations
DAV:   1    -0.131581900321E+03   -0.35929E-02   -0.63070E-01  4185   0.142E+00    0.253E-01
 Begin Solvation calculations
  rms_SCF =   4.995746792256448E-002 tol =   4.995746792256449E-003
 Begin minimization
 Creating dielectric and ionic cavities
  area:      152.061672379348     
  volume:    678.965948803007     
  Acav:     7.983237799915761E-002
  Solving linear dielectric/ionic screening model
        iter                  A_solv                     rms
   LPB:       -0.445438625290094E+00   0.699426302297357E+00
   LPB:    0  -0.445076741503354E+00   0.591373919620599E+00  -0.469292E-02   0.000000E+00   0.328634E+02  -0.154225E+00
   LPB:    1  -0.443208637223982E+00   0.131410405642700E+00   0.110556E-01   0.000000E+00   0.813728E+02   0.988259E-17
   LPB:    2  -0.442936920352936E+00   0.234282152348721E-01   0.136911E-01   0.117452E+00   0.252397E+03  -0.495233E-15
   LPB:    3  -0.442866034844840E+00   0.240566555096457E-01   0.257697E-01   0.138602E+00   0.643206E+03  -0.564360E-15
   LPB:    4  -0.442843067677015E+00   0.203354106403750E-01   0.231445E-01   0.360754E+00   0.119224E+03  -0.483069E-15
   LPB:    5  -0.442828952621678E+00   0.909899466607493E-02   0.249037E-01   0.571163E+00   0.335984E+03  -0.399308E-15
   LPB:    6  -0.442819592593997E+00   0.344277937830013E-02   0.349289E-01   0.472796E+00   0.299764E+03  -0.213276E-15
  Finished solving LPB equations
  A_corr:   -0.362987214594840     
 End minimization
 Ecorr=   1458.01721182931     
 A_corr= -0.362987214594840     
 Ecorr_band=  -1458.38019904390     
 End Solvation calculations
RMM:   2    -0.131585625400E+03   -0.37251E-02   -0.40573E-02  5990   0.381E-01    0.300E-01
 Begin Solvation calculations
  rms_SCF =   4.995746792256448E-002 tol =   4.995746792256449E-003
 Begin minimization
 Creating dielectric and ionic cavities
  area:      152.059796274940     
  volume:    679.056897532857     
  Acav:     7.983139304434347E-002
  Solving linear dielectric/ionic screening model
        iter                  A_solv                     rms
   LPB:       -0.443042066246565E+00   0.400131321882364E+00
   LPB:    0  -0.443035373853422E+00   0.397003791684522E+00   0.638231E-03   0.000000E+00   0.328591E+02   0.209717E-01
   LPB:    1  -0.442564470063681E+00   0.387843514487036E-01   0.901489E-02   0.000000E+00   0.733902E+02  -0.760273E-18
   LPB:    2  -0.442519295585612E+00   0.108285983991011E-01   0.163858E-01   0.527780E-01   0.150339E+03   0.928426E-16
   LPB:    3  -0.442511039507889E+00   0.958367615789459E-02   0.245007E-01   0.122228E+00   0.133418E+03   0.105055E-15
   LPB:    4  -0.442507250143872E+00   0.727956977706308E-02   0.254762E-01   0.441402E+00   0.234394E+03   0.156327E-15
   LPB:    5  -0.442504705624337E+00   0.393085686769665E-02   0.279192E-01   0.612733E+00   0.214525E+03   0.182337E-15
  Finished solving LPB equations
  A_corr:   -0.362673312579993     
 End minimization
 Ecorr=   1457.73502308166     
 A_corr= -0.362673312579993     
 Ecorr_band=  -1458.09769639424     
 End Solvation calculations
RMM:   3    -0.131584524907E+03    0.11005E-02   -0.23190E-03  5612   0.103E-01    0.173E-01
 Begin Solvation calculations
  rms_SCF =   4.995746792256448E-002 tol =   4.995746792256449E-003
 Begin minimization
 Creating dielectric and ionic cavities
  area:      152.056376065110     
  volume:    679.003273258273     
  Acav:     7.982959743418261E-002
  Solving linear dielectric/ionic screening model
        iter                  A_solv                     rms
   LPB:       -0.444598701755257E+00   0.332407031242884E+00
   LPB:    0  -0.444545600994947E+00   0.300223349471126E+00  -0.179771E-02   0.000000E+00   0.328616E+02  -0.590758E-01
   LPB:    1  -0.444182969070122E+00   0.444457914405886E-01   0.100003E-01   0.000000E+00   0.771734E+02  -0.289827E-18
   LPB:    2  -0.444137885957391E+00   0.859699818975962E-02   0.142888E-01   0.870092E-01   0.226738E+03  -0.234770E-15
   LPB:    3  -0.444127360774333E+00   0.908868421323488E-02   0.266819E-01   0.125025E+00   0.502694E+03  -0.319965E-15
   LPB:    4  -0.444123962525760E+00   0.736057941429195E-02   0.239376E-01   0.359884E+00   0.109069E+03  -0.319539E-15
   LPB:    5  -0.444121666597750E+00   0.453709902267753E-02   0.268841E-01   0.601571E+00   0.374423E+03  -0.297753E-15
  Finished solving LPB equations
  A_corr:   -0.364292069163567     
 End minimization
 Ecorr=   1457.52992710450     
 A_corr= -0.364292069163567     
 Ecorr_band=  -1457.89421917367     
 End Solvation calculations
RMM:   4    -0.131584312993E+03    0.21191E-03   -0.81696E-04  4775   0.707E-02    0.122E-01
 Begin Solvation calculations
  rms_SCF =   4.995746792256448E-002 tol =   4.995746792256449E-003
 Begin minimization
 Creating dielectric and ionic cavities
  area:      152.022690359289     
  volume:    678.989077196903     
  Acav:     7.981191243862670E-002
  Solving linear dielectric/ionic screening model
        iter                  A_solv                     rms
   LPB:       -0.447027519022722E+00   0.280466747458416E+00
   LPB:    0  -0.446919725344776E+00   0.183528376474481E+00  -0.256131E-02   0.000000E+00   0.328623E+02  -0.841706E-01
   LPB:    1  -0.446512923438385E+00   0.669586620471535E-01   0.143978E-01   0.000000E+00   0.881097E+02   0.197507E-17
   LPB:    2  -0.446460224280300E+00   0.246908396395125E-01   0.125065E-01   0.149135E+00   0.196268E+03   0.206349E-15
   LPB:    3  -0.446444123814578E+00   0.138574544441942E-01   0.225579E-01   0.169384E+00   0.161191E+03   0.211135E-15
   LPB:    4  -0.446437671506628E+00   0.991020892878557E-02   0.262279E-01   0.344676E+00   0.908059E+02   0.216840E-15
   LPB:    5  -0.446433943855755E+00   0.624670949347808E-02   0.247111E-01   0.613186E+00   0.342420E+03   0.238198E-15
   LPB:    6  -0.446431110505127E+00   0.243258078331281E-02   0.322667E-01   0.582106E+00   0.137957E+03   0.255089E-15
  Finished solving LPB equations
  A_corr:   -0.366619198066500     
 End minimization
 Ecorr=   1456.74573524512     
 A_corr= -0.366619198066500     
 Ecorr_band=  -1457.11235444319     
 End Solvation calculations
RMM:   5    -0.131584246455E+03    0.66538E-04   -0.45690E-04  4187   0.764E-02    0.791E-02
 Begin Solvation calculations
  rms_SCF =   3.542117313047784E-002 tol =   3.542117313047784E-003
 Begin minimization
 Creating dielectric and ionic cavities
  area:      152.028996873063     
  volume:    679.009120716955     
  Acav:     7.981522335835815E-002
  Solving linear dielectric/ionic screening model
        iter                  A_solv                     rms
   LPB:       -0.448782428101109E+00   0.223653956248572E+00
   LPB:    0  -0.448721201993759E+00   0.154147821764311E+00  -0.193037E-02   0.000000E+00   0.328614E+02  -0.634346E-01
   LPB:    1  -0.448459011707511E+00   0.610175979541777E-01   0.135036E-01   0.000000E+00   0.941043E+02  -0.100114E-17
   LPB:    2  -0.448430994286847E+00   0.123131105181346E-01   0.123774E-01   0.116582E+00   0.122208E+03  -0.365845E-15
   LPB:    3  -0.448422363466610E+00   0.715842490519156E-02   0.216589E-01   0.176043E+00   0.413329E+03  -0.438865E-15
   LPB:    4  -0.448418929021423E+00   0.759974978955825E-02   0.294834E-01   0.292323E+00   0.818291E+02  -0.461631E-15
   LPB:    5  -0.448416529463784E+00   0.658685351748108E-02   0.273121E-01   0.754217E+00   0.260019E+03  -0.473685E-15
   LPB:    6  -0.448414399272373E+00   0.247198989589956E-02   0.327121E-01   0.741200E+00   0.801136E+02  -0.448610E-15
  Finished solving LPB equations
  A_corr:   -0.368599175914015     
 End minimization
 Ecorr=   1456.01035045258     
 A_corr= -0.368599175914015     
 Ecorr_band=  -1456.37894962850     
 End Solvation calculations
RMM:   6    -0.131584230288E+03    0.16168E-04   -0.36534E-04  4080   0.854E-02    0.411E-02
 Begin Solvation calculations
  rms_SCF =   1.928633422422218E-002 tol =   1.928633422422218E-003
 Begin minimization
 Creating dielectric and ionic cavities
  area:      152.055283594036     
  volume:    679.041302863224     
  Acav:     7.982902388686883E-002
  Solving linear dielectric/ionic screening model
        iter                  A_solv                     rms
   LPB:       -0.450276977946465E+00   0.175265093502955E+00
   LPB:    0  -0.450232627817096E+00   0.106459696262003E+00  -0.164297E-02   0.000000E+00   0.328599E+02  -0.539878E-01
   LPB:    1  -0.450076263145474E+00   0.376724820028503E-01   0.145372E-01   0.000000E+00   0.887427E+02   0.160318E-17
   LPB:    2  -0.450063525572683E+00   0.126219224764201E-01   0.135838E-01   0.871780E-01   0.111742E+03  -0.109201E-15
   LPB:    3  -0.450059582786487E+00   0.571690880365128E-02   0.180927E-01   0.232399E+00   0.271657E+03  -0.143688E-15
   LPB:    4  -0.450057766374842E+00   0.569617437830524E-02   0.284757E-01   0.292713E+00   0.708631E+02  -0.167688E-15
   LPB:    5  -0.450056339488911E+00   0.543085138748457E-02   0.289546E-01   0.772559E+00   0.200070E+03  -0.205606E-15
   LPB:    6  -0.450054912775964E+00   0.223516596859682E-02   0.338290E-01   0.855807E+00   0.575359E+02  -0.254972E-15
   LPB:    7  -0.450053815882347E+00   0.145624624526772E-02   0.352258E-01   0.738339E+00   0.125299E+03  -0.306034E-15
  Finished solving LPB equations
  A_corr:   -0.370224791995478     
 End minimization
 Ecorr=   1455.26590467430     
 A_corr= -0.370224791995478     
 Ecorr_band=  -1455.63612946630     
 End Solvation calculations
RMM:   7    -0.131584263073E+03   -0.32786E-04   -0.97989E-05  3666   0.422E-02    0.152E-02
 Begin Solvation calculations
  rms_SCF =   1.623098995913215E-002 tol =   1.623098995913215E-003
 Begin minimization
 Creating dielectric and ionic cavities
  area:      152.072230873278     
  volume:    679.058313281473     
  Acav:     7.983792120847105E-002
  Solving linear dielectric/ionic screening model
        iter                  A_solv                     rms
   LPB:       -0.450785550554566E+00   0.785048191453553E-01
   LPB:    0  -0.450776650982864E+00   0.460204668533093E-01  -0.735990E-03   0.000000E+00   0.328591E+02  -0.241839E-01
   LPB:    1  -0.450750444700074E+00   0.947497894121511E-02   0.149521E-01   0.000000E+00   0.703749E+02  -0.620009E-18
   LPB:    2  -0.450748299316874E+00   0.474562919269324E-02   0.161878E-01   0.756160E-01   0.213317E+03   0.120108E-15
   LPB:    3  -0.450747745088314E+00   0.156901126463658E-02   0.198392E-01   0.210789E+00   0.962133E+02   0.143375E-15
   LPB:    4  -0.450747423252015E+00   0.144734027850530E-02   0.361348E-01   0.318820E+00   0.173033E+03   0.143448E-15
  Finished solving LPB equations
  A_corr:   -0.370909502043544     
 End minimization
 Ecorr=   1455.03919769758     
 A_corr= -0.370909502043544     
 Ecorr_band=  -1455.41010719962     
 End Solvation calculations
RMM:   8    -0.131584292177E+03   -0.29103E-04   -0.19667E-05  2424   0.178E-02    0.106E-02
 Begin Solvation calculations
  rms_SCF =   1.140522804119619E-002 tol =   1.140522804119619E-003
 Begin minimization
 Creating dielectric and ionic cavities
  area:      152.103363400199     
  volume:    679.092599710903     
  Acav:     7.985426578510464E-002
  Solving linear dielectric/ionic screening model
        iter                  A_solv                     rms
   LPB:       -0.451988097789054E+00   0.130415429861310E+00
   LPB:    0  -0.451966225625439E+00   0.808697455783654E-01  -0.115384E-02   0.000000E+00   0.328575E+02  -0.379121E-01
   LPB:    1  -0.451894495149329E+00   0.274272874839273E-01   0.138323E-01   0.000000E+00   0.746464E+02  -0.278131E-19
   LPB:    2  -0.451888447613175E+00   0.749978873938039E-02   0.130976E-01   0.890386E-01   0.101317E+03   0.170875E-15
   LPB:    3  -0.451886669770539E+00   0.469982644199552E-02   0.193953E-01   0.198522E+00   0.231294E+03   0.180974E-15
   LPB:    4  -0.451885753497664E+00   0.421390396009294E-02   0.271800E-01   0.367772E+00   0.541394E+02   0.191259E-15
   LPB:    5  -0.451885093094968E+00   0.309519046611018E-02   0.270160E-01   0.725124E+00   0.175040E+03   0.208320E-15
   LPB:    6  -0.451884458474765E+00   0.127415838527352E-02   0.355559E-01   0.730154E+00   0.612863E+02   0.221235E-15
   LPB:    7  -0.451883898141887E+00   0.991874142741151E-03   0.393121E-01   0.798579E+00   0.872392E+02   0.233962E-15
  Finished solving LPB equations
  A_corr:   -0.372029632356782     
 End minimization
 Ecorr=   1454.40652490447     
 A_corr= -0.372029632356782     
 Ecorr_band=  -1454.77855453682     
 End Solvation calculations
RMM:   9    -0.131584351448E+03   -0.59271E-04   -0.19586E-05  2414   0.197E-02    0.117E-02
 Begin Solvation calculations
  rms_SCF =   1.140522804119619E-002 tol =   1.140522804119619E-003
 Begin minimization
 Creating dielectric and ionic cavities
  area:      152.171404501735     
  volume:    679.160629196697     
  Acav:     7.988998736341087E-002
  Solving linear dielectric/ionic screening model
        iter                  A_solv                     rms
   LPB:       -0.454991570024272E+00   0.294404673154799E+00
   LPB:    0  -0.454875029454940E+00   0.176686070048009E+00  -0.266353E-02   0.000000E+00   0.328543E+02  -0.875083E-01
   LPB:    1  -0.454518603201939E+00   0.449227052991324E-01   0.144506E-01   0.000000E+00   0.687567E+02   0.557365E-17
   LPB:    2  -0.454490253635959E+00   0.172091773265040E-01   0.151266E-01   0.759838E-01   0.134005E+03   0.649701E-15
   LPB:    3  -0.454483515540393E+00   0.820601032411408E-02   0.177413E-01   0.202650E+00   0.159535E+03   0.577313E-15
   LPB:    4  -0.454480985981675E+00   0.760734200158290E-02   0.219490E-01   0.303445E+00   0.911570E+02   0.535361E-15
   LPB:    5  -0.454479637674570E+00   0.546331252386262E-02   0.221412E-01   0.528394E+00   0.177058E+03   0.475287E-15
   LPB:    6  -0.454478481945801E+00   0.169165869067325E-02   0.314622E-01   0.603223E+00   0.706488E+02   0.438102E-15
   LPB:    7  -0.454477554500886E+00   0.124696749641759E-02   0.377193E-01   0.669358E+00   0.938027E+02   0.427221E-15
   LPB:    8  -0.454476858055175E+00   0.868158386548569E-03   0.392145E-01   0.722296E+00   0.997456E+02   0.420996E-15
  Finished solving LPB equations
  A_corr:   -0.374586870691764     
 End minimization
 Ecorr=   1453.23482400734     
 A_corr= -0.374586870691764     
 Ecorr_band=  -1453.60941087803     
 End Solvation calculations
RMM:  10    -0.131584450780E+03   -0.99332E-04   -0.30389E-05  2595   0.138E-02    0.441E-03
 Begin Solvation calculations
  rms_SCF =   6.540287714623239E-003 tol =   6.540287714623239E-004
 Begin minimization
 Creating dielectric and ionic cavities
  area:      152.190054660738     
  volume:    679.169868537664     
  Acav:     7.989977869688762E-002
  Solving linear dielectric/ionic screening model
        iter                  A_solv                     rms
   LPB:       -0.455331658692891E+00   0.100837063807654E+00
   LPB:    0  -0.455319237631182E+00   0.626027882259325E-01  -0.869564E-03   0.000000E+00   0.328538E+02  -0.285685E-01
   LPB:    1  -0.455284337415149E+00   0.184996933391356E-01   0.131453E-01   0.000000E+00   0.650375E+02   0.729898E-18
   LPB:    2  -0.455281134840784E+00   0.502935700328378E-02   0.137027E-01   0.880311E-01   0.103058E+03  -0.606952E-16
   LPB:    3  -0.455280392024742E+00   0.324029722483333E-02   0.179668E-01   0.176895E+00   0.258105E+03  -0.642102E-16
   LPB:    4  -0.455280078923257E+00   0.242332426291773E-02   0.229913E-01   0.329391E+00   0.683826E+02  -0.710228E-16
   LPB:    5  -0.455279834841358E+00   0.196383155388010E-02   0.295262E-01   0.607025E+00   0.160236E+03  -0.876667E-16
   LPB:    6  -0.455279421638322E+00   0.996573527338967E-03   0.505897E-01   0.988036E+00   0.419872E+02  -0.935874E-16
   LPB:    7  -0.455278986108313E+00   0.794679783834124E-03   0.417019E-01   0.127868E+01   0.476117E+02  -0.131799E-15
   LPB:    8  -0.455278753545525E+00   0.496126813593565E-03   0.329140E-01   0.676547E+00   0.923247E+02  -0.174502E-15
  Finished solving LPB equations
  A_corr:   -0.375378974848637     
 End minimization
 Ecorr=   1452.70425173495     
 A_corr= -0.375378974848637     
 Ecorr_band=  -1453.07963070980     
 End Solvation calculations
RMM:  11    -0.131584482867E+03   -0.32087E-04   -0.91648E-06  2345   0.130E-02    0.678E-03
 Begin Solvation calculations
  rms_SCF =   6.540287714623239E-003 tol =   6.540287714623239E-004
 Begin minimization
 Creating dielectric and ionic cavities
  area:      152.204191472362     
  volume:    679.174271251950     
  Acav:     7.990720052298979E-002
  Solving linear dielectric/ionic screening model
        iter                  A_solv                     rms
   LPB:       -0.455939077387871E+00   0.818547600547951E-01
   LPB:    0  -0.455930665107849E+00   0.500846184011379E-01  -0.715616E-03   0.000000E+00   0.328536E+02  -0.235106E-01
   LPB:    1  -0.455909311862030E+00   0.129700569234618E-01   0.131895E-01   0.000000E+00   0.612076E+02   0.872279E-18
   LPB:    2  -0.455907400449595E+00   0.349026866550747E-02   0.141878E-01   0.832154E-01   0.118327E+03  -0.401855E-15
   LPB:    3  -0.455907038854199E+00   0.219703178714876E-02   0.172979E-01   0.155163E+00   0.248251E+03  -0.422628E-15
   LPB:    4  -0.455906923113162E+00   0.151432308348785E-02   0.195691E-01   0.282935E+00   0.867893E+02  -0.408664E-15
   LPB:    5  -0.455906864317126E+00   0.846986933072232E-03   0.224091E-01   0.443615E+00   0.206038E+03  -0.412443E-15
   LPB:    6  -0.455906804548816E+00   0.329921222942418E-03   0.403663E-01   0.564325E+00   0.769268E+02  -0.415566E-15
  Finished solving LPB equations
  A_corr:   -0.375999604025827     
 End minimization
 Ecorr=   1452.46086155054     
 A_corr= -0.375999604025827     
 Ecorr_band=  -1452.83686115456     
 End Solvation calculations
RMM:  12    -0.131584509651E+03   -0.26783E-04   -0.72915E-06  2360   0.915E-03    0.407E-03
 Begin Solvation calculations
  rms_SCF =   5.555848057023783E-003 tol =   5.555848057023783E-004
 Begin minimization
 Creating dielectric and ionic cavities
  area:      152.253623690522     
  volume:    679.189986963410     
  Acav:     7.993315243752407E-002
  Solving linear dielectric/ionic screening model
        iter                  A_solv                     rms
   LPB:       -0.458482560484539E+00   0.287921745339849E+00
   LPB:    0  -0.458383530979218E+00   0.178989328429377E+00  -0.245533E-02   0.000000E+00   0.328529E+02  -0.806648E-01
   LPB:    1  -0.458121725739186E+00   0.471161422939666E-01   0.129967E-01   0.000000E+00   0.604364E+02  -0.682944E-17
   LPB:    2  -0.458097572260865E+00   0.125852316322515E-01   0.141982E-01   0.844502E-01   0.110205E+03   0.769672E-15
   LPB:    3  -0.458092847851140E+00   0.837100932459937E-02   0.175253E-01   0.158466E+00   0.237634E+03   0.840720E-15
   LPB:    4  -0.458091048436800E+00   0.621212915726495E-02   0.212789E-01   0.313689E+00   0.739511E+02   0.847524E-15
   LPB:    5  -0.458090015037611E+00   0.311209100865779E-02   0.228600E-01   0.534578E+00   0.186904E+03   0.826709E-15
   LPB:    6  -0.458089270178360E+00   0.979666044501017E-03   0.330665E-01   0.498302E+00   0.911881E+02   0.805946E-15
   LPB:    7  -0.458088773807692E+00   0.845678814092996E-03   0.376793E-01   0.584814E+00   0.127135E+03   0.811738E-15
   LPB:    8  -0.458088431389123E+00   0.608804864354006E-03   0.390482E-01   0.665661E+00   0.109144E+03   0.818543E-15
   LPB:    9  -0.458088194779242E+00   0.457335576872372E-03   0.390579E-01   0.690825E+00   0.135015E+03   0.824761E-15
  Finished solving LPB equations
  A_corr:   -0.378155042341718     
 End minimization
 Ecorr=   1451.39400107309     
 A_corr= -0.378155042341718     
 Ecorr_band=  -1451.77215611544     
 End Solvation calculations
RMM:  13    -0.131584561748E+03   -0.52097E-04   -0.22119E-05  2507   0.996E-03    0.105E-02
 Begin Solvation calculations
  rms_SCF =   5.555848057023783E-003 tol =   5.555848057023783E-004
 Begin minimization
 Creating dielectric and ionic cavities
  area:      152.259560865191     
  volume:    679.191566288187     
  Acav:     7.993626945422509E-002
  Solving linear dielectric/ionic screening model
        iter                  A_solv                     rms
   LPB:       -0.458363938567581E+00   0.388184193812826E-01
   LPB:    0  -0.458362425478619E+00   0.261166353137261E-01  -0.303502E-03   0.000000E+00   0.328528E+02  -0.997088E-02
   LPB:    1  -0.458357589211581E+00   0.463826879490087E-02   0.133183E-01   0.000000E+00   0.529885E+02   0.808227E-18
   LPB:    2  -0.458357072383988E+00   0.187433292774606E-02   0.153363E-01   0.928037E-01   0.213360E+03  -0.160746E-15
   LPB:    3  -0.458356948632369E+00   0.149761848222203E-02   0.214567E-01   0.171144E+00   0.109018E+03  -0.185226E-15
   LPB:    4  -0.458356875986369E+00   0.149782650706414E-02   0.266157E-01   0.473244E+00   0.116837E+03  -0.184720E-15
   LPB:    5  -0.458356820891753E+00   0.104695151911782E-02   0.249514E-01   0.808987E+00   0.126726E+03  -0.178126E-15
   LPB:    6  -0.458356712270627E+00   0.567782588591430E-03   0.506951E-01   0.970361E+00   0.731503E+02  -0.173364E-15
   LPB:    7  -0.458356580349754E+00   0.362213198680094E-03   0.444077E-01   0.138646E+01   0.628900E+02  -0.170780E-15
  Finished solving LPB equations
  A_corr:   -0.378420310895529     
 End minimization
 Ecorr=   1451.19322910188     
 A_corr= -0.378420310895529     
 Ecorr_band=  -1451.57164941278     
 End Solvation calculations
RMM:  14    -0.131584565403E+03   -0.36552E-05   -0.41552E-06  2293   0.884E-03
 Begin Solvation calculations
  rms_SCF =   5.555848057023783E-003 tol =   5.555848057023783E-004
 Begin minimization
 Creating dielectric and ionic cavities
  area:      152.259280775929     
  volume:    679.191780745962     
  Acav:     7.993612240736266E-002
  Solving linear dielectric/ionic screening model
        iter                  A_solv                     rms
   LPB:       -0.458336366605046E+00   0.400574929369871E-02
   LPB:    0  -0.458336356178190E+00   0.325438104639744E-02   0.251945E-04   0.000000E+00   0.328528E+02   0.827709E-03
   LPB:    1  -0.458336269047677E+00   0.948781941923548E-03   0.136938E-01   0.000000E+00   0.731978E+02  -0.853734E-20
   LPB:    2  -0.458336244260806E+00   0.566873027140021E-03   0.191795E-01   0.203114E+00   0.367459E+03   0.436668E-17
   LPB:    3  -0.458336225795772E+00   0.622000825835478E-03   0.278915E-01   0.512263E+00   0.280353E+03   0.538040E-17
   LPB:    4  -0.458336213695274E+00   0.424163996118574E-03   0.248440E-01   0.735704E+00   0.279452E+03   0.545013E-17
  Finished solving LPB equations
  A_corr:   -0.378400091287912     
 End minimization
 Ecorr=   1451.19966860804     
 A_corr= -0.378400091287912     
 Ecorr_band=  -1451.57806869932     
 End Solvation calculations
   2 F= -.13158457E+03 E0= -.13158729E+03  d E =-.625782E-02
quench:  g(F)=  0.000E+00 g(S)=  0.000E+00 dE (1.order)= 0.000E+00
 bond charge predicted
       N       E                     dE             d eps       ncg     rms          rms(c)
 Begin Solvation calculations
  rms_SCF =   5.555848057023783E-003 tol =   5.555848057023783E-004
 Begin minimization
 Creating dielectric and ionic cavities
  area:      152.434537841910     
  volume:    679.111446786235     
  Acav:     8.002813236700251E-002
  Solving linear dielectric/ionic screening model
        iter                  A_solv                     rms
   LPB:       -0.465354312676973E+00   0.852683720131617E-02
   LPB:    0  -0.465354311139707E+00   0.874045818825850E-02  -0.967338E-05   0.000000E+00   0.328566E+02  -0.317834E-03
   LPB:    1  -0.460699206635821E+00   0.315826418325905E-02   0.153257E-01   0.000000E+00   0.426003E+06   0.141171E-19
   LPB:    2  -0.460340402592665E+00   0.371648293129288E-02   0.261467E-01   0.451785E-01   0.101074E+06  -0.954089E-16
   LPB:    3  -0.460230279784039E+00   0.836378237800253E-02   0.325135E-01   0.246817E+00   0.199988E+05  -0.101406E-15
   LPB:    4  -0.460182643642461E+00   0.222494844219418E-01   0.345671E-01   0.406874E+00   0.145052E+04  -0.103450E-15
   LPB:    5  -0.460163069203959E+00   0.308980339421827E-01   0.239785E-01   0.592372E+00   0.206745E+03  -0.996677E-16
   LPB:    6  -0.460148546690701E+00   0.994292760100493E-02   0.208680E-01   0.852496E+00   0.273515E+03  -0.108115E-15
   LPB:    7  -0.460137541418356E+00   0.478035245177519E-02   0.352825E-01   0.448209E+00   0.923609E+03  -0.965167E-16
   LPB:    8  -0.460131226879496E+00   0.905169692943445E-02   0.353971E-01   0.571918E+00   0.750267E+03  -0.122622E-15
   LPB:    9  -0.460127842782211E+00   0.828319009665970E-02   0.260376E-01   0.728564E+00   0.136701E+03  -0.127224E-15
   LPB:   10  -0.460125218217972E+00   0.313096496060647E-02   0.278569E-01   0.724906E+00   0.431102E+03  -0.119752E-15
   LPB:   11  -0.460123333487308E+00   0.943835282116577E-03   0.372209E-01   0.537450E+00   0.771562E+03  -0.123942E-15
   LPB:   12  -0.460122100965397E+00   0.969153512144290E-03   0.400517E-01   0.607731E+00   0.197193E+04  -0.995684E-16
   LPB:   13  -0.460121352593901E+00   0.116698632777238E-02   0.367519E-01   0.661704E+00   0.135887E+04  -0.771562E-16
   LPB:   14  -0.460120865172037E+00   0.102542842399668E-02   0.348369E-01   0.687112E+00   0.770797E+03  -0.633460E-16
   LPB:   15  -0.460120522188935E+00   0.645807129340852E-03   0.349692E-01   0.701005E+00   0.112535E+04  -0.542967E-16
   LPB:   16  -0.460120279235899E+00   0.413566113350714E-03   0.373620E-01   0.662988E+00   0.138819E+04  -0.496756E-16
  Finished solving LPB equations
  A_corr:   -0.380092146868896     
 End minimization
 Ecorr=   1450.99895747062     
 A_corr= -0.380092146868896     
 Ecorr_band=  -1451.37904961749     
 End Solvation calculations
DAV:   1    -0.131585802353E+03   -0.12406E-02   -0.29769E-01  4176   0.115E+00    0.111E-01
 Begin Solvation calculations
  rms_SCF =   5.555848057023783E-003 tol =   5.555848057023783E-004
 Begin minimization
 Creating dielectric and ionic cavities
  area:      152.320222181558     
  volume:    679.114525530664     
  Acav:     7.996811664531782E-002
  Solving linear dielectric/ionic screening model
        iter                  A_solv                     rms
   LPB:       -0.459955756251872E+00   0.891156799038107E-01
   LPB:    0  -0.459955694010929E+00   0.890371903675107E-01   0.615521E-04   0.000000E+00   0.328564E+02   0.202238E-02
   LPB:    1  -0.459890738514240E+00   0.336086858809818E-01   0.126221E-01   0.000000E+00   0.102856E+03  -0.216506E-18
   LPB:    2  -0.459876503650107E+00   0.570268100711359E-02   0.144832E-01   0.190988E+00   0.284735E+03  -0.197674E-17
   LPB:    3  -0.459872330552250E+00   0.249752592905657E-02   0.243408E-01   0.174435E+00   0.712526E+03  -0.395553E-16
   LPB:    4  -0.459870805487554E+00   0.284146502713961E-02   0.300795E-01   0.295729E+00   0.659647E+03  -0.494673E-16
   LPB:    5  -0.459870162679007E+00   0.324068339699689E-02   0.279664E-01   0.453343E+00   0.194324E+03  -0.660598E-16
   LPB:    6  -0.459869804141038E+00   0.208230175193798E-02   0.255729E-01   0.609973E+00   0.191961E+03  -0.992997E-16
   LPB:    7  -0.459869569896580E+00   0.100025806185053E-02   0.287596E-01   0.580940E+00   0.351962E+03  -0.104513E-15
   LPB:    8  -0.459869409350208E+00   0.480102646165601E-03   0.326227E-01   0.604218E+00   0.813655E+03  -0.974650E-16
  Finished solving LPB equations
  A_corr:   -0.379901292704890     
 End minimization
 Ecorr=   1451.03828815512     
 A_corr= -0.379901292704890     
 Ecorr_band=  -1451.41818944783     
 End Solvation calculations
RMM:   2    -0.131587049764E+03   -0.12474E-02   -0.13527E-02  4966   0.302E-01    0.818E-02
 Begin Solvation calculations
  rms_SCF =   5.555848057023783E-003 tol =   5.555848057023783E-004
 Begin minimization
 Creating dielectric and ionic cavities
  area:      152.294890076208     
  volume:    679.108186276627     
  Acav:     7.995481729000893E-002
  Solving linear dielectric/ionic screening model
        iter                  A_solv                     rms
   LPB:       -0.459876152558257E+00   0.792493915740635E-01
   LPB:    0  -0.459876143395197E+00   0.792006326028181E-01  -0.236169E-04   0.000000E+00   0.328567E+02  -0.775974E-03
   LPB:    1  -0.459855744250882E+00   0.826891407199123E-02   0.913970E-02   0.000000E+00   0.777979E+02  -0.554845E-19
   LPB:    2  -0.459853054306700E+00   0.212716453147880E-02   0.178782E-01   0.674125E-01   0.182410E+03  -0.145289E-16
   LPB:    3  -0.459852650992407E+00   0.238339744828180E-02   0.248567E-01   0.107840E+00   0.172678E+03  -0.218585E-16
   LPB:    4  -0.459852491768592E+00   0.153189651334443E-02   0.232841E-01   0.421452E+00   0.139962E+03  -0.592175E-17
   LPB:    5  -0.459852389377701E+00   0.726698971943698E-03   0.280599E-01   0.533613E+00   0.268904E+03  -0.602105E-17
   LPB:    6  -0.459852307093500E+00   0.399621606320441E-03   0.352049E-01   0.640527E+00   0.747777E+03   0.215523E-17
  Finished solving LPB equations
  A_corr:   -0.379897489803491     
 End minimization
 Ecorr=   1451.05925376255     
 A_corr= -0.379897489803491     
 Ecorr_band=  -1451.43915125235     
 End Solvation calculations
RMM:   3    -0.131586832239E+03    0.21752E-03   -0.85338E-04  5735   0.741E-02    0.616E-02
 Begin Solvation calculations
  rms_SCF =   5.555848057023783E-003 tol =   5.555848057023783E-004
 Begin minimization
 Creating dielectric and ionic cavities
  area:      152.290618332447     
  volume:    679.123098790211     
  Acav:     7.995257462453491E-002
  Solving linear dielectric/ionic screening model
        iter                  A_solv                     rms
   LPB:       -0.459563930580418E+00   0.116784195663485E+00
   LPB:    0  -0.459562493710949E+00   0.114456105598696E+00   0.295744E-03   0.000000E+00   0.328560E+02   0.971698E-02
   LPB:    1  -0.459517648013643E+00   0.121626557794462E-01   0.944585E-02   0.000000E+00   0.762647E+02  -0.185863E-18
   LPB:    2  -0.459512784659248E+00   0.250218794789390E-02   0.148858E-01   0.688154E-01   0.255777E+03  -0.814249E-17
   LPB:    3  -0.459511892310923E+00   0.189845663930961E-02   0.254272E-01   0.107416E+00   0.384747E+03  -0.228536E-17
   LPB:    4  -0.459511612647412E+00   0.178588326919586E-02   0.262775E-01   0.303261E+00   0.207334E+03   0.150834E-16
   LPB:    5  -0.459511472823364E+00   0.126879168175795E-02   0.241969E-01   0.542963E+00   0.273916E+03   0.186367E-17
   LPB:    6  -0.459511380945497E+00   0.740646399866960E-03   0.294331E-01   0.540198E+00   0.202259E+03  -0.235630E-16
   LPB:    7  -0.459511316183817E+00   0.441409805478409E-03   0.337212E-01   0.615234E+00   0.469965E+03  -0.349501E-16
  Finished solving LPB equations
  A_corr:   -0.379558741559282     
 End minimization
 Ecorr=   1451.07691577284     
 A_corr= -0.379558741559282     
 Ecorr_band=  -1451.45647451440     
 End Solvation calculations
RMM:   4    -0.131586799152E+03    0.33087E-04   -0.10369E-04  3825   0.312E-02    0.511E-02
 Begin Solvation calculations
  rms_SCF =   5.555848057023783E-003 tol =   5.555848057023783E-004
 Begin minimization
 Creating dielectric and ionic cavities
  area:      152.288065529804     
  volume:    679.112300378966     
  Acav:     7.995123440314711E-002
  Solving linear dielectric/ionic screening model
        iter                  A_solv                     rms
   LPB:       -0.459374950923625E+00   0.486901651893015E-01
   LPB:    0  -0.459374943256404E+00   0.486591764639574E-01   0.216035E-04   0.000000E+00   0.328565E+02   0.709814E-03
   LPB:    1  -0.459356029082146E+00   0.175642543159040E-01   0.121521E-01   0.000000E+00   0.108174E+03  -0.419055E-19
   LPB:    2  -0.459351592384839E+00   0.317419638489889E-02   0.146816E-01   0.194155E+00   0.247072E+03  -0.442597E-17
   LPB:    3  -0.459350675971932E+00   0.296986693803777E-02   0.258752E-01   0.117198E+00   0.238965E+03  -0.267664E-16
   LPB:    4  -0.459350372994201E+00   0.251888903924778E-02   0.227671E-01   0.375746E+00   0.164760E+03  -0.402607E-17
   LPB:    5  -0.459350192103780E+00   0.105299862610478E-02   0.254324E-01   0.534473E+00   0.166593E+03  -0.159381E-16
   LPB:    6  -0.459350071411137E+00   0.455648898416080E-03   0.331416E-01   0.512011E+00   0.507945E+03  -0.247030E-17
  Finished solving LPB equations
  A_corr:   -0.379398837007990     
 End minimization
 Ecorr=   1451.15431154299     
 A_corr= -0.379398837007990     
 Ecorr_band=  -1451.53371038000     
 End Solvation calculations
RMM:   5    -0.131586780541E+03    0.18611E-04   -0.36127E-05  2635   0.224E-02    0.295E-02
 Begin Solvation calculations
  rms_SCF =   5.555848057023783E-003 tol =   5.555848057023783E-004
 Begin minimization
 Creating dielectric and ionic cavities
  area:      152.280116124176     
  volume:    679.115127056105     
  Acav:     7.994706096519230E-002
  Solving linear dielectric/ionic screening model
        iter                  A_solv                     rms
   LPB:       -0.458930991733158E+00   0.557327049209265E-01
   LPB:    0  -0.458928714923154E+00   0.474935194939686E-01   0.372279E-03   0.000000E+00   0.328564E+02   0.122317E-01
   LPB:    1  -0.458896013550493E+00   0.227085746014899E-01   0.138732E-01   0.000000E+00   0.142044E+03  -0.355612E-18
   LPB:    2  -0.458892011813283E+00   0.485352806152534E-02   0.126547E-01   0.134155E+00   0.140854E+03  -0.607853E-16
   LPB:    3  -0.458890666097385E+00   0.146463582419464E-02   0.219114E-01   0.194217E+00   0.560134E+03  -0.552317E-16
   LPB:    4  -0.458890161618691E+00   0.104326621766377E-02   0.312911E-01   0.262506E+00   0.486631E+03  -0.526274E-16
   LPB:    5  -0.458889899925214E+00   0.145191272702252E-02   0.320050E-01   0.507169E+00   0.621408E+03  -0.480345E-16
   LPB:    6  -0.458889742584629E+00   0.158943535434291E-02   0.288179E-01   0.667735E+00   0.154546E+03  -0.523519E-16
   LPB:    7  -0.458889638171172E+00   0.109696273649165E-02   0.276656E-01   0.691253E+00   0.252744E+03  -0.567008E-16
   LPB:    8  -0.458889560662870E+00   0.511899181504416E-03   0.310469E-01   0.661475E+00   0.248584E+03  -0.758008E-16
  Finished solving LPB equations
  A_corr:   -0.378942499697678     
 End minimization
 Ecorr=   1451.24886299587     
 A_corr= -0.378942499697678     
 Ecorr_band=  -1451.62780549557     
 End Solvation calculations
RMM:   6    -0.131586778609E+03    0.19322E-05   -0.62913E-05  3486   0.377E-02
 Begin Solvation calculations
  rms_SCF =   5.555848057023783E-003 tol =   5.555848057023783E-004
 Begin minimization
 Creating dielectric and ionic cavities
  area:      152.271687197443     
  volume:    679.108537823719     
  Acav:     7.994263577865733E-002
  Solving linear dielectric/ionic screening model
        iter                  A_solv                     rms
   LPB:       -0.458701734474894E+00   0.179513053465008E-01
   LPB:    0  -0.458701512121957E+00   0.157332224677769E-01   0.116339E-03   0.000000E+00   0.328567E+02   0.382251E-02
   LPB:    1  -0.458693347481327E+00   0.910310556647162E-02   0.152579E-01   0.000000E+00   0.272809E+03   0.295811E-19
   LPB:    2  -0.458692582849176E+00   0.349669756029452E-02   0.140332E-01   0.101825E+00   0.100995E+03   0.929636E-17
   LPB:    3  -0.458692311951054E+00   0.927377684766332E-03   0.182751E-01   0.272050E+00   0.401849E+03   0.799838E-17
   LPB:    4  -0.458692211067583E+00   0.100479843837408E-02   0.255938E-01   0.265913E+00   0.577107E+03   0.122883E-16
   LPB:    5  -0.458692157295690E+00   0.111528890527459E-02   0.292389E-01   0.466561E+00   0.113634E+03   0.152068E-16
   LPB:    6  -0.458692106093623E+00   0.766936542284082E-03   0.323202E-01   0.861430E+00   0.250009E+03   0.839667E-17
   LPB:    7  -0.458692055724404E+00   0.399088175883797E-03   0.361819E-01   0.878739E+00   0.197042E+03   0.732355E-17
  Finished solving LPB equations
  A_corr:   -0.378749419945747     
 End minimization
 Ecorr=   1451.30559358031     
 A_corr= -0.378749419945747     
 Ecorr_band=  -1451.68434300026     
 End Solvation calculations
   3 F= -.13158678E+03 E0= -.13158948E+03  d E =-.221321E-02
quench:  g(F)=  0.000E+00 g(S)=  0.000E+00 dE (1.order)= 0.000E+00
 bond charge predicted
       N       E                     dE             d eps       ncg     rms          rms(c)
 Begin Solvation calculations
  rms_SCF =   5.555848057023783E-003 tol =   5.555848057023783E-004
 Begin minimization
 Creating dielectric and ionic cavities
  area:      152.628057268895     
  volume:    679.004987722508     
  Acav:     8.012973006616977E-002
  Solving linear dielectric/ionic screening model
        iter                  A_solv                     rms
   LPB:       -0.472968160238809E+00   0.128653084188424E-01
   LPB:    0  -0.472968157435570E+00   0.131409079096963E-01  -0.130617E-04   0.000000E+00   0.328616E+02  -0.429229E-03
   LPB:    1  -0.462746238928421E+00   0.581653375838739E-02   0.152064E-01   0.000000E+00   0.431806E+06  -0.611039E-21
   LPB:    2  -0.462042235640220E+00   0.686290606555999E-02   0.254922E-01   0.410829E-01   0.601374E+05   0.224412E-16
   LPB:    3  -0.461837703264984E+00   0.152866393297762E-01   0.320098E-01   0.231372E+00   0.112369E+05   0.215469E-16
   LPB:    4  -0.461751938261750E+00   0.398785947038445E-01   0.332698E-01   0.403441E+00   0.898649E+03   0.209503E-16
   LPB:    5  -0.461716293494776E+00   0.385433715300098E-01   0.206252E-01   0.670406E+00   0.169279E+03   0.231232E-16
   LPB:    6  -0.461684822317622E+00   0.987575321657605E-02   0.244964E-01   0.743385E+00   0.426158E+03   0.392934E-16
   LPB:    7  -0.461662914154457E+00   0.316931204582102E-02   0.375112E-01   0.454605E+00   0.241652E+04   0.655674E-16
   LPB:    8  -0.461649813914143E+00   0.517843693765648E-02   0.388466E-01   0.577405E+00   0.120204E+04   0.907604E-16
   LPB:    9  -0.461642443180331E+00   0.100735252749588E-01   0.345995E-01   0.631706E+00   0.733153E+03   0.109881E-15
   LPB:   10  -0.461638339835987E+00   0.849675277286038E-02   0.256026E-01   0.752339E+00   0.143599E+03   0.120155E-15
   LPB:   11  -0.461635056646844E+00   0.375732811447030E-02   0.294651E-01   0.695239E+00   0.476864E+03   0.752331E-16
   LPB:   12  -0.461632671701248E+00   0.212801576453111E-02   0.373100E-01   0.573674E+00   0.486687E+03   0.302329E-16
   LPB:   13  -0.461631191915854E+00   0.194692450155805E-02   0.351919E-01   0.657814E+00   0.127657E+04  -0.505266E-16
   LPB:   14  -0.461630184096967E+00   0.136033156679239E-02   0.345692E-01   0.693325E+00   0.644703E+03  -0.854479E-16
   LPB:   15  -0.461629474891145E+00   0.806878869823904E-03   0.360507E-01   0.674786E+00   0.143852E+04  -0.116415E-15
   LPB:   16  -0.461628972495305E+00   0.590763956568817E-03   0.385390E-01   0.662654E+00   0.134301E+04  -0.149923E-15
   LPB:   17  -0.461628669845143E+00   0.693194437670078E-03   0.374025E-01   0.620719E+00   0.146715E+04  -0.176178E-15
   LPB:   18  -0.461628457474320E+00   0.678799502154484E-03   0.364994E-01   0.719065E+00   0.109344E+04  -0.192105E-15
   LPB:   19  -0.461628306956456E+00   0.462725422868508E-03   0.351208E-01   0.736570E+00   0.110037E+04  -0.203335E-15
  Finished solving LPB equations
  A_corr:   -0.381498576890286     
 End minimization
 Ecorr=   1451.00842345363     
 A_corr= -0.381498576890286     
 Ecorr_band=  -1451.38992203052     
 End Solvation calculations
DAV:   1    -0.131586996772E+03   -0.21623E-03   -0.63344E-01  4176   0.174E+00    0.146E-01
 Begin Solvation calculations
  rms_SCF =   5.555848057023783E-003 tol =   5.555848057023783E-004
 Begin minimization
 Creating dielectric and ionic cavities
  area:      152.352172626797     
  volume:    678.934039923254     
  Acav:     7.998489062906855E-002
  Solving linear dielectric/ionic screening model
        iter                  A_solv                     rms
   LPB:       -0.463132848512751E+00   0.183568938487121E+00
   LPB:    0  -0.463093933790422E+00   0.137209935786065E+00  -0.153888E-02   0.000000E+00   0.328649E+02  -0.505752E-01
   LPB:    1  -0.462939623732919E+00   0.445334206313510E-01   0.123945E-01   0.000000E+00   0.941478E+02  -0.131544E-17
   LPB:    2  -0.462917257467892E+00   0.942107879928608E-02   0.135526E-01   0.132558E+00   0.212154E+03  -0.366800E-16
   LPB:    3  -0.462910227245093E+00   0.784138583932228E-02   0.232702E-01   0.183062E+00   0.518669E+03  -0.393270E-16
   LPB:    4  -0.462907891450722E+00   0.664630504943857E-02   0.213712E-01   0.361773E+00   0.149426E+03  -0.341184E-16
   LPB:    5  -0.462906522338868E+00   0.279145074130739E-02   0.247933E-01   0.505241E+00   0.249686E+03  -0.289072E-17
   LPB:    6  -0.462905759883544E+00   0.116212114085474E-02   0.335301E-01   0.411790E+00   0.334573E+03  -0.981557E-17
   LPB:    7  -0.462905345168147E+00   0.724373993761673E-03   0.345622E-01   0.527678E+00   0.968311E+03   0.107110E-16
   LPB:    8  -0.462905097053375E+00   0.536000635532747E-03   0.347562E-01   0.594937E+00   0.810320E+03   0.295487E-16
  Finished solving LPB equations
  A_corr:   -0.382920206424306     
 End minimization
 Ecorr=   1450.89273101082     
 A_corr= -0.382920206424306     
 Ecorr_band=  -1451.27565121724     
 End Solvation calculations
RMM:   2    -0.131589423998E+03   -0.24272E-02   -0.25965E-02  4946   0.461E-01    0.115E-01
 Begin Solvation calculations
  rms_SCF =   5.555848057023783E-003 tol =   5.555848057023783E-004
 Begin minimization
 Creating dielectric and ionic cavities
  area:      152.318786943323     
  volume:    678.975099253720     
  Acav:     7.996736314524436E-002
  Solving linear dielectric/ionic screening model
        iter                  A_solv                     rms
   LPB:       -0.462798341587123E+00   0.949608300110990E-01
   LPB:    0  -0.462796540951793E+00   0.911233225667312E-01   0.331035E-03   0.000000E+00   0.328630E+02   0.108788E-01
   LPB:    1  -0.462770786729464E+00   0.883106222607036E-02   0.915307E-02   0.000000E+00   0.728144E+02   0.764362E-18
   LPB:    2  -0.462768104093484E+00   0.331777400664721E-02   0.164052E-01   0.581164E-01   0.171453E+03  -0.213659E-16
   LPB:    3  -0.462767532772096E+00   0.310356353149071E-02   0.239074E-01   0.146140E+00   0.123675E+03  -0.337058E-16
   LPB:    4  -0.462767286558979E+00   0.162941579077066E-02   0.232499E-01   0.443142E+00   0.169650E+03  -0.575153E-16
   LPB:    5  -0.462767130086939E+00   0.581101662382487E-03   0.273511E-01   0.540222E+00   0.495910E+03  -0.856788E-16
   LPB:    6  -0.462767037432367E+00   0.367582196813395E-03   0.345560E-01   0.468685E+00   0.114490E+04  -0.109303E-15
  Finished solving LPB equations
  A_corr:   -0.382799674287123     
 End minimization
 Ecorr=   1450.86069760718     
 A_corr= -0.382799674287123     
 Ecorr_band=  -1451.24349728147     
 End Solvation calculations
RMM:   3    -0.131589050846E+03    0.37315E-03   -0.20163E-03  5393   0.128E-01    0.846E-02
 Begin Solvation calculations
  rms_SCF =   5.555848057023783E-003 tol =   5.555848057023783E-004
 Begin minimization
 Creating dielectric and ionic cavities
  area:      152.313937335771     
  volume:    678.949511524228     
  Acav:     7.996481710127994E-002
  Solving linear dielectric/ionic screening model
        iter                  A_solv                     rms
   LPB:       -0.463385112588876E+00   0.140441125651669E+00
   LPB:    0  -0.463378123093496E+00   0.130795191965590E+00  -0.652194E-03   0.000000E+00   0.328642E+02  -0.214338E-01
   LPB:    1  -0.463317244664496E+00   0.146412879748456E-01   0.956272E-02   0.000000E+00   0.759484E+02   0.465579E-18
   LPB:    2  -0.463310840966880E+00   0.345233282630271E-02   0.144597E-01   0.695648E-01   0.252645E+03  -0.396947E-16
[...]
  Finished solving LPB equations
  A_corr:   -0.365030374664225     
 End minimization
 Ecorr=   1463.39191242324     
 A_corr= -0.365030374664225     
 Ecorr_band=  -1463.75694279790     
 End Solvation calculations
RMM:   2    -0.131603402657E+03   -0.20430E-04   -0.22842E-04  3526   0.272E-02    0.157E-02
 Begin Solvation calculations
  rms_SCF =   8.131785145874371E-004 tol =   8.131785145874372E-005
 Begin minimization
 Creating dielectric and ionic cavities
  area:      152.025684277794     
  volume:    677.251736622332     
  Acav:     7.981348424584181E-002
  Solving linear dielectric/ionic screening model
        iter                  A_solv                     rms
   LPB:       -0.444827968852428E+00   0.253421466974603E-01
   LPB:    0  -0.444827946533359E+00   0.251657404165081E-01   0.368101E-04   0.000000E+00   0.329438E+02   0.121266E-02
   LPB:    1  -0.444826052159491E+00   0.242266208282724E-02   0.900991E-02   0.000000E+00   0.735135E+02  -0.186352E-19
   LPB:    2  -0.444825871320334E+00   0.569734379282018E-03   0.160570E-01   0.535652E-01   0.160135E+03   0.842510E-18
   LPB:    3  -0.444825844980603E+00   0.441116449000814E-03   0.233433E-01   0.100189E+00   0.184875E+03   0.257920E-18
   LPB:    4  -0.444825835845877E+00   0.357566251724807E-03   0.256757E-01   0.315300E+00   0.167816E+03   0.166643E-17
   LPB:    5  -0.444825830976682E+00   0.186685778131038E-03   0.239252E-01   0.572044E+00   0.248402E+03   0.612218E-17
   LPB:    6  -0.444825827859815E+00   0.990705622314744E-04   0.307798E-01   0.497565E+00   0.391061E+03   0.947006E-17
   LPB:    7  -0.444825825858547E+00   0.679521944738848E-04   0.339842E-01   0.581535E+00   0.662123E+03   0.109591E-16
  Finished solving LPB equations
  A_corr:   -0.365012341612705     
 End minimization
 Ecorr=   1463.38850566639     
 A_corr= -0.365012341612705     
 Ecorr_band=  -1463.75351800800     
 End Solvation calculations
RMM:   3    -0.131603398555E+03    0.41021E-05   -0.86012E-06  2239   0.122E-02
 Begin Solvation calculations
  rms_SCF =   8.131785145874371E-004 tol =   8.131785145874372E-005
 Begin minimization
 Creating dielectric and ionic cavities
  area:      152.026086997561     
  volume:    677.249244913446     
  Acav:     7.981369567371953E-002
  Solving linear dielectric/ionic screening model
        iter                  A_solv                     rms
   LPB:       -0.444872187858021E+00   0.194164090057634E-01
   LPB:    0  -0.444872138703239E+00   0.189291343482148E-01  -0.546274E-04   0.000000E+00   0.329439E+02  -0.179964E-02
   LPB:    1  -0.444870953953243E+00   0.189742025957892E-02   0.929863E-02   0.000000E+00   0.758447E+02   0.154925E-19
   LPB:    2  -0.444870832121380E+00   0.436785529509116E-03   0.150880E-01   0.633753E-01   0.234826E+03  -0.159413E-17
   LPB:    3  -0.444870811103688E+00   0.376632133186816E-03   0.244836E-01   0.106312E+00   0.308578E+03  -0.280901E-17
   LPB:    4  -0.444870804236430E+00   0.301715593821002E-03   0.244341E-01   0.327400E+00   0.166862E+03   0.164251E-19
   LPB:    5  -0.444870800690641E+00   0.162817424040567E-03   0.236818E-01   0.532734E+00   0.297533E+03   0.496981E-17
   LPB:    6  -0.444870798513338E+00   0.939905066299549E-04   0.308851E-01   0.470839E+00   0.272871E+03   0.653457E-17
   LPB:    7  -0.444870796998776E+00   0.611956675061837E-04   0.348733E-01   0.616060E+00   0.591628E+03   0.875131E-17
  Finished solving LPB equations
  A_corr:   -0.365057101325056     
 End minimization
 Ecorr=   1463.38718030133     
 A_corr= -0.365057101325056     
 Ecorr_band=  -1463.75223740265     
 End Solvation calculations
 176 F= -.13160340E+03 E0= -.13160536E+03  d E =-.414345E-04
quench:  g(F)=  0.000E+00 g(S)=  0.000E+00 dE (1.order)= 0.000E+00
 bond charge predicted
       N       E                     dE             d eps       ncg     rms          rms(c)
 Begin Solvation calculations
  rms_SCF =   8.131785145874371E-004 tol =   8.131785145874372E-005
 Begin minimization
 Creating dielectric and ionic cavities
  area:      152.025190515766     
  volume:    677.248235962972     
  Acav:     7.981322502077737E-002
  Solving linear dielectric/ionic screening model
        iter                  A_solv                     rms
   LPB:       -0.444969112391937E+00   0.856570731571286E-03
   LPB:    0  -0.444969112391503E+00   0.857073537273821E-03  -0.162407E-06   0.000000E+00   0.329439E+02  -0.535033E-05
   LPB:    1  -0.444899401627929E+00   0.339325203676304E-03   0.162187E-01   0.000000E+00   0.717612E+06   0.173781E-21
   LPB:    2  -0.444890439530331E+00   0.187273210466861E-03   0.275738E-01   0.756184E-01   0.181217E+06   0.121281E-18
   LPB:    3  -0.444887441186299E+00   0.236936226931619E-03   0.330487E-01   0.279135E+00   0.129173E+06  -0.141163E-17
   LPB:    4  -0.444886137389673E+00   0.461459543180781E-03   0.356854E-01   0.402710E+00   0.333243E+05  -0.146661E-17
   LPB:    5  -0.444885498933597E+00   0.104637925928421E-02   0.368854E-01   0.473758E+00   0.461803E+04  -0.276593E-18
   LPB:    6  -0.444885176893777E+00   0.215883726100335E-02   0.344050E-01   0.540770E+00   0.551099E+03   0.651755E-17
   LPB:    7  -0.444885017486566E+00   0.211054768242532E-02   0.238753E-01   0.713297E+00   0.175594E+03   0.487911E-17
   LPB:    8  -0.444884894521256E+00   0.128454962782578E-02   0.254104E-01   0.724788E+00   0.320180E+03   0.121109E-16
   LPB:    9  -0.444884818222981E+00   0.163658539804314E-02   0.276731E-01   0.569752E+00   0.258845E+03  -0.421056E-17
   LPB:   10  -0.444884766508574E+00   0.785798240336636E-03   0.220709E-01   0.849837E+00   0.201201E+03  -0.142116E-16
   LPB:   11  -0.444884723133720E+00   0.265888762231733E-03   0.336072E-01   0.550825E+00   0.768950E+03  -0.227168E-16
   LPB:   12  -0.444884693372289E+00   0.209257722058703E-03   0.382746E-01   0.602473E+00   0.237419E+04  -0.313375E-16
   LPB:   13  -0.444884674931877E+00   0.208309790585088E-03   0.347900E-01   0.681669E+00   0.158353E+04  -0.355227E-16
   LPB:   14  -0.444884662674820E+00   0.141554723581863E-03   0.332666E-01   0.695122E+00   0.151782E+04  -0.382030E-16
   LPB:   15  -0.444884653768936E+00   0.803994193734445E-04   0.369114E-01   0.654846E+00   0.262965E+04  -0.399351E-16
  Finished solving LPB equations
  A_corr:   -0.365071428748159     
 End minimization
 Ecorr=   1463.38552050343     
 A_corr= -0.365071428748159     
 Ecorr_band=  -1463.75059193218     
 End Solvation calculations
DAV:   1    -0.131603422871E+03   -0.20214E-04   -0.47338E-03  4455   0.117E-01    0.171E-02
 Begin Solvation calculations
  rms_SCF =   8.131785145874371E-004 tol =   8.131785145874372E-005
 Begin minimization
 Creating dielectric and ionic cavities
  area:      152.027617148570     
  volume:    677.257871539501     
  Acav:     7.981449900299944E-002
  Solving linear dielectric/ionic screening model
        iter                  A_solv                     rms
   LPB:       -0.444775846345034E+00   0.415873820441636E-01
   LPB:    0  -0.444775466548702E+00   0.397921717540703E-01   0.151847E-03   0.000000E+00   0.329435E+02   0.500236E-02
   LPB:    1  -0.444769462591414E+00   0.504726038248008E-02   0.978277E-02   0.000000E+00   0.780522E+02   0.436986E-18
   LPB:    2  -0.444768666780607E+00   0.114562837009528E-02   0.151175E-01   0.857735E-01   0.310457E+03  -0.249968E-16
   LPB:    3  -0.444768499148753E+00   0.106264946802984E-02   0.251139E-01   0.126798E+00   0.458422E+03  -0.332221E-16
   LPB:    4  -0.444768446150286E+00   0.895935321240510E-03   0.238068E-01   0.333519E+00   0.169029E+03  -0.404885E-16
   LPB:    5  -0.444768417645611E+00   0.435625585099774E-03   0.237421E-01   0.539305E+00   0.284749E+03  -0.470085E-16
   LPB:    6  -0.444768400592380E+00   0.227793810309730E-03   0.312343E-01   0.454756E+00   0.334774E+03  -0.530850E-16
   LPB:    7  -0.444768390641464E+00   0.139028385542738E-03   0.329131E-01   0.553757E+00   0.683064E+03  -0.540790E-16
   LPB:    8  -0.444768384255387E+00   0.770160286114241E-04   0.351711E-01   0.600556E+00   0.775616E+03  -0.551756E-16
  Finished solving LPB equations
  A_corr:   -0.364953885252388     
 End minimization
 Ecorr=   1463.39260685222     
 A_corr= -0.364953885252388     
 Ecorr_band=  -1463.75756073747     
 End Solvation calculations
RMM:   2    -0.131603443086E+03   -0.20215E-04   -0.21921E-04  3516   0.264E-02    0.176E-02
 Begin Solvation calculations
  rms_SCF =   8.131785145874371E-004 tol =   8.131785145874372E-005
 Begin minimization
 Creating dielectric and ionic cavities
  area:      152.027437238900     
  volume:    677.253027582395     
  Acav:     7.981440455042275E-002
  Solving linear dielectric/ionic screening model
        iter                  A_solv                     rms
   LPB:       -0.444799238261667E+00   0.318322706035709E-01
   LPB:    0  -0.444799189211758E+00   0.315379323925514E-01  -0.545692E-04   0.000000E+00   0.329437E+02  -0.179771E-02
   LPB:    1  -0.444796232553595E+00   0.303927907930054E-02   0.900563E-02   0.000000E+00   0.730894E+02   0.828027E-21
   LPB:    2  -0.444795958265379E+00   0.732334088840115E-03   0.158948E-01   0.525612E-01   0.156736E+03   0.443036E-17
   LPB:    3  -0.444795918604538E+00   0.552070978614299E-03   0.230870E-01   0.995504E-01   0.170486E+03   0.857801E-17
   LPB:    4  -0.444795905597750E+00   0.423613763348941E-03   0.246712E-01   0.306892E+00   0.165353E+03   0.122085E-16
   LPB:    5  -0.444795898881475E+00   0.199832435355734E-03   0.234026E-01   0.544358E+00   0.255146E+03   0.177405E-16
   LPB:    6  -0.444795895067475E+00   0.105282370576688E-03   0.298586E-01   0.445089E+00   0.405239E+03   0.237823E-16
   LPB:    7  -0.444795892844740E+00   0.688505713400749E-04   0.327749E-01   0.530927E+00   0.609442E+03   0.267428E-16
  Finished solving LPB equations
  A_corr:   -0.364981488294317     
 End minimization
 Ecorr=   1463.39919214701     
 A_corr= -0.364981488294317     
 Ecorr_band=  -1463.76417363530     
 End Solvation calculations
RMM:   3    -0.131603438374E+03    0.47124E-05   -0.96743E-06  2261   0.134E-02
 Begin Solvation calculations
  rms_SCF =   8.131785145874371E-004 tol =   8.131785145874372E-005
 Begin minimization
 Creating dielectric and ionic cavities
  area:      152.026587604391     
  volume:    677.255064626147     
  Acav:     7.981395849230506E-002
  Solving linear dielectric/ionic screening model
        iter                  A_solv                     rms
   LPB:       -0.444752710284265E+00   0.179279481279704E-01
   LPB:    0  -0.444752667604532E+00   0.174688818451999E-01   0.509026E-04   0.000000E+00   0.329436E+02   0.167692E-02
   LPB:    1  -0.444751658432092E+00   0.173375037696827E-02   0.927223E-02   0.000000E+00   0.762715E+02   0.104286E-18
   LPB:    2  -0.444751555388866E+00   0.399362609928943E-03   0.151688E-01   0.624146E-01   0.234728E+03   0.553530E-17
   LPB:    3  -0.444751537242534E+00   0.351560266508253E-03   0.246629E-01   0.108312E+00   0.325471E+03   0.327882E-17
   LPB:    4  -0.444751531180091E+00   0.282199932967978E-03   0.246024E-01   0.334909E+00   0.167502E+03   0.419084E-17
   LPB:    5  -0.444751528090605E+00   0.153004790438597E-03   0.235412E-01   0.532582E+00   0.307169E+03   0.275499E-17
   LPB:    6  -0.444751526176502E+00   0.873253575966365E-04   0.310593E-01   0.469587E+00   0.275219E+03   0.219603E-18
   LPB:    7  -0.444751524801927E+00   0.592715992046015E-04   0.354338E-01   0.629473E+00   0.684464E+03  -0.215072E-17
  Finished solving LPB equations
  A_corr:   -0.364937566309622     
 End minimization
 Ecorr=   1463.40104251474     
 A_corr= -0.364937566309622     
 Ecorr_band=  -1463.76598008105     
 End Solvation calculations
 177 F= -.13160344E+03 E0= -.13160539E+03  d E =-.398182E-04
quench:  g(F)=  0.000E+00 g(S)=  0.000E+00 dE (1.order)= 0.000E+00
 bond charge predicted
       N       E                     dE             d eps       ncg     rms          rms(c)
 Begin Solvation calculations
  rms_SCF =   8.131785145874371E-004 tol =   8.131785145874372E-005
 Begin minimization
 Creating dielectric and ionic cavities
  area:      152.029984305511     
  volume:    677.256861155940     
  Acav:     7.981574176039333E-002
  Solving linear dielectric/ionic screening model
        iter                  A_solv                     rms
   LPB:       -0.444820935193232E+00   0.885310060289691E-03
   LPB:    0  -0.444820935192864E+00   0.885566665818396E-03   0.149640E-06   0.000000E+00   0.329435E+02   0.492968E-05
   LPB:    1  -0.444748284909109E+00   0.339257063887278E-03   0.156003E-01   0.000000E+00   0.759112E+06  -0.334820E-21
   LPB:    2  -0.444740233040622E+00   0.169228076329968E-03   0.272716E-01   0.633991E-01   0.167063E+06  -0.242609E-18
   LPB:    3  -0.444737617880455E+00   0.211336668870317E-03   0.328421E-01   0.269700E+00   0.130065E+06  -0.944089E-19
   LPB:    4  -0.444736490555441E+00   0.406714297183187E-03   0.357062E-01   0.396496E+00   0.335246E+05  -0.313642E-18
   LPB:    5  -0.444735934985506E+00   0.969461286948087E-03   0.371160E-01   0.474101E+00   0.527248E+04   0.250842E-17
   LPB:    6  -0.444735651539854E+00   0.212482967726448E-02   0.346859E-01   0.545933E+00   0.566210E+03   0.297634E-17
   LPB:    7  -0.444735512291220E+00   0.211569198898450E-02   0.231758E-01   0.735256E+00   0.176336E+03   0.816399E-17
   LPB:    8  -0.444735400205695E+00   0.121967142105920E-02   0.250369E-01   0.745099E+00   0.328722E+03  -0.699710E-19
   LPB:    9  -0.444735328483309E+00   0.148620476926955E-02   0.282287E-01   0.567537E+00   0.252538E+03   0.983869E-18
   LPB:   10  -0.444735279957135E+00   0.735839749963521E-03   0.229718E-01   0.831415E+00   0.200386E+03   0.101021E-17
   LPB:   11  -0.444735239607311E+00   0.257101820157308E-03   0.340048E-01   0.561722E+00   0.717571E+03   0.626818E-17
   LPB:   12  -0.444735211997524E+00   0.197108742825028E-03   0.381777E-01   0.609469E+00   0.234450E+04   0.109127E-16
   LPB:   13  -0.444735194911884E+00   0.199226609467688E-03   0.350406E-01   0.674226E+00   0.159433E+04   0.147822E-16
   LPB:   14  -0.444735183516994E+00   0.139738852064262E-03   0.334002E-01   0.699685E+00   0.149440E+04   0.170926E-16
   LPB:   15  -0.444735175248718E+00   0.791710391634892E-04   0.365817E-01   0.662505E+00   0.244823E+04   0.184453E-16
  Finished solving LPB equations
  A_corr:   -0.364919433488325     
 End minimization
 Ecorr=   1463.40488103963     
 A_corr= -0.364919433488325     
 Ecorr_band=  -1463.76980047311     
 End Solvation calculations
DAV:   1    -0.131603462488E+03   -0.19402E-04   -0.47768E-03  4392   0.116E-01    0.166E-02
 Begin Solvation calculations
  rms_SCF =   8.131785145874371E-004 tol =   8.131785145874372E-005
 Begin minimization
 Creating dielectric and ionic cavities
  area:      152.025685114040     
  volume:    677.249523048588     
  Acav:     7.981348468487125E-002
  Solving linear dielectric/ionic screening model
        iter                  A_solv                     rms
   LPB:       -0.444817428048906E+00   0.296467177103320E-01
   LPB:    0  -0.444817242603958E+00   0.284220089972861E-01  -0.106105E-03   0.000000E+00   0.329439E+02  -0.349550E-02
   LPB:    1  -0.444813854905459E+00   0.438848487548234E-02   0.101564E-01   0.000000E+00   0.801748E+02  -0.200656E-19
   LPB:    2  -0.444813329024204E+00   0.938313466835453E-03   0.151908E-01   0.103787E+00   0.354709E+03   0.791277E-17
   LPB:    3  -0.444813208170097E+00   0.817774694499164E-03   0.253345E-01   0.137798E+00   0.530896E+03   0.711817E-17
   LPB:    4  -0.444813168530924E+00   0.773759569743628E-03   0.252241E-01   0.329428E+00   0.193306E+03   0.865385E-17
   LPB:    5  -0.444813148100767E+00   0.413268438904553E-03   0.232276E-01   0.559703E+00   0.254352E+03   0.779345E-18
   LPB:    6  -0.444813135172340E+00   0.215088826091556E-03   0.309210E-01   0.475363E+00   0.326653E+03   0.961942E-18
   LPB:    7  -0.444813127486392E+00   0.128578826116270E-03   0.331153E-01   0.555107E+00   0.661111E+03   0.530567E-17
   LPB:    8  -0.444813122473738E+00   0.713332365876564E-04   0.350741E-01   0.615761E+00   0.850740E+03   0.766037E-17
  Finished solving LPB equations
  A_corr:   -0.364999637788867     
 End minimization
 Ecorr=   1463.39962126937     
 A_corr= -0.364999637788867     
 Ecorr_band=  -1463.76462090716     
 End Solvation calculations
RMM:   2    -0.131603481690E+03   -0.19202E-04   -0.21716E-04  3491   0.266E-02    0.147E-02
 Begin Solvation calculations
  rms_SCF =   8.131785145874371E-004 tol =   8.131785145874372E-005
 Begin minimization
 Creating dielectric and ionic cavities
  area:      152.026016047481     
  volume:    677.252532120363     
  Acav:     7.981365842492752E-002
  Solving linear dielectric/ionic screening model
        iter                  A_solv                     rms
   LPB:       -0.444800205804941E+00   0.218754537729259E-01
   LPB:    0  -0.444800189822873E+00   0.217267919293155E-01   0.311491E-04   0.000000E+00   0.329437E+02   0.102617E-02
   LPB:    1  -0.444798766150600E+00   0.209697161292651E-02   0.903752E-02   0.000000E+00   0.736669E+02   0.282414E-19
   LPB:    2  -0.444798626489502E+00   0.492083574957396E-03   0.160747E-01   0.551532E-01   0.165867E+03  -0.359928E-17
   LPB:    3  -0.444798605723283E+00   0.390686219989382E-03   0.235746E-01   0.101387E+00   0.194135E+03  -0.546640E-17
   LPB:    4  -0.444798598307032E+00   0.324649863395561E-03   0.260564E-01   0.323115E+00   0.169655E+03  -0.415256E-17
   LPB:    5  -0.444798594269785E+00   0.174327453686956E-03   0.241930E-01   0.586307E+00   0.248193E+03  -0.594177E-17
   LPB:    6  -0.444798591567251E+00   0.936848732289220E-04   0.312517E-01   0.518206E+00   0.396651E+03  -0.759254E-17
   LPB:    7  -0.444798589774387E+00   0.649918144959025E-04   0.344261E-01   0.602228E+00   0.676388E+03  -0.785265E-17
  Finished solving LPB equations
  A_corr:   -0.364984931349460     
 End minimization
 Ecorr=   1463.39712120268     
 A_corr= -0.364984931349460     
 Ecorr_band=  -1463.76210613403     
 End Solvation calculations
RMM:   3    -0.131603477945E+03    0.37445E-05   -0.79692E-06  2223   0.118E-02
 Begin Solvation calculations
  rms_SCF =   8.131785145874371E-004 tol =   8.131785145874372E-005
 Begin minimization
 Creating dielectric and ionic cavities
  area:      152.026333884445     
  volume:    677.250093498407     
  Acav:     7.981382528933370E-002
  Solving linear dielectric/ionic screening model
        iter                  A_solv                     rms
   LPB:       -0.444843886695777E+00   0.189746848567216E-01
   LPB:    0  -0.444843839889515E+00   0.184968118460790E-01  -0.533065E-04   0.000000E+00   0.329438E+02  -0.175612E-02
   LPB:    1  -0.444842706095190E+00   0.185947454382597E-02   0.930431E-02   0.000000E+00   0.759092E+02  -0.644799E-19
   LPB:    2  -0.444842589064265E+00   0.427533210382719E-03   0.150887E-01   0.636501E-01   0.235880E+03  -0.186428E-19
   LPB:    3  -0.444842568829110E+00   0.369195426169061E-03   0.244872E-01   0.106541E+00   0.312455E+03   0.395369E-17
   LPB:    4  -0.444842562218894E+00   0.296625045864298E-03   0.244619E-01   0.327007E+00   0.165775E+03   0.689026E-17
   LPB:    5  -0.444842558781833E+00   0.160849869339939E-03   0.237573E-01   0.535384E+00   0.296917E+03   0.118640E-16
   LPB:    6  -0.444842556666745E+00   0.924209883930278E-04   0.308536E-01   0.473840E+00   0.269047E+03   0.133301E-16
   LPB:    7  -0.444842555209241E+00   0.597094724069003E-04   0.346927E-01   0.612843E+00   0.584511E+03   0.139578E-16
  Finished solving LPB equations
  A_corr:   -0.365028729919908     
 End minimization
 Ecorr=   1463.39543521788     
 A_corr= -0.365028729919908     
 Ecorr_band=  -1463.76046394780     
 End Solvation calculations
 178 F= -.13160348E+03 E0= -.13160544E+03  d E =-.395715E-04
quench:  g(F)=  0.000E+00 g(S)=  0.000E+00 dE (1.order)= 0.000E+00
 reached required accuracy - stopping structural energy minimisation
