 vasp.5.4.4.18Apr17-6-g9f103f2a35 (build Feb 06 2024 13:54:16) complex          
  
 POSCAR found type information on POSCAR  Cu Rh Cu N  O 
 04/POSCAR found :  5 types and      40 ions
 scaLAPACK will be used

 ----------------------------------------------------------------------------- 
|                                                                             |
|  ADVICE TO THIS USER RUNNING 'VASP/VAMP'   (HEAR YOUR MASTER'S VOICE ...):  |
|                                                                             |
|      You enforced a specific xc-type in the INCAR file,                     |
|      a different type was found on the POTCAR file                          |
|          I HOPE YOU KNOW, WHAT YOU ARE  DOING                               |
|                                                                             |
 ----------------------------------------------------------------------------- 

 LDA part: xc-table for Pade appr. of Perdew
 POSCAR found type information on POSCAR  Cu Rh Cu N  O 
 00/POSCAR found :  5 types and      40 ions
 POSCAR found type information on POSCAR  Cu Rh Cu N  O 
 06/POSCAR found :  5 types and      40 ions
 Jacobian:    19.9537150754471     
 POSCAR, INCAR and KPOINTS ok, starting setup
 FFT: planning ...
 WAVECAR not read
 entering main loop
       N       E                     dE             d eps       ncg     rms          rms(c)
  Solvation turned off during non-self-consistent phase (first NELMDL steps)
DAV:   1     0.449353752436E+04    0.44935E+04   -0.18307E+05 12240   0.211E+03
DAV:   2     0.688854146939E+03   -0.38047E+04   -0.36721E+04 12375   0.494E+02
DAV:   3    -0.203782047921E+02   -0.70923E+03   -0.65502E+03 13797   0.245E+02
DAV:   4    -0.151798577719E+03   -0.13142E+03   -0.11562E+03 21618   0.991E+01
DAV:   5    -0.167195191512E+03   -0.15397E+02   -0.14779E+02 18864   0.337E+01    0.464E+01
 Begin Solvation calculations
  rms_SCF =    8.88237826226351      tol =   0.888237826226351     
 Begin minimization
 Creating dielectric and ionic cavities
  area:      141.786645864578     
  volume:    641.176959962771     
  Acav:     7.443798907890355E-002
  Solving linear dielectric/ionic screening model
        iter                  A_solv                     rms
   LPB:       -0.391564453200287E+03   0.284941018531566E+03
   LPB:    0  -0.130418166564165E+02   0.592515661425248E+02  -0.512427E+01   0.000000E+00   0.288309E+02  -0.147737E+03
   LPB:    1  -0.199552151919124E+01   0.723866798678881E+01   0.948332E-02   0.000000E+00   0.690162E+02  -0.365082E-15
   LPB:    2  -0.643582347994595E+00   0.105780864538346E+01   0.141270E-01   0.821580E-01   0.292284E+03  -0.994467E-14
   LPB:    3  -0.411684263315635E+00   0.132212799858148E+01   0.254743E-01   0.951238E-01   0.558043E+03  -0.996831E-14
   LPB:    4  -0.340768065721193E+00   0.104281580246826E+01   0.248639E-01   0.313315E+00   0.743336E+02  -0.101211E-13
   LPB:    5  -0.304830776409119E+00   0.666463744826427E+00   0.230999E-01   0.545455E+00   0.402250E+03  -0.404753E-14
  Finished solving LPB equations
  A_corr:   -0.230392787330216     
 End minimization
 Ecorr=   2053.32267488898     
 A_corr= -0.230392787330216     
 Ecorr_band=  -2053.55306767631     
 End Solvation calculations
RMM:   6    -0.179067371324E+03   -0.11872E+02   -0.38386E+02 12450   0.974E+01    0.459E+01
 Begin Solvation calculations
  rms_SCF =    8.88237826226351      tol =   0.888237826226351     
 Begin minimization
 Creating dielectric and ionic cavities
  area:      148.275574991362     
  volume:    651.223243609113     
  Acav:     7.784467687046498E-002
  Solving linear dielectric/ionic screening model
        iter                  A_solv                     rms
   LPB:       -0.382823968721662E+02   0.120495205293214E+03
   LPB:    0  -0.374209372432280E+02   0.119318490262998E+03   0.246479E+00   0.000000E+00   0.283599E+02   0.699013E+01
   LPB:    1  -0.336055488817149E+01   0.109010658617702E+02   0.874525E-02   0.000000E+00   0.625091E+02  -0.367222E-15
   LPB:    2  -0.735744378571681E+00   0.203681336164289E+01   0.151513E-01   0.444806E-01   0.128488E+03  -0.879103E-14
   LPB:    3  -0.412658499459461E+00   0.945167873350148E+00   0.230406E-01   0.809423E-01   0.162932E+03  -0.940332E-14
   LPB:    4  -0.329264445814189E+00   0.100164880714866E+01   0.241966E-01   0.245786E+00   0.289253E+03  -0.335184E-13
   LPB:    5  -0.294656572529377E+00   0.625105171126269E+00   0.238248E-01   0.421468E+00   0.946674E+02  -0.428352E-13
  Finished solving LPB equations
  A_corr:   -0.216811895658912     
 End minimization
 Ecorr=   1952.26649142988     
 A_corr= -0.216811895658912     
 Ecorr_band=  -1952.48330332554     
 End Solvation calculations
RMM:   7    -0.167187493612E+03    0.11880E+02   -0.13382E+02 12701   0.486E+01    0.332E+01
 Begin Solvation calculations
  rms_SCF =    8.88237826226351      tol =   0.888237826226351     
 Begin minimization
 Creating dielectric and ionic cavities
  area:      163.918296240294     
  volume:    651.085125135027     
  Acav:     8.605710552615438E-002
  Solving linear dielectric/ionic screening model
        iter                  A_solv                     rms
   LPB:       -0.148181670668773E+02   0.746427362087736E+02
   LPB:    0  -0.148169341453211E+02   0.746368019305232E+02  -0.932353E-02   0.000000E+00   0.283664E+02  -0.264475E+00
   LPB:    1  -0.142440903602769E+01   0.688148953742183E+01   0.879415E-02   0.000000E+00   0.621697E+02   0.921075E-17
   LPB:    2  -0.341721302832957E+00   0.959998848814276E+00   0.151138E-01   0.470393E-01   0.132910E+03   0.117997E-15
   LPB:    3  -0.207207772193962E+00   0.392903214129642E+00   0.229400E-01   0.818547E-01   0.304037E+03  -0.326400E-14
   LPB:    4  -0.179822018599575E+00   0.212267847526987E+00   0.248889E-01   0.187649E+00   0.323525E+03  -0.353355E-14
  Finished solving LPB equations
  A_corr:   -9.376491307342054E-002
 End minimization
 Ecorr=   1941.83422667480     
 A_corr= -9.376491307342054E-002
 Ecorr_band=  -1941.92799158788     
 End Solvation calculations
RMM:   8    -0.146441455637E+03    0.20746E+02   -0.10519E+01 12566   0.136E+01    0.228E+01
 Begin Solvation calculations
  rms_SCF =    4.52684654626275      tol =   0.452684654626275     
 Begin minimization
 Creating dielectric and ionic cavities
  area:      139.014853118869     
  volume:    650.835485862053     
  Acav:     7.298279788740612E-002
  Solving linear dielectric/ionic screening model
        iter                  A_solv                     rms
   LPB:       -0.106719564136163E+01   0.183022888632958E+02
   LPB:    0  -0.105807478720222E+01   0.181275155228411E+02  -0.253537E-01   0.000000E+00   0.283781E+02  -0.719490E+00
   LPB:    1  -0.264527240047002E+00   0.180707198211219E+01   0.879615E-02   0.000000E+00   0.619072E+02  -0.117408E-16
   LPB:    2  -0.187223393548734E+00   0.343889757864125E+00   0.166889E-01   0.513444E-01   0.105054E+03  -0.727069E-14
   LPB:    3  -0.174495269812613E+00   0.257813443579769E+00   0.224798E-01   0.122236E+00   0.237076E+03  -0.623241E-14
   LPB:    4  -0.169858438619823E+00   0.184043586682545E+00   0.314764E-01   0.260175E+00   0.558470E+02  -0.595486E-14
  Finished solving LPB equations
  A_corr:   -9.687564073241640E-002
 End minimization
 Ecorr=   1919.02093775114     
 A_corr= -9.687564073241640E-002
 Ecorr_band=  -1919.11781339187     
 End Solvation calculations
RMM:   9    -0.141826560957E+03    0.46149E+01   -0.51885E+00 12546   0.979E+00    0.141E+01
 Begin Solvation calculations
  rms_SCF =    4.52684654626275      tol =   0.452684654626275     
 Begin minimization
 Creating dielectric and ionic cavities
  area:      132.433328872677     
  volume:    653.759966013224     
  Acav:     6.952749765815520E-002
  Solving linear dielectric/ionic screening model
        iter                  A_solv                     rms
   LPB:       -0.131072074835044E+01   0.195185468166739E+02
   LPB:    0  -0.120646622723729E+01   0.189543507112710E+02   0.859255E-01   0.000000E+00   0.282410E+02   0.242662E+01
   LPB:    1  -0.310216839138269E+00   0.179947397049978E+01   0.889456E-02   0.000000E+00   0.630655E+02   0.171898E-15
   LPB:    2  -0.224483480080281E+00   0.363062328317017E+00   0.161636E-01   0.526391E-01   0.133889E+03  -0.336681E-15
   LPB:    3  -0.207578589593436E+00   0.185900789276176E+00   0.248093E-01   0.128465E+00   0.235445E+03  -0.100997E-14
   LPB:    4  -0.200884267385026E+00   0.354310433794917E+00   0.303688E-01   0.323506E+00   0.331829E+03  -0.265607E-15
  Finished solving LPB equations
  A_corr:   -0.131356769726871     
 End minimization
 Ecorr=   1869.81687489105     
 A_corr= -0.131356769726871     
 Ecorr_band=  -1869.94823166077     
 End Solvation calculations
RMM:  10    -0.138241858295E+03    0.35847E+01   -0.73544E+00 12585   0.715E+00    0.794E+00
 Begin Solvation calculations
  rms_SCF =    1.68049138069336      tol =   0.168049138069336     
 Begin minimization
 Creating dielectric and ionic cavities
  area:      129.770604387116     
  volume:    650.487353623714     
  Acav:     6.812956730323586E-002
  Solving linear dielectric/ionic screening model
        iter                  A_solv                     rms
   LPB:       -0.424636976463163E+00   0.756895330066845E+01
   LPB:    0  -0.407957147356962E+00   0.686303005205354E+01  -0.342763E-01   0.000000E+00   0.283944E+02  -0.973257E+00
   LPB:    1  -0.256951555208165E+00   0.975764145939635E+00   0.991453E-02   0.000000E+00   0.614963E+02  -0.878177E-16
   LPB:    2  -0.236928330185138E+00   0.211998845762414E+00   0.144441E-01   0.910172E-01   0.183255E+03   0.497389E-14
   LPB:    3  -0.230224242841053E+00   0.414298677608581E+00   0.322845E-01   0.149797E+00   0.224155E+03   0.431924E-14
   LPB:    4  -0.225535906982632E+00   0.306674324153531E+00   0.269724E-01   0.837054E+00   0.355462E+02   0.411164E-14
   LPB:    5  -0.221386458067535E+00   0.163791726374859E+00   0.312787E-01   0.763207E+00   0.136165E+03   0.559985E-14
  Finished solving LPB equations
  A_corr:   -0.153256890764299     
 End minimization
 Ecorr=   1847.95478909339     
 A_corr= -0.153256890764299     
 Ecorr_band=  -1848.10804598416     
 End Solvation calculations
RMM:  11    -0.137646868209E+03    0.59499E+00   -0.77870E-01 12554   0.314E+00    0.478E+00
 Begin Solvation calculations
  rms_SCF =   0.900577601201220      tol =   9.005776012012201E-002
 Begin minimization
 Creating dielectric and ionic cavities
  area:      127.070322385676     
  volume:    648.321526850616     
  Acav:     6.671191925247982E-002
  Solving linear dielectric/ionic screening model
        iter                  A_solv                     rms
   LPB:       -0.256679124092097E+00   0.152318690737825E+01
   LPB:    0  -0.256033112953167E+00   0.127876285356041E+01  -0.673354E-02   0.000000E+00   0.284960E+02  -0.191879E+00
   LPB:    1  -0.238164564143781E+00   0.568897806724146E+00   0.146479E-01   0.000000E+00   0.793677E+02  -0.204134E-17
   LPB:    2  -0.234326833907957E+00   0.239487684398066E+00   0.140566E-01   0.223811E+00   0.194680E+03  -0.335155E-14
   LPB:    3  -0.232415871847617E+00   0.275795096163178E+00   0.309409E-01   0.226216E+00   0.885804E+02  -0.466144E-14
   LPB:    4  -0.230694656115852E+00   0.186080446071667E+00   0.287777E-01   0.968413E+00   0.412195E+02  -0.536532E-14
   LPB:    5  -0.228670858377868E+00   0.105084373870197E+00   0.347711E-01   0.973128E+00   0.112543E+03  -0.498982E-14
   LPB:    6  -0.227214117413172E+00   0.387367701571629E-01   0.376895E-01   0.664068E+00   0.430005E+02  -0.494890E-14
  Finished solving LPB equations
  A_corr:   -0.160502198160692     
 End minimization
 Ecorr=   1826.30909553543     
 A_corr= -0.160502198160692     
 Ecorr_band=  -1826.46959773359     
 End Solvation calculations
RMM:  12    -0.137599797500E+03    0.47071E-01   -0.42663E-01 12605   0.259E+00    0.318E+00
 Begin Solvation calculations
  rms_SCF =   0.656362834481492      tol =   6.563628344814917E-002
 Begin minimization
 Creating dielectric and ionic cavities
  area:      125.860402909820     
  volume:    645.412516963013     
  Acav:     6.607671152765553E-002
  Solving linear dielectric/ionic screening model
        iter                  A_solv                     rms
   LPB:       -0.278749338041603E+00   0.188277725729851E+01
   LPB:    0  -0.276811834737347E+00   0.140453498865953E+01  -0.116334E-01   0.000000E+00   0.286324E+02  -0.333092E+00
   LPB:    1  -0.253255913535183E+00   0.694623954932679E+00   0.141235E-01   0.000000E+00   0.883972E+02   0.207941E-16
   LPB:    2  -0.249170457832020E+00   0.189161243571622E+00   0.144795E-01   0.169172E+00   0.124362E+03   0.596532E-14
   LPB:    3  -0.247925035099151E+00   0.144886607654106E+00   0.194980E-01   0.226381E+00   0.270418E+03   0.693606E-14
   LPB:    4  -0.247305174955167E+00   0.142142113069077E+00   0.251138E-01   0.386416E+00   0.606095E+02   0.725905E-14
   LPB:    5  -0.246610264476970E+00   0.978078180117158E-01   0.333487E-01   0.844246E+00   0.164045E+03   0.707479E-14
   LPB:    6  -0.245888340437527E+00   0.385155191390234E-01   0.421333E-01   0.822272E+00   0.471153E+02   0.670069E-14
  Finished solving LPB equations
  A_corr:   -0.179811628909872     
 End minimization
 Ecorr=   1813.40920370889     
 A_corr= -0.179811628909872     
 Ecorr_band=  -1813.58901533780     
 End Solvation calculations
RMM:  13    -0.137638849380E+03   -0.39052E-01   -0.23698E-01 12563   0.190E+00    0.263E+00
 Begin Solvation calculations
  rms_SCF =   0.656362834481492      tol =   6.563628344814917E-002
 Begin minimization
 Creating dielectric and ionic cavities
  area:      125.431816591438     
  volume:    642.948297767005     
  Acav:     6.585170371050504E-002
  Solving linear dielectric/ionic screening model
        iter                  A_solv                     rms
   LPB:       -0.333091810039162E+00   0.177616648854239E+01
   LPB:    0  -0.329754546018213E+00   0.195503376735043E+01   0.152373E-01   0.000000E+00   0.287479E+02   0.438039E+00
   LPB:    1  -0.291483686970775E+00   0.111072636909570E+01   0.133605E-01   0.000000E+00   0.992739E+02  -0.702224E-17
   LPB:    2  -0.283388341333507E+00   0.204289414510298E+00   0.138630E-01   0.203860E+00   0.105376E+03   0.251924E-16
   LPB:    3  -0.280842303070140E+00   0.117059716420690E+00   0.221530E-01   0.196814E+00   0.200674E+03  -0.646031E-15
   LPB:    4  -0.279550520424374E+00   0.127069458293232E+00   0.336665E-01   0.333856E+00   0.836176E+02  -0.843739E-15
   LPB:    5  -0.278603699429430E+00   0.161955065665108E+00   0.295942E-01   0.833815E+00   0.224397E+03  -0.122425E-14
   LPB:    6  -0.277787976513087E+00   0.819713340917578E-01   0.305542E-01   0.834470E+00   0.421567E+02  -0.739499E-15
   LPB:    7  -0.277153729056806E+00   0.397971247504219E-01   0.329507E-01   0.720977E+00   0.148874E+03   0.733052E-15
  Finished solving LPB equations
  A_corr:   -0.211302025346300     
 End minimization
 Ecorr=   1785.96968970218     
 A_corr= -0.211302025346300     
 Ecorr_band=  -1786.18099172753     
 End Solvation calculations
RMM:  14    -0.137565025309E+03    0.73824E-01   -0.12531E-01 12544   0.150E+00    0.224E+00
 Begin Solvation calculations
  rms_SCF =   0.490476218604490      tol =   4.904762186044900E-002
 Begin minimization
 Creating dielectric and ionic cavities
  area:      125.342810305678     
  volume:    640.954292520883     
  Acav:     6.580497541048101E-002
  Solving linear dielectric/ionic screening model
        iter                  A_solv                     rms
   LPB:       -0.339763551234294E+00   0.131328595137950E+01
   LPB:    0  -0.339136878502949E+00   0.150543921782799E+01   0.659216E-02   0.000000E+00   0.288414E+02   0.190127E+00
   LPB:    1  -0.314534960633886E+00   0.887048545199464E+00   0.138800E-01   0.000000E+00   0.865201E+02  -0.457851E-17
   LPB:    2  -0.309355798531931E+00   0.181209657284806E+00   0.140449E-01   0.208046E+00   0.947172E+02  -0.330680E-14
   LPB:    3  -0.307764109415539E+00   0.139803074633736E+00   0.209027E-01   0.206497E+00   0.240593E+03  -0.397746E-14
   LPB:    4  -0.307044546394732E+00   0.133161386405578E+00   0.266074E-01   0.355149E+00   0.620470E+02  -0.436017E-14
   LPB:    5  -0.306320665845193E+00   0.112338237491986E+00   0.320315E-01   0.835649E+00   0.193491E+03  -0.438981E-14
   LPB:    6  -0.305563790090487E+00   0.463372817741993E-01   0.390569E-01   0.857506E+00   0.466246E+02  -0.391252E-14
  Finished solving LPB equations
  A_corr:   -0.239758814680006     
 End minimization
 Ecorr=   1764.16600549190     
 A_corr= -0.239758814680006     
 Ecorr_band=  -1764.40576430658     
 End Solvation calculations
RMM:  15    -0.137503356756E+03    0.61669E-01   -0.10037E-01 12654   0.106E+00    0.127E+00
 Begin Solvation calculations
  rms_SCF =   0.482286002241440      tol =   4.822860022414403E-002
 Begin minimization
 Creating dielectric and ionic cavities
  area:      125.047732587374     
  volume:    640.581603709974     
  Acav:     6.565005960837120E-002
  Solving linear dielectric/ionic screening model
        iter                  A_solv                     rms
   LPB:       -0.314353727478826E+00   0.229162343158239E+00
   LPB:    0  -0.314335643180232E+00   0.269260488129553E+00   0.111951E-02   0.000000E+00   0.288588E+02   0.323076E-01
   LPB:    1  -0.312459917962804E+00   0.908155262764001E-01   0.189456E-01   0.000000E+00   0.101924E+03   0.211667E-17
   LPB:    2  -0.312158636798235E+00   0.619444450268653E-01   0.190671E-01   0.159597E+00   0.191068E+03   0.427329E-15
   LPB:    3  -0.311966529154319E+00   0.759754497855522E-01   0.375198E-01   0.324040E+00   0.511606E+02   0.317907E-15
   LPB:    4  -0.311554297537386E+00   0.735356927718589E-01   0.486736E-01   0.165411E+01   0.838268E+02   0.356747E-15
   LPB:    5  -0.311109245571824E+00   0.635329731116525E-01   0.368318E-01   0.142672E+01   0.337543E+02   0.454898E-16
   LPB:    6  -0.310988777967791E+00   0.582731652263302E-01   0.206785E-01   0.482130E+00   0.108025E+03   0.394761E-15
   LPB:    7  -0.310943333486065E+00   0.322003894104405E-01   0.168954E-01   0.461701E+00   0.170990E+03   0.479534E-15
  Finished solving LPB equations
  A_corr:   -0.245293273877694     
 End minimization
 Ecorr=   1754.18983180400     
 A_corr= -0.245293273877694     
 Ecorr_band=  -1754.43512507787     
 End Solvation calculations
RMM:  16    -0.137498089797E+03    0.52670E-02   -0.14852E-02 13173   0.384E-01    0.925E-01
 Begin Solvation calculations
  rms_SCF =   0.458745337134481      tol =   4.587453371344808E-002
 Begin minimization
 Creating dielectric and ionic cavities
  area:      124.839135383952     
  volume:    640.317085409017     
  Acav:     6.554054607657492E-002
  Solving linear dielectric/ionic screening model
        iter                  A_solv                     rms
   LPB:       -0.316196519681836E+00   0.335008887802936E+00
   LPB:    0  -0.316193058740549E+00   0.322103409669859E+00  -0.489643E-03   0.000000E+00   0.288712E+02  -0.141366E-01
   LPB:    1  -0.315036100819949E+00   0.112521769974949E+00   0.168457E-01   0.000000E+00   0.683579E+02  -0.130325E-17
   LPB:    2  -0.314859563824346E+00   0.514574981085643E-01   0.139615E-01   0.184108E+00   0.223901E+03   0.516337E-15
   LPB:    3  -0.314802402210962E+00   0.307837391057831E-01   0.196233E-01   0.230373E+00   0.139880E+03   0.752659E-15
   LPB:    4  -0.314778097251625E+00   0.267174486590165E-01   0.221921E-01   0.375979E+00   0.115262E+03   0.769143E-15
  Finished solving LPB equations
  A_corr:   -0.249237551175050     
 End minimization
 Ecorr=   1752.11734372285     
 A_corr= -0.249237551175050     
 Ecorr_band=  -1752.36658127402     
 End Solvation calculations
RMM:  17    -0.137496461626E+03    0.16282E-02   -0.49781E-03 14098   0.199E-01    0.663E-01
 Begin Solvation calculations
  rms_SCF =   0.351405926131423      tol =   3.514059261314235E-002
 Begin minimization
 Creating dielectric and ionic cavities
  area:      125.055138417757     
  volume:    639.429573130508     
  Acav:     6.565394766932249E-002
  Solving linear dielectric/ionic screening model
        iter                  A_solv                     rms
   LPB:       -0.344329287706076E+00   0.956985971840007E+00
   LPB:    0  -0.344300465338810E+00   0.987248586953287E+00   0.141200E-02   0.000000E+00   0.289128E+02   0.408249E-01
   LPB:    1  -0.330993760464148E+00   0.281938296648600E+00   0.176669E-01   0.000000E+00   0.777956E+02   0.523423E-18
   LPB:    2  -0.329349036818289E+00   0.191446477407311E+00   0.150777E-01   0.144827E+00   0.229029E+03  -0.425813E-14
   LPB:    3  -0.328765371537894E+00   0.969160506689756E-01   0.191315E-01   0.279676E+00   0.904306E+02  -0.493452E-14
   LPB:    4  -0.328492747593248E+00   0.902260568794314E-01   0.226623E-01   0.394318E+00   0.140632E+03  -0.555561E-14
   LPB:    5  -0.328326075484176E+00   0.575735749985004E-01   0.236736E-01   0.585246E+00   0.121576E+03  -0.596337E-14
   LPB:    6  -0.328192665071282E+00   0.198515153170048E-01   0.315134E-01   0.601306E+00   0.803019E+02  -0.616924E-14
  Finished solving LPB equations
  A_corr:   -0.262538717401960     
 End minimization
 Ecorr=   1743.59573753087     
 A_corr= -0.262538717401960     
 Ecorr_band=  -1743.85827624828     
 End Solvation calculations
RMM:  18    -0.137496545410E+03   -0.83784E-04   -0.81398E-03 12479   0.254E-01    0.214E-01
 Begin Solvation calculations
  rms_SCF =   0.208608889242023      tol =   2.086088892420233E-002
 Begin minimization
 Creating dielectric and ionic cavities
  area:      125.437332768263     
  volume:    638.839554860965     
  Acav:     6.585459970333803E-002
  Solving linear dielectric/ionic screening model
        iter                  A_solv                     rms
   LPB:       -0.344385419897360E+00   0.530705265412711E+00
   LPB:    0  -0.344384933209927E+00   0.524956384371903E+00  -0.183395E-03   0.000000E+00   0.289405E+02  -0.530754E-02
   LPB:    1  -0.339158436874773E+00   0.199049158142399E+00   0.175191E-01   0.000000E+00   0.100839E+03  -0.204795E-19
   LPB:    2  -0.338456768450749E+00   0.107218336949460E+00   0.159566E-01   0.147398E+00   0.115524E+03  -0.618859E-15
   LPB:    3  -0.338218660143732E+00   0.701346626027831E-01   0.220218E-01   0.245884E+00   0.938164E+02  -0.598805E-15
   LPB:    4  -0.338038704654248E+00   0.809990381304889E-01   0.295160E-01   0.563880E+00   0.844751E+02  -0.692050E-15
   LPB:    5  -0.337878656554811E+00   0.753432645159409E-01   0.254368E-01   0.103200E+01   0.150192E+03  -0.581395E-15
   LPB:    6  -0.337717366606382E+00   0.291440437640642E-01   0.296815E-01   0.863641E+00   0.495229E+02  -0.363088E-15
   LPB:    7  -0.337604928919214E+00   0.114014710708195E-01   0.359699E-01   0.575243E+00   0.197313E+03  -0.107925E-15
  Finished solving LPB equations
  A_corr:   -0.271750329215876     
 End minimization
 Ecorr=   1736.49044903006     
 A_corr= -0.271750329215876     
 Ecorr_band=  -1736.76219935927     
 End Solvation calculations
RMM:  19    -0.137497272995E+03   -0.72759E-03   -0.32918E-03 12573   0.186E-01    0.264E-01
 Begin Solvation calculations
  rms_SCF =   0.208608889242023      tol =   2.086088892420233E-002
 Begin minimization
 Creating dielectric and ionic cavities
  area:      125.702787405924     
  volume:    638.456072142890     
  Acav:     6.599396338811006E-002
  Solving linear dielectric/ionic screening model
        iter                  A_solv                     rms
   LPB:       -0.346816524358060E+00   0.456445184207191E+00
   LPB:    0  -0.346786856526382E+00   0.409191234165132E+00  -0.143143E-02   0.000000E+00   0.289585E+02  -0.414520E-01
   LPB:    1  -0.344286813217418E+00   0.130419258906577E+00   0.169821E-01   0.000000E+00   0.854539E+02   0.122729E-18
   LPB:    2  -0.343959403237495E+00   0.621105457288506E-01   0.155849E-01   0.142702E+00   0.139077E+03   0.337277E-15
   LPB:    3  -0.343864390468914E+00   0.221668043976022E-01   0.216809E-01   0.208602E+00   0.967294E+02   0.379487E-15
   LPB:    4  -0.343811449540910E+00   0.257422418691125E-01   0.361856E-01   0.333850E+00   0.182546E+03   0.568051E-15
   LPB:    5  -0.343755644152765E+00   0.616083924444396E-01   0.391198E-01   0.975042E+00   0.963598E+02   0.854191E-15
   LPB:    6  -0.343697251100472E+00   0.414681377919039E-01   0.241647E-01   0.169395E+01   0.406229E+02   0.121506E-14
   LPB:    7  -0.343633741738736E+00   0.106678546593495E-01   0.317896E-01   0.826748E+00   0.931600E+02   0.162198E-14
  Finished solving LPB equations
  A_corr:   -0.277639778350625     
 End minimization
 Ecorr=   1732.20292061705     
 A_corr= -0.277639778350625     
 Ecorr_band=  -1732.48056039540     
 End Solvation calculations
RMM:  20    -0.137497618052E+03   -0.34506E-03   -0.90508E-04 13963   0.777E-02    0.210E-01
 Begin Solvation calculations
  rms_SCF =   0.208608889242023      tol =   2.086088892420233E-002
 Begin minimization
 Creating dielectric and ionic cavities
  area:      125.910941428203     
  volume:    638.203152545842     
  Acav:     6.610324424980643E-002
  Solving linear dielectric/ionic screening model
        iter                  A_solv                     rms
   LPB:       -0.351432866000455E+00   0.552161823017552E+00
   LPB:    0  -0.351321384137029E+00   0.469863195504068E+00  -0.277422E-02   0.000000E+00   0.289703E+02  -0.803700E-01
   LPB:    1  -0.349074533584996E+00   0.125908657804916E+00   0.162794E-01   0.000000E+00   0.676069E+02  -0.242733E-17
   LPB:    2  -0.348789316293330E+00   0.607320233621020E-01   0.144182E-01   0.143327E+00   0.206429E+03  -0.151737E-14
   LPB:    3  -0.348719102051473E+00   0.318623862504834E-01   0.182277E-01   0.194728E+00   0.108811E+03  -0.176520E-14
   LPB:    4  -0.348695083176137E+00   0.320427184710461E-01   0.199298E-01   0.312865E+00   0.133323E+03  -0.164686E-14
   LPB:    5  -0.348675244379585E+00   0.193808620629165E-01   0.269900E-01   0.609907E+00   0.982660E+02  -0.159769E-14
  Finished solving LPB equations
  A_corr:   -0.282572000129779     
 End minimization
 Ecorr=   1730.55741018103     
 A_corr= -0.282572000129779     
 Ecorr_band=  -1730.83998218116     
 End Solvation calculations
RMM:  21    -0.137497972129E+03   -0.35408E-03   -0.62752E-04 12318   0.638E-02    0.162E-01
 Begin Solvation calculations
  rms_SCF =   0.208608889242023      tol =   2.086088892420233E-002
 Begin minimization
 Creating dielectric and ionic cavities
  area:      126.435603634483     
  volume:    637.719821959709     
  Acav:     6.637869190810357E-002
  Solving linear dielectric/ionic screening model
        iter                  A_solv                     rms
   LPB:       -0.379519953857807E+00   0.132444039803230E+01
   LPB:    0  -0.378843400254300E+00   0.110972135197434E+01  -0.683155E-02   0.000000E+00   0.289930E+02  -0.198067E+00
   LPB:    1  -0.364621333076286E+00   0.284176334708341E+00   0.164238E-01   0.000000E+00   0.739574E+02  -0.109513E-16
   LPB:    2  -0.362865859552978E+00   0.139065907576037E+00   0.154700E-01   0.131043E+00   0.157839E+03   0.501349E-15
   LPB:    3  -0.362360970575236E+00   0.559839791747550E-01   0.222322E-01   0.200129E+00   0.859952E+02   0.436574E-15
   LPB:    4  -0.362115541251724E+00   0.565267264564898E-01   0.292721E-01   0.369198E+00   0.259672E+03  -0.235209E-15
   LPB:    5  -0.361982087491940E+00   0.855353085718377E-01   0.271779E-01   0.585657E+00   0.863576E+02  -0.731812E-15
   LPB:    6  -0.361890745589855E+00   0.452663807273843E-01   0.205281E-01   0.906161E+00   0.111910E+03  -0.104939E-14
   LPB:    7  -0.361803905365055E+00   0.143895189165569E-01   0.317402E-01   0.614880E+00   0.140950E+03  -0.128978E-14
  Finished solving LPB equations
  A_corr:   -0.295425213456952     
 End minimization
 Ecorr=   1725.00964204898     
 A_corr= -0.295425213456952     
 Ecorr_band=  -1725.30506726244     
 End Solvation calculations
RMM:  22    -0.137499443111E+03   -0.14710E-02   -0.19062E-03 12425   0.966E-02    0.922E-02
 Begin Solvation calculations
  rms_SCF =   0.154111749644386      tol =   1.541117496443862E-002
 Begin minimization
 Creating dielectric and ionic cavities
  area:      126.673652554399     
  volume:    637.643682600265     
  Acav:     6.650366759105925E-002
  Solving linear dielectric/ionic screening model
        iter                  A_solv                     rms
   LPB:       -0.372954610717418E+00   0.668853831361489E+00
   LPB:    0  -0.372874194169490E+00   0.606914578847154E+00  -0.235513E-02   0.000000E+00   0.289966E+02  -0.682906E-01
   LPB:    1  -0.369081071731528E+00   0.123819051559274E+00   0.164112E-01   0.000000E+00   0.682629E+02   0.528601E-17
   LPB:    2  -0.368647519500206E+00   0.783475081938054E-01   0.160823E-01   0.116637E+00   0.199550E+03  -0.139324E-15
   LPB:    3  -0.368526498043257E+00   0.329730951523615E-01   0.199259E-01   0.225295E+00   0.763173E+02  -0.496564E-15
   LPB:    4  -0.368458592185654E+00   0.545243893298174E-01   0.294838E-01   0.379209E+00   0.201099E+03  -0.131459E-14
   LPB:    5  -0.368396518090869E+00   0.595235154709568E-01   0.269013E-01   0.100187E+01   0.633390E+02  -0.184371E-14
   LPB:    6  -0.368316366362210E+00   0.233270882409703E-01   0.312761E-01   0.111062E+01   0.608402E+02  -0.234092E-14
   LPB:    7  -0.368253936806912E+00   0.102538817171112E-01   0.331992E-01   0.733774E+00   0.109924E+03  -0.309695E-14
  Finished solving LPB equations
  A_corr:   -0.301750269215852     
 End minimization
 Ecorr=   1720.88281930661     
 A_corr= -0.301750269215852     
 Ecorr_band=  -1721.18456957583     
 End Solvation calculations
RMM:  23    -0.137500123755E+03   -0.68064E-03   -0.39206E-04 12284   0.518E-02    0.824E-02
 Begin Solvation calculations
  rms_SCF =   0.154111749644386      tol =   1.541117496443862E-002
 Begin minimization
 Creating dielectric and ionic cavities
  area:      126.825225411515     
  volume:    637.645621611560     
  Acav:     6.658324334104525E-002
  Solving linear dielectric/ionic screening model
        iter                  A_solv                     rms
   LPB:       -0.375609979275723E+00   0.668253787946427E+00
   LPB:    0  -0.375536603912277E+00   0.623206453749840E+00  -0.224966E-02   0.000000E+00   0.289965E+02  -0.652323E-01
   LPB:    1  -0.373002305251811E+00   0.155062807578675E+00   0.149148E-01   0.000000E+00   0.552774E+02  -0.973687E-18
   LPB:    2  -0.372699575189224E+00   0.657818622975150E-01   0.129445E-01   0.137635E+00   0.227350E+03   0.250892E-15
   LPB:    3  -0.372621132700213E+00   0.250704763984763E-01   0.171988E-01   0.195022E+00   0.135304E+03   0.311985E-15
   LPB:    4  -0.372595620573426E+00   0.262730439029357E-01   0.230286E-01   0.242899E+00   0.107959E+03   0.164766E-15
   LPB:    5  -0.372575139547285E+00   0.220096509184274E-01   0.303664E-01   0.608808E+00   0.988503E+02   0.100848E-15
   LPB:    6  -0.372547702432281E+00   0.114983083723326E-01   0.424210E-01   0.958957E+00   0.559339E+02  -0.226716E-16
  Finished solving LPB equations
  A_corr:   -0.305964459091236     
 End minimization
 Ecorr=   1718.77819607030     
 A_corr= -0.305964459091236     
 Ecorr_band=  -1719.08416052939     
 End Solvation calculations
RMM:  24    -0.137500451366E+03   -0.32761E-03   -0.32919E-04 12417   0.415E-02    0.930E-02
 Begin Solvation calculations
  rms_SCF =   0.146495668251043      tol =   1.464956682510425E-002
 Begin minimization
 Creating dielectric and ionic cavities
  area:      126.999986902487     
  volume:    637.678420387004     
  Acav:     6.667499312380558E-002
  Solving linear dielectric/ionic screening model
        iter                  A_solv                     rms
   LPB:       -0.384795507958091E+00   0.106422340334891E+01
   LPB:    0  -0.384448803051737E+00   0.961898810675321E+00  -0.489028E-02   0.000000E+00   0.289949E+02  -0.141793E+00
   LPB:    1  -0.378976171811122E+00   0.217345841623132E+00   0.142566E-01   0.000000E+00   0.550564E+02  -0.114851E-16
   LPB:    2  -0.378346565606929E+00   0.966781898652832E-01   0.128890E-01   0.127253E+00   0.227609E+03   0.218923E-15
   LPB:    3  -0.378191518467280E+00   0.348313672632065E-01   0.168824E-01   0.188010E+00   0.121426E+03   0.995848E-16
   LPB:    4  -0.378133178985906E+00   0.383563604282176E-01   0.251265E-01   0.252814E+00   0.101533E+03   0.192223E-15
   LPB:    5  -0.378093594638767E+00   0.290738206092381E-01   0.275328E-01   0.619215E+00   0.957931E+02   0.552451E-16
   LPB:    6  -0.378057450863654E+00   0.126685260180001E-01   0.331199E-01   0.759051E+00   0.733051E+02  -0.416388E-15
  Finished solving LPB equations
  A_corr:   -0.311382457739848     
 End minimization
 Ecorr=   1716.60789302449     
 A_corr= -0.311382457739848     
 Ecorr_band=  -1716.91927548223     
 End Solvation calculations
RMM:  25    -0.137500930701E+03   -0.47933E-03   -0.39743E-04 12209   0.367E-02    0.458E-02
 Begin Solvation calculations
  rms_SCF =   7.102136918127447E-002 tol =   7.102136918127447E-003
 Begin minimization
 Creating dielectric and ionic cavities
  area:      127.046652517665     
  volume:    637.787997130602     
  Acav:     6.669949257177425E-002
  Solving linear dielectric/ionic screening model
        iter                  A_solv                     rms
   LPB:       -0.382044834921137E+00   0.639720719294289E+00
   LPB:    0  -0.381925410131032E+00   0.587651518195028E+00  -0.287038E-02   0.000000E+00   0.289898E+02  -0.832118E-01
   LPB:    1  -0.380111890038539E+00   0.113773348175928E+00   0.132335E-01   0.000000E+00   0.575721E+02  -0.268303E-17
   LPB:    2  -0.379940576633682E+00   0.530980872795983E-01   0.123631E-01   0.101115E+00   0.227180E+03  -0.435746E-15
   LPB:    3  -0.379897554955282E+00   0.160083981182450E-01   0.172004E-01   0.180503E+00   0.104188E+03  -0.480310E-15
   LPB:    4  -0.379875980196018E+00   0.228597700473653E-01   0.339399E-01   0.254147E+00   0.784328E+02  -0.448546E-15
   LPB:    5  -0.379850050235574E+00   0.274719920585906E-01   0.384719E-01   0.106029E+01   0.743736E+02  -0.480825E-15
   LPB:    6  -0.379822758679607E+00   0.146666108251552E-01   0.314065E-01   0.128929E+01   0.473029E+02  -0.307921E-15
   LPB:    7  -0.379803696838443E+00   0.514278365327034E-02   0.305593E-01   0.717815E+00   0.161485E+03   0.128992E-15
  Finished solving LPB equations
  A_corr:   -0.313104204266668     
 End minimization
 Ecorr=   1715.12505581307     
 A_corr= -0.313104204266668     
 Ecorr_band=  -1715.43816001734     
 End Solvation calculations
RMM:  26    -0.137501227734E+03   -0.29703E-03   -0.12529E-04 11719   0.333E-02    0.466E-02
 Begin Solvation calculations
  rms_SCF =   7.102136918127447E-002 tol =   7.102136918127447E-003
 Begin minimization
 Creating dielectric and ionic cavities
  area:      127.068898608251     
  volume:    637.885165173609     
  Acav:     6.671117176933192E-002
  Solving linear dielectric/ionic screening model
        iter                  A_solv                     rms
   LPB:       -0.383083747299694E+00   0.707621249713311E+00
   LPB:    0  -0.382986408363508E+00   0.668788334196015E+00  -0.259161E-02   0.000000E+00   0.289853E+02  -0.751185E-01
   LPB:    1  -0.381180246723861E+00   0.126528542780912E+00   0.119573E-01   0.000000E+00   0.548615E+02   0.432316E-17
   LPB:    2  -0.380985315140096E+00   0.375835084119222E-01   0.117457E-01   0.109871E+00   0.226843E+03  -0.611150E-15
   LPB:    3  -0.380949755596842E+00   0.118117705310473E-01   0.181024E-01   0.118363E+00   0.144742E+03  -0.680610E-15
   LPB:    4  -0.380942547165360E+00   0.105485395323984E-01   0.224730E-01   0.163290E+00   0.114303E+03  -0.764345E-15
   LPB:    5  -0.380938507314090E+00   0.994062010097763E-02   0.288829E-01   0.436060E+00   0.121613E+03  -0.765312E-15
   LPB:    6  -0.380933567928336E+00   0.658920828963147E-02   0.387515E-01   0.911296E+00   0.666766E+02  -0.743514E-15
  Finished solving LPB equations
  A_corr:   -0.314222396159004     
 End minimization
 Ecorr=   1714.44698363280     
 A_corr= -0.314222396159004     
 Ecorr_band=  -1714.76120602896     
 End Solvation calculations
RMM:  27    -0.137501344388E+03   -0.11665E-03   -0.84990E-05 10094   0.181E-02    0.261E-02
 Begin Solvation calculations
  rms_SCF =   4.601378212368429E-002 tol =   4.601378212368429E-003
 Begin minimization
 Creating dielectric and ionic cavities
  area:      127.071984649394     
  volume:    637.921269712665     
  Acav:     6.671279194093190E-002
  Solving linear dielectric/ionic screening model
        iter                  A_solv                     rms
   LPB:       -0.381749673842337E+00   0.345562745973027E+00
   LPB:    0  -0.381729346432713E+00   0.329136895392598E+00  -0.118435E-02   0.000000E+00   0.289836E+02  -0.343267E-01
   LPB:    1  -0.381310307219306E+00   0.573301738325089E-01   0.113825E-01   0.000000E+00   0.581307E+02  -0.322451E-18
   LPB:    2  -0.381269768367245E+00   0.174127971108123E-01   0.115476E-01   0.953592E-01   0.220660E+03  -0.139130E-15
   LPB:    3  -0.381262764254198E+00   0.501914981830748E-02   0.186200E-01   0.107150E+00   0.119536E+03  -0.151265E-15
   LPB:    4  -0.381259904659451E+00   0.721359155287982E-02   0.358950E-01   0.211786E+00   0.766007E+02  -0.154224E-15
   LPB:    5  -0.381255823016882E+00   0.110334117267914E-01   0.461619E-01   0.110989E+01   0.713526E+02  -0.131310E-15
   LPB:    6  -0.381251194733557E+00   0.774530978881097E-02   0.318586E-01   0.164302E+01   0.402041E+02  -0.171024E-15
   LPB:    7  -0.381247296384373E+00   0.270766017630160E-02   0.319002E-01   0.841189E+00   0.120028E+03  -0.244354E-15
  Finished solving LPB equations
  A_corr:   -0.314534504443441     
 End minimization
 Ecorr=   1713.83796877051     
 A_corr= -0.314534504443441     
 Ecorr_band=  -1714.15250327495     
 End Solvation calculations
RMM:  28    -0.137501424552E+03   -0.80164E-04   -0.22825E-05  7466   0.163E-02    0.227E-02
 Begin Solvation calculations
  rms_SCF =   4.601378212368429E-002 tol =   4.601378212368429E-003
 Begin minimization
 Creating dielectric and ionic cavities
  area:      127.083375713410     
  volume:    637.939763239873     
  Acav:     6.671877224954045E-002
  Solving linear dielectric/ionic screening model
        iter                  A_solv                     rms
   LPB:       -0.382790642084718E+00   0.483041414836634E+00
   LPB:    0  -0.382752197643821E+00   0.458937753619084E+00  -0.162878E-02   0.000000E+00   0.289827E+02  -0.472064E-01
   LPB:    1  -0.382017267319319E+00   0.764038882638223E-01   0.110168E-01   0.000000E+00   0.557110E+02   0.946458E-18
   LPB:    2  -0.381937403654709E+00   0.207653954510189E-01   0.119353E-01   0.100305E+00   0.212449E+03  -0.451673E-15
   LPB:    3  -0.381925187755554E+00   0.702007629218633E-02   0.182402E-01   0.100088E+00   0.147312E+03  -0.466037E-15
   LPB:    4  -0.381923067099243E+00   0.544698631963079E-02   0.211439E-01   0.149758E+00   0.109214E+03  -0.454314E-15
   LPB:    5  -0.381922201997123E+00   0.405944607840431E-02   0.245887E-01   0.350790E+00   0.138147E+03  -0.474735E-15
  Finished solving LPB equations
  A_corr:   -0.315203429747582     
 End minimization
 Ecorr=   1713.45898400717     
 A_corr= -0.315203429747582     
 Ecorr_band=  -1713.77418743692     
 End Solvation calculations
RMM:  29    -0.137501455755E+03   -0.31203E-04   -0.37627E-05  7825   0.148E-02    0.122E-02
 Begin Solvation calculations
  rms_SCF =   4.164462195586931E-003 tol =   4.164462195586931E-004
 Begin minimization
 Creating dielectric and ionic cavities
  area:      127.074466678710     
  volume:    637.937226680676     
  Acav:     6.671409500632290E-002
  Solving linear dielectric/ionic screening model
        iter                  A_solv                     rms
   LPB:       -0.381825894731949E+00   0.152358278206980E+00
   LPB:    0  -0.381822788733683E+00   0.145288025608884E+00  -0.462962E-03   0.000000E+00   0.289828E+02  -0.134179E-01
   LPB:    1  -0.381749756354138E+00   0.192029419662216E-01   0.985943E-02   0.000000E+00   0.682360E+02  -0.371251E-18
   LPB:    2  -0.381744707838873E+00   0.397198495399726E-02   0.111202E-01   0.612897E-01   0.258404E+03  -0.121587E-15
   LPB:    3  -0.381744059834717E+00   0.253092781981140E-02   0.231844E-01   0.615646E-01   0.147565E+03  -0.142097E-15
   LPB:    4  -0.381743428661826E+00   0.478783430531547E-02   0.470358E-01   0.480107E+00   0.561808E+02  -0.144132E-15
   LPB:    5  -0.381742508701299E+00   0.412283964353212E-02   0.383331E-01   0.178845E+01   0.116417E+03  -0.106080E-15
   LPB:    6  -0.381741335882378E+00   0.253085315352182E-02   0.372379E-01   0.131235E+01   0.553912E+02  -0.226126E-16
   LPB:    7  -0.381740120543518E+00   0.127188416547386E-02   0.412283E-01   0.935958E+00   0.860341E+02   0.711458E-16
   LPB:    8  -0.381739281518586E+00   0.121595221699429E-02   0.387070E-01   0.735331E+00   0.163778E+03   0.160903E-15
   LPB:    9  -0.381738702474040E+00   0.914633163342908E-03   0.397220E-01   0.672506E+00   0.497507E+03   0.216726E-15
   LPB:   10  -0.381738222444956E+00   0.762214000991748E-03   0.434394E-01   0.758059E+00   0.971022E+03   0.247614E-15
   LPB:   11  -0.381737745839199E+00   0.711558351804794E-03   0.474452E-01   0.909041E+00   0.111155E+04   0.273339E-15
   LPB:   12  -0.381737241612111E+00   0.697568662229415E-03   0.485876E-01   0.103308E+01   0.188077E+04   0.295837E-15
   LPB:   13  -0.381736703513170E+00   0.764840143771692E-03   0.480053E-01   0.108012E+01   0.187270E+04   0.323189E-15
   LPB:   14  -0.381736140991929E+00   0.783537311141147E-03   0.466565E-01   0.107561E+01   0.167551E+04   0.347084E-15
   LPB:   15  -0.381735576542716E+00   0.786509868801867E-03   0.454434E-01   0.103021E+01   0.138955E+04   0.372227E-15
   LPB:   16  -0.381734998145117E+00   0.736750027971913E-03   0.456422E-01   0.102025E+01   0.143965E+04   0.394886E-15
   LPB:   17  -0.381734498805976E+00   0.641272943591891E-03   0.424558E-01   0.928108E+00   0.117543E+04   0.414308E-15
   LPB:   18  -0.381734067012994E+00   0.588431247623459E-03   0.427983E-01   0.857809E+00   0.127192E+04   0.429864E-15
   LPB:   19  -0.381733724657697E+00   0.525139029274540E-03   0.414146E-01   0.819359E+00   0.102350E+04   0.440845E-15
   LPB:   20  -0.381733460731131E+00   0.489380430926220E-03   0.402540E-01   0.793141E+00   0.117563E+04   0.450153E-15
   LPB:   21  -0.381733257556037E+00   0.454604594629874E-03   0.403224E-01   0.768511E+00   0.968467E+03   0.455284E-15
   LPB:   22  -0.381733098029170E+00   0.438563175980719E-03   0.403824E-01   0.784003E+00   0.898787E+03   0.457361E-15
   LPB:   23  -0.381732973433042E+00   0.404618260832359E-03   0.395966E-01   0.796535E+00   0.109607E+04   0.458989E-15
  Finished solving LPB equations
  A_corr:   -0.315018878426719     
 End minimization
 Ecorr=   1713.15508706349     
 A_corr= -0.315018878426719     
 Ecorr_band=  -1713.47010594192     
 End Solvation calculations
RMM:  30    -0.137501467544E+03   -0.11789E-04   -0.12860E-05  7253   0.144E-02    0.749E-03
 Begin Solvation calculations
  rms_SCF =   4.164462195586931E-003 tol =   4.164462195586931E-004
 Begin minimization
 Creating dielectric and ionic cavities
  area:      127.069680848966     
  volume:    637.929002213916     
  Acav:     6.671158244570703E-002
  Solving linear dielectric/ionic screening model
        iter                  A_solv                     rms
   LPB:       -0.381601849880765E+00   0.623246949127794E-01
   LPB:    0  -0.381601713155082E+00   0.612351253245418E-01  -0.971330E-04   0.000000E+00   0.289832E+02  -0.281523E-02
   LPB:    1  -0.381588472677924E+00   0.696117422078634E-02   0.890436E-02   0.000000E+00   0.863474E+02   0.140338E-18
   LPB:    2  -0.381587751273548E+00   0.130352489046731E-02   0.120423E-01   0.402872E-01   0.293903E+03   0.486122E-17
   LPB:    3  -0.381587608378940E+00   0.864508931994421E-03   0.292897E-01   0.814391E-01   0.201742E+03   0.149211E-16
   LPB:    4  -0.381587545291779E+00   0.119301028242037E-02   0.311330E-01   0.415354E+00   0.132812E+03   0.176542E-16
   LPB:    5  -0.381587490725927E+00   0.100043978725083E-02   0.305006E-01   0.882862E+00   0.170984E+03   0.182114E-16
   LPB:    6  -0.381587438259182E+00   0.663376030580612E-03   0.331455E-01   0.884805E+00   0.242508E+03   0.863413E-17
   LPB:    7  -0.381587382861803E+00   0.305470237301431E-03   0.422406E-01   0.828514E+00   0.267786E+03  -0.106083E-16
  Finished solving LPB equations
  A_corr:   -0.314875800416096     
 End minimization
 Ecorr=   1713.10803823629     
 A_corr= -0.314875800416096     
 Ecorr_band=  -1713.42291403671     
 End Solvation calculations
RMM:  31    -0.137501480060E+03   -0.12517E-04   -0.56238E-06  7120   0.779E-03    0.359E-03
 Begin Solvation calculations
  rms_SCF =   4.164462195586931E-003 tol =   4.164462195586931E-004
 Begin minimization
 Creating dielectric and ionic cavities
  area:      127.068469812405     
  volume:    637.919232950970     
  Acav:     6.671094665151259E-002
  Solving linear dielectric/ionic screening model
        iter                  A_solv                     rms
   LPB:       -0.381536962583462E+00   0.449778472236185E-01
   LPB:    0  -0.381536832199625E+00   0.435644988852495E-01  -0.948528E-04   0.000000E+00   0.289837E+02  -0.274918E-02
   LPB:    1  -0.381530496935773E+00   0.422820828667237E-02   0.862609E-02   0.000000E+00   0.854629E+02  -0.168375E-19
   LPB:    2  -0.381530231378333E+00   0.753194437080505E-03   0.120472E-01   0.300139E-01   0.227493E+03   0.430889E-16
   LPB:    3  -0.381530182154382E+00   0.674965495442114E-03   0.291333E-01   0.766502E-01   0.226853E+03   0.443455E-16
   LPB:    4  -0.381530164857818E+00   0.723550548554104E-03   0.241869E-01   0.423245E+00   0.109716E+03   0.457037E-16
   LPB:    5  -0.381530132640632E+00   0.624266102726121E-03   0.505912E-01   0.890500E+00   0.209043E+03   0.432531E-16
   LPB:    6  -0.381530079438480E+00   0.511069969569953E-03   0.496082E-01   0.168408E+01   0.215411E+03   0.292830E-16
   LPB:    7  -0.381530017821189E+00   0.289461088097685E-03   0.442596E-01   0.129813E+01   0.194856E+03   0.313259E-17
  Finished solving LPB equations
  A_corr:   -0.314819071169677     
 End minimization
 Ecorr=   1713.06220372890     
 A_corr= -0.314819071169677     
 Ecorr_band=  -1713.37702280007     
 End Solvation calculations
RMM:  32    -0.137501488133E+03   -0.80726E-05   -0.29767E-06  6982   0.623E-03
 Begin Solvation calculations
  rms_SCF =   4.164462195586931E-003 tol =   4.164462195586931E-004
 Begin minimization
 Creating dielectric and ionic cavities
  area:      127.069823760028     
  volume:    637.902403674489     
  Acav:     6.671165747401467E-002
  Solving linear dielectric/ionic screening model
        iter                  A_solv                     rms
   LPB:       -0.381508999686680E+00   0.280043014848990E-01
   LPB:    0  -0.381508805496538E+00   0.241746703162078E-01  -0.115757E-03   0.000000E+00   0.289844E+02  -0.335514E-02
   LPB:    1  -0.381503630258947E+00   0.116853033173387E-01   0.100668E-01   0.000000E+00   0.138493E+03   0.598413E-19
   LPB:    2  -0.381502986350462E+00   0.214790548016305E-02   0.137942E-01   0.908008E-01   0.591957E+02  -0.397645E-18
   LPB:    3  -0.381502858993831E+00   0.115572059802895E-02   0.193035E-01   0.141338E+00   0.107386E+03  -0.225336E-18
   LPB:    4  -0.381502821811062E+00   0.614315316771481E-03   0.210633E-01   0.267565E+00   0.165638E+03  -0.124042E-16
   LPB:    5  -0.381502800202123E+00   0.443184119508543E-03   0.272967E-01   0.448444E+00   0.343798E+03  -0.164923E-16
   LPB:    6  -0.381502781546936E+00   0.298552141186254E-03   0.373477E-01   0.630974E+00   0.139406E+03  -0.208829E-16
  Finished solving LPB equations
  A_corr:   -0.314791124072921     
 End minimization
 Ecorr=   1713.00963284014     
 A_corr= -0.314791124072921     
 Ecorr_band=  -1713.32442396421     
 End Solvation calculations
   1 F= -.13750149E+03 E0= -.13749961E+03  d E =-.137501E+03
quench:  g(F)=  0.000E+00 g(S)=  0.000E+00 dE (1.order)= 0.000E+00
 bond charge predicted
       N       E                     dE             d eps       ncg     rms          rms(c)
 Begin Solvation calculations
  rms_SCF =   4.164462195586931E-003 tol =   4.164462195586931E-004
 Begin minimization
 Creating dielectric and ionic cavities
  area:      127.223294127568     
  volume:    637.922655166454     
  Acav:     6.679222941697324E-002
  Solving linear dielectric/ionic screening model
        iter                  A_solv                     rms
   LPB:       -0.388307150001133E+00   0.839311933309030E-02
   LPB:    0  -0.388307149980077E+00   0.839578757311698E-02   0.120539E-05   0.000000E+00   0.289835E+02   0.349365E-04
   LPB:    1  -0.382673699416036E+00   0.273208654721671E-02   0.154044E-01   0.000000E+00   0.668375E+06  -0.184830E-20
   LPB:    2  -0.382225053484571E+00   0.221537272769601E-02   0.258315E-01   0.474924E-01   0.158633E+06   0.176069E-17
   LPB:    3  -0.382089914153404E+00   0.232145767347265E-02   0.317677E-01   0.244931E+00   0.411303E+05  -0.144130E-16
   LPB:    4  -0.382033049896236E+00   0.611362453100308E-02   0.350477E-01   0.381402E+00   0.213912E+05  -0.190545E-16
   LPB:    5  -0.382005928166966E+00   0.130391013512728E-01   0.360749E-01   0.463376E+00   0.912109E+03  -0.213840E-16
   LPB:    6  -0.381993574792022E+00   0.215633314893956E-01   0.286779E-01   0.572963E+00   0.227499E+03   0.507191E-16
   LPB:    7  -0.381986008711494E+00   0.122177761041809E-01   0.213295E-01   0.823478E+00   0.142218E+03   0.658055E-16
   LPB:    8  -0.381980325598869E+00   0.135046914101443E-01   0.286644E-01   0.558923E+00   0.321217E+03   0.108017E-15
   LPB:    9  -0.381977087085982E+00   0.995610614847723E-02   0.214841E-01   0.760300E+00   0.151558E+03   0.135628E-15
   LPB:   10  -0.381973983354082E+00   0.269565126159019E-02   0.297424E-01   0.692278E+00   0.312323E+03   0.155775E-15
   LPB:   11  -0.381971810842681E+00   0.842019658661440E-03   0.389157E-01   0.534969E+00   0.327849E+04   0.186273E-15
   LPB:   12  -0.381970384576755E+00   0.844657729616382E-03   0.404792E-01   0.631148E+00   0.361996E+04   0.204506E-15
   LPB:   13  -0.381969488493713E+00   0.103817616495961E-02   0.390109E-01   0.651918E+00   0.131331E+04   0.215604E-15
   LPB:   14  -0.381968890521616E+00   0.114280403913665E-02   0.376663E-01   0.691140E+00   0.198505E+04   0.219017E-15
   LPB:   15  -0.381968475395254E+00   0.800575799127237E-03   0.355994E-01   0.734530E+00   0.797169E+03   0.216730E-15
   LPB:   16  -0.381968174828562E+00   0.503746121040626E-03   0.387060E-01   0.665924E+00   0.256972E+04   0.219262E-15
   LPB:   17  -0.381967939314305E+00   0.313402776496712E-03   0.411752E-01   0.736579E+00   0.220234E+04   0.219935E-15
  Finished solving LPB equations
  A_corr:   -0.315175709897332     
 End minimization
 Ecorr=   1712.79765393121     
 A_corr= -0.315175709897332     
 Ecorr_band=  -1713.11282964110     
 End Solvation calculations
DAV:   1    -0.137504389144E+03   -0.29091E-02   -0.39092E-01 12627   0.120E+00    0.180E-01
 Begin Solvation calculations
  rms_SCF =   4.164462195586931E-003 tol =   4.164462195586931E-004
 Begin minimization
 Creating dielectric and ionic cavities
  area:      127.146388287359     
  volume:    637.786770138796     
  Acav:     6.675185385086360E-002
  Solving linear dielectric/ionic screening model
        iter                  A_solv                     rms
   LPB:       -0.385405916389847E+00   0.546208166936717E+00
   LPB:    0  -0.385262033174507E+00   0.491370324833081E+00  -0.315063E-02   0.000000E+00   0.289899E+02  -0.913362E-01
   LPB:    1  -0.384439873356802E+00   0.785418135259604E-01   0.999413E-02   0.000000E+00   0.668074E+02   0.528377E-17
   LPB:    2  -0.384317905626505E+00   0.137817144284329E-01   0.141511E-01   0.104772E+00   0.288076E+03   0.740806E-17
   LPB:    3  -0.384291524639475E+00   0.137219511934422E-01   0.254985E-01   0.120038E+00   0.574383E+03  -0.705575E-16
   LPB:    4  -0.384283601137716E+00   0.124181461842073E-01   0.223800E-01   0.342201E+00   0.136480E+03  -0.949110E-16
   LPB:    5  -0.384279372022926E+00   0.621497396916476E-02   0.237355E-01   0.503263E+00   0.201004E+03  -0.291372E-16
   LPB:    6  -0.384277031199898E+00   0.273041166454989E-02   0.298514E-01   0.440101E+00   0.226028E+03  -0.158634E-15
   LPB:    7  -0.384275733145815E+00   0.152923183016368E-02   0.319966E-01   0.517352E+00   0.648681E+03  -0.101575E-15
   LPB:    8  -0.384274952994925E+00   0.861269588976411E-03   0.342603E-01   0.561304E+00   0.556011E+03  -0.610223E-16
   LPB:    9  -0.384274466096575E+00   0.533613802342699E-03   0.367857E-01   0.581261E+00   0.635290E+03  -0.249033E-16
   LPB:   10  -0.384274159565908E+00   0.416723711770634E-03   0.380854E-01   0.608074E+00   0.856524E+03  -0.241577E-17
   LPB:   11  -0.384273960416057E+00   0.313344041615867E-03   0.387346E-01   0.638800E+00   0.644357E+03   0.118385E-16
  Finished solving LPB equations
  A_corr:   -0.317522106565193     
 End minimization
 Ecorr=   1713.01185110075     
 A_corr= -0.317522106565193     
 Ecorr_band=  -1713.32937320732     
 End Solvation calculations
RMM:   2    -0.137506867687E+03   -0.24785E-02   -0.28558E-02 18912   0.349E-01    0.164E-01
 Begin Solvation calculations
  rms_SCF =   4.164462195586931E-003 tol =   4.164462195586931E-004
 Begin minimization
 Creating dielectric and ionic cavities
  area:      127.126335796729     
  volume:    637.808862804052     
  Acav:     6.674132629328268E-002
  Solving linear dielectric/ionic screening model
        iter                  A_solv                     rms
   LPB:       -0.385079734201278E+00   0.346002857675774E+00
   LPB:    0  -0.385077834905303E+00   0.344891654502200E+00  -0.361990E-03   0.000000E+00   0.289888E+02  -0.104937E-01
   LPB:    1  -0.384794631119075E+00   0.357122773198612E-01   0.869168E-02   0.000000E+00   0.629833E+02   0.671216E-18
   LPB:    2  -0.384762754642893E+00   0.742769514006547E-02   0.173975E-01   0.562327E-01   0.107800E+03  -0.418149E-16
   LPB:    3  -0.384758492621610E+00   0.316621876427292E-02   0.222462E-01   0.104562E+00   0.174235E+03  -0.538724E-16
   LPB:    4  -0.384757229924085E+00   0.191608140515422E-02   0.273279E-01   0.241176E+00   0.327128E+03  -0.409703E-17
   LPB:    5  -0.384756720233643E+00   0.186303959166160E-02   0.284378E-01   0.387898E+00   0.226801E+03  -0.537368E-17
   LPB:    6  -0.384756471335992E+00   0.217588444038993E-02   0.274835E-01   0.505287E+00   0.223703E+03  -0.100157E-16
   LPB:    7  -0.384756323460416E+00   0.136586246429994E-02   0.253294E-01   0.644649E+00   0.116666E+03  -0.198331E-16
   LPB:    8  -0.384756206840751E+00   0.566404343847254E-03   0.324539E-01   0.615508E+00   0.297872E+03  -0.242530E-16
   LPB:    9  -0.384756119769763E+00   0.252081404845639E-03   0.398971E-01   0.607333E+00   0.374967E+03  -0.343036E-16
  Finished solving LPB equations
  A_corr:   -0.318014793476480     
 End minimization
 Ecorr=   1712.84721219936     
 A_corr= -0.318014793476480     
 Ecorr_band=  -1713.16522699283     
 End Solvation calculations
RMM:   3    -0.137506285725E+03    0.58196E-03   -0.15190E-03 14928   0.100E-01    0.127E-01
 Begin Solvation calculations
  rms_SCF =   4.164462195586931E-003 tol =   4.164462195586931E-004
 Begin minimization
 Creating dielectric and ionic cavities
  area:      127.129644715077     
  volume:    637.802044473375     
  Acav:     6.674306347541546E-002
  Solving linear dielectric/ionic screening model
        iter                  A_solv                     rms
   LPB:       -0.385847844678907E+00   0.354068991309293E+00
   LPB:    0  -0.385841288152137E+00   0.350326234580547E+00  -0.672565E-03   0.000000E+00   0.289892E+02  -0.194971E-01
   LPB:    1  -0.385538107719714E+00   0.323201425897293E-01   0.882632E-02   0.000000E+00   0.632993E+02   0.599254E-18
   LPB:    2  -0.385511506146402E+00   0.483709237179217E-02   0.144759E-01   0.534983E-01   0.169218E+03  -0.294409E-16
   LPB:    3  -0.385508126319450E+00   0.324782083153744E-02   0.241749E-01   0.760797E-01   0.334692E+03  -0.179793E-16
   LPB:    4  -0.385507153601641E+00   0.268196110541348E-02   0.256729E-01   0.271008E+00   0.200248E+03  -0.148267E-16
   LPB:    5  -0.385506723643550E+00   0.271604246893033E-02   0.251221E-01   0.451708E+00   0.284268E+03   0.244197E-17
   LPB:    6  -0.385506496210589E+00   0.159123907472308E-02   0.249820E-01   0.531931E+00   0.983347E+02   0.571262E-17
   LPB:    7  -0.385506349356519E+00   0.730159445612612E-03   0.293695E-01   0.549242E+00   0.361866E+03  -0.930538E-18
   LPB:    8  -0.385506249579624E+00   0.281359453428940E-03   0.362293E-01   0.550784E+00   0.262916E+03   0.719797E-18
  Finished solving LPB equations
  A_corr:   -0.318763186104209     
 End minimization
 Ecorr=   1712.86331472265     
 A_corr= -0.318763186104209     
 Ecorr_band=  -1713.18207790875     
 End Solvation calculations
RMM:   4    -0.137506160937E+03    0.12479E-03   -0.46481E-04 13372   0.714E-02    0.100E-01
 Begin Solvation calculations
  rms_SCF =   4.164462195586931E-003 tol =   4.164462195586931E-004
 Begin minimization
 Creating dielectric and ionic cavities
  area:      127.113432478969     
  volume:    637.790345020012     
  Acav:     6.673455205145855E-002
  Solving linear dielectric/ionic screening model
        iter                  A_solv                     rms
   LPB:       -0.387537457872555E+00   0.156467849775401E+00
   LPB:    0  -0.387490339199421E+00   0.715347419740398E-01  -0.180297E-02   0.000000E+00   0.289897E+02  -0.522677E-01
   LPB:    1  -0.387323389626259E+00   0.252868616007786E-01   0.172530E-01   0.000000E+00   0.156513E+03  -0.308259E-17
   LPB:    2  -0.387306074374591E+00   0.164831421781753E-01   0.193292E-01   0.925748E-01   0.165327E+03   0.138102E-16
   LPB:    3  -0.387300924011025E+00   0.675069289382655E-02   0.188722E-01   0.304650E+00   0.941801E+02   0.624896E-16
   LPB:    4  -0.387298505540559E+00   0.508780897372331E-02   0.257276E-01   0.344451E+00   0.481804E+03   0.284233E-15
   LPB:    5  -0.387297523942451E+00   0.769307485837898E-02   0.226959E-01   0.460091E+00   0.174801E+03   0.384757E-15
   LPB:    6  -0.387296876380651E+00   0.320964824810961E-02   0.202355E-01   0.739914E+00   0.855563E+02   0.421846E-15
   LPB:    7  -0.387296401416975E+00   0.127015416464014E-02   0.312954E-01   0.474256E+00   0.417858E+03   0.450039E-15
   LPB:    8  -0.387296102883379E+00   0.631706524705421E-03   0.345913E-01   0.568652E+00   0.195376E+03   0.478019E-15
   LPB:    9  -0.387295906835154E+00   0.473642538393889E-03   0.363858E-01   0.624316E+00   0.399300E+03   0.487492E-15
   LPB:   10  -0.387295775936414E+00   0.363087429768697E-03   0.377454E-01   0.643636E+00   0.292201E+03   0.495565E-15
  Finished solving LPB equations
  A_corr:   -0.320561223884955     
 End minimization
 Ecorr=   1712.64204509668     
 A_corr= -0.320561223884955     
 Ecorr_band=  -1712.96260632056     
 End Solvation calculations
RMM:   5    -0.137506031448E+03    0.12949E-03   -0.33403E-04 14615   0.417E-02    0.690E-02
 Begin Solvation calculations
  rms_SCF =   4.164462195586931E-003 tol =   4.164462195586931E-004
 Begin minimization
 Creating dielectric and ionic cavities
  area:      127.109744095492     
  volume:    637.802692088868     
  Acav:     6.673261565013322E-002
  Solving linear dielectric/ionic screening model
        iter                  A_solv                     rms
   LPB:       -0.388718159082692E+00   0.115402321781677E+00
   LPB:    0  -0.388695377996663E+00   0.556904076681425E-01  -0.125367E-02   0.000000E+00   0.289891E+02  -0.363429E-01
   LPB:    1  -0.388617726631473E+00   0.249915850890553E-01   0.171584E-01   0.000000E+00   0.115869E+03   0.158662E-17
   LPB:    2  -0.388609640594517E+00   0.134263657756760E-01   0.168718E-01   0.105901E+00   0.105827E+03   0.421105E-15
   LPB:    3  -0.388606947437381E+00   0.492850123793139E-02   0.175369E-01   0.320432E+00   0.145216E+03   0.454426E-15
   LPB:    4  -0.388605839893360E+00   0.537243060801926E-02   0.221310E-01   0.325875E+00   0.169864E+03   0.525154E-15
   LPB:    5  -0.388605320035350E+00   0.361186766547051E-02   0.198784E-01   0.522569E+00   0.173923E+03   0.557843E-15
   LPB:    6  -0.388604967817364E+00   0.125288436078818E-02   0.290520E-01   0.463588E+00   0.100343E+03   0.562317E-15
   LPB:    7  -0.388604729942019E+00   0.729473470397468E-03   0.361071E-01   0.543401E+00   0.310589E+03   0.552959E-15
   LPB:    8  -0.388604559093076E+00   0.440391338446676E-03   0.369282E-01   0.702261E+00   0.165853E+03   0.546672E-15
   LPB:    9  -0.388604434410078E+00   0.327132294241261E-03   0.381426E-01   0.706549E+00   0.200271E+03   0.541589E-15
  Finished solving LPB equations
  A_corr:   -0.321871818759945     
 End minimization
 Ecorr=   1712.38672946835     
 A_corr= -0.321871818759945     
 Ecorr_band=  -1712.70860128711     
 End Solvation calculations
RMM:   6    -0.137505964501E+03    0.66947E-04   -0.19049E-04 12278   0.441E-02    0.342E-02
 Begin Solvation calculations
  rms_SCF =   4.164462195586931E-003 tol =   4.164462195586931E-004
 Begin minimization
 Creating dielectric and ionic cavities
  area:      127.118198409733     
  volume:    637.835122575401     
  Acav:     6.673705416510969E-002
  Solving linear dielectric/ionic screening model
        iter                  A_solv                     rms
   LPB:       -0.389974299496776E+00   0.116563997163231E+00
   LPB:    0  -0.389959177720853E+00   0.803704513834303E-01  -0.102143E-02   0.000000E+00   0.289876E+02  -0.296089E-01
   LPB:    1  -0.389892582198520E+00   0.444458108394789E-01   0.134861E-01   0.000000E+00   0.957913E+02  -0.152501E-17
   LPB:    2  -0.389881888329564E+00   0.682029741823648E-02   0.124770E-01   0.173567E+00   0.919384E+02  -0.339097E-15
   LPB:    3  -0.389878865362695E+00   0.349002331660539E-02   0.219422E-01   0.160742E+00   0.206110E+03  -0.395081E-15
   LPB:    4  -0.389877926402241E+00   0.294216037965608E-02   0.267993E-01   0.254314E+00   0.121257E+03  -0.411321E-15
   LPB:    5  -0.389877530709269E+00   0.313073141736651E-02   0.241309E-01   0.468016E+00   0.287115E+03  -0.359074E-15
   LPB:    6  -0.389877253798226E+00   0.142507372720862E-02   0.282996E-01   0.596726E+00   0.641308E+02  -0.315378E-15
   LPB:    7  -0.389877034275489E+00   0.837770485580963E-03   0.344135E-01   0.651916E+00   0.200369E+03  -0.236386E-15
   LPB:    8  -0.389876863591147E+00   0.425680285938769E-03   0.371847E-01   0.719579E+00   0.103969E+03  -0.171544E-15
   LPB:    9  -0.389876740147915E+00   0.321667855462268E-03   0.386013E-01   0.696684E+00   0.148990E+03  -0.113771E-15
  Finished solving LPB equations
  A_corr:   -0.323139685982805     
 End minimization
 Ecorr=   1712.03162635083     
 A_corr= -0.323139685982805     
 Ecorr_band=  -1712.35476603681     
 End Solvation calculations
RMM:   7    -0.137505949070E+03    0.15431E-04   -0.44858E-05  8335   0.268E-02    0.156E-02
 Begin Solvation calculations
  rms_SCF =   4.164462195586931E-003 tol =   4.164462195586931E-004
 Begin minimization
 Creating dielectric and ionic cavities
  area:      127.125819984841     
  volume:    637.847305285098     
  Acav:     6.674105549204147E-002
  Solving linear dielectric/ionic screening model
        iter                  A_solv                     rms
   LPB:       -0.390273549281593E+00   0.498862351703071E-01
   LPB:    0  -0.390271722436453E+00   0.396467924539246E-01  -0.355029E-03   0.000000E+00   0.289870E+02  -0.102912E-01
   LPB:    1  -0.390263959139060E+00   0.124054937870935E-01   0.106324E-01   0.000000E+00   0.781706E+02   0.679884E-18
   LPB:    2  -0.390262676612437E+00   0.186925231093725E-02   0.137754E-01   0.127511E+00   0.997665E+02   0.827075E-16
   LPB:    3  -0.390262415612726E+00   0.123843258322175E-02   0.230388E-01   0.121679E+00   0.176852E+03   0.149438E-15
   LPB:    4  -0.390262324779000E+00   0.112277085276357E-02   0.276561E-01   0.289919E+00   0.744841E+02   0.163027E-15
   LPB:    5  -0.390262271905857E+00   0.116382893441053E-02   0.269027E-01   0.598389E+00   0.262053E+03   0.170720E-15
   LPB:    6  -0.390262207145772E+00   0.683702527903318E-03   0.399681E-01   0.824431E+00   0.473498E+02   0.172416E-15
   LPB:    7  -0.390262125869887E+00   0.393409751983134E-03   0.423236E-01   0.118518E+01   0.664088E+02   0.156705E-15
  Finished solving LPB equations
  A_corr:   -0.323521070377846     
 End minimization
 Ecorr=   1711.88247600863     
 A_corr= -0.323521070377846     
 Ecorr_band=  -1712.20599707901     
 End Solvation calculations
RMM:   8    -0.137505952254E+03   -0.31848E-05   -0.18149E-05  7021   0.219E-02
 Begin Solvation calculations
  rms_SCF =   4.164462195586931E-003 tol =   4.164462195586931E-004
 Begin minimization
 Creating dielectric and ionic cavities
  area:      127.145650141689     
  volume:    637.880975070004     
  Acav:     6.675146632438647E-002
  Solving linear dielectric/ionic screening model
        iter                  A_solv                     rms
   LPB:       -0.391348623395653E+00   0.108385431052777E+00
   LPB:    0  -0.391337330786415E+00   0.763395203492952E-01  -0.882718E-03   0.000000E+00   0.289854E+02  -0.255860E-01
   LPB:    1  -0.391295769132338E+00   0.349802198468894E-01   0.119081E-01   0.000000E+00   0.817785E+02  -0.117869E-17
   LPB:    2  -0.391288403809251E+00   0.491303946024569E-02   0.131737E-01   0.160189E+00   0.796572E+02  -0.307609E-15
   LPB:    3  -0.391286812303003E+00   0.317690331421697E-02   0.213061E-01   0.133604E+00   0.193009E+03  -0.358384E-15
   LPB:    4  -0.391286318813936E+00   0.251385388696068E-02   0.261707E-01   0.252440E+00   0.719538E+02  -0.371053E-15
   LPB:    5  -0.391286054699338E+00   0.243830859813762E-02   0.256468E-01   0.546132E+00   0.270544E+03  -0.338301E-15
   LPB:    6  -0.391285845842606E+00   0.966463233481566E-03   0.302670E-01   0.670068E+00   0.577897E+02  -0.318934E-15
   LPB:    7  -0.391285684816949E+00   0.535713513231203E-03   0.351431E-01   0.664012E+00   0.121819E+03  -0.308859E-15
   LPB:    8  -0.391285566770392E+00   0.316103827727159E-03   0.380002E-01   0.677973E+00   0.114106E+03  -0.300983E-15
  Finished solving LPB equations
  A_corr:   -0.324534100446006     
 End minimization
 Ecorr=   1711.51376504707     
 A_corr= -0.324534100446006     
 Ecorr_band=  -1711.83829914752     
 End Solvation calculations
   2 F= -.13750595E+03 E0= -.13750404E+03  d E =-.446412E-02
quench:  g(F)=  0.000E+00 g(S)=  0.000E+00 dE (1.order)= 0.000E+00
 bond charge predicted
       N       E                     dE             d eps       ncg     rms          rms(c)
 Begin Solvation calculations
  rms_SCF =   4.164462195586931E-003 tol =   4.164462195586931E-004
 Begin minimization
 Creating dielectric and ionic cavities
  area:      127.268568749732     
  volume:    637.828306218868     
  Acav:     6.681599859360934E-002
  Solving linear dielectric/ionic screening model
        iter                  A_solv                     rms
   LPB:       -0.395001479723125E+00   0.582678284842809E-02
   LPB:    0  -0.395001479151161E+00   0.595990643103454E-02  -0.628190E-05   0.000000E+00   0.289879E+02  -0.182099E-03
   LPB:    1  -0.392552391707164E+00   0.248432053325816E-02   0.158210E-01   0.000000E+00   0.466330E+06   0.121483E-19
   LPB:    2  -0.392299084358184E+00   0.298525018192268E-02   0.266438E-01   0.614161E-01   0.108599E+06   0.507136E-17
   LPB:    3  -0.392218797635284E+00   0.672208114592282E-02   0.325319E-01   0.259587E+00   0.204871E+05   0.103094E-17
   LPB:    4  -0.392185444746705E+00   0.186684710389382E-01   0.340736E-01   0.396626E+00   0.151109E+04   0.931721E-18
   LPB:    5  -0.392172368101559E+00   0.287671024886757E-01   0.242869E-01   0.550059E+00   0.180903E+03   0.866158E-20
   LPB:    6  -0.392163116548758E+00   0.929547800820264E-02   0.193944E-01   0.885958E+00   0.213155E+03   0.603809E-18
   LPB:    7  -0.392155743328929E+00   0.415602555271497E-02   0.355002E-01   0.435401E+00   0.659744E+03   0.125919E-16
   LPB:    8  -0.392151330369956E+00   0.866471777550117E-02   0.364649E-01   0.582677E+00   0.695781E+03   0.358890E-16
   LPB:    9  -0.392148844040428E+00   0.777649564960448E-02   0.258211E-01   0.795664E+00   0.100532E+03   0.194492E-16
   LPB:   10  -0.392146762117707E+00   0.281471350741821E-02   0.286125E-01   0.755655E+00   0.447047E+03   0.696539E-16
   LPB:   11  -0.392145247902753E+00   0.744907135232862E-03   0.381713E-01   0.545183E+00   0.502344E+03   0.151986E-16
   LPB:   12  -0.392144264909058E+00   0.575801124145544E-03   0.402463E-01   0.615707E+00   0.152746E+04  -0.398246E-16
   LPB:   13  -0.392143652687359E+00   0.700021210416507E-03   0.393702E-01   0.636674E+00   0.106700E+04  -0.716748E-16
   LPB:   14  -0.392143236468033E+00   0.806884186139219E-03   0.388240E-01   0.689415E+00   0.743334E+03  -0.901898E-16
   LPB:   15  -0.392142958097747E+00   0.704307000649880E-03   0.359241E-01   0.722795E+00   0.852915E+03  -0.102289E-15
   LPB:   16  -0.392142739934905E+00   0.435676249858877E-03   0.378657E-01   0.743530E+00   0.846613E+03  -0.109382E-15
   LPB:   17  -0.392142584441597E+00   0.287761062639072E-03   0.396695E-01   0.680330E+00   0.117921E+04  -0.114682E-15
  Finished solving LPB equations
  A_corr:   -0.325326585847988     
 End minimization
 Ecorr=   1711.21500382679     
 A_corr= -0.325326585847988     
 Ecorr_band=  -1711.54033041264     
 End Solvation calculations
DAV:   1    -0.137507027177E+03   -0.10781E-02   -0.20981E-01 12765   0.108E+00    0.114E-01
 Begin Solvation calculations
  rms_SCF =   4.164462195586931E-003 tol =   4.164462195586931E-004
 Begin minimization
 Creating dielectric and ionic cavities
  area:      127.190885652808     
  volume:    637.810734884410     
  Acav:     6.677521496772394E-002
  Solving linear dielectric/ionic screening model
        iter                  A_solv                     rms
   LPB:       -0.393193292931040E+00   0.120219451407864E+00
   LPB:    0  -0.393174652389114E+00   0.806847290334097E-01  -0.113404E-02   0.000000E+00   0.289887E+02  -0.328745E-01
   LPB:    1  -0.393126023910974E+00   0.384643026175255E-01   0.127346E-01   0.000000E+00   0.796443E+02  -0.352902E-18
   LPB:    2  -0.393112774912961E+00   0.735941803915883E-02   0.150107E-01   0.231141E+00   0.151999E+03   0.113508E-15
   LPB:    3  -0.393109233864730E+00   0.688687323875678E-02   0.226875E-01   0.176833E+00   0.300695E+03   0.138924E-15
   LPB:    4  -0.393107880742626E+00   0.502818370895949E-02   0.225069E-01   0.385191E+00   0.103604E+03   0.146223E-15
   LPB:    5  -0.393107152255807E+00   0.248854259518159E-02   0.245043E-01   0.494489E+00   0.254151E+03   0.205941E-15
   LPB:    6  -0.393106712048781E+00   0.886005762358731E-03   0.310653E-01   0.476652E+00   0.304272E+03   0.235074E-15
   LPB:    7  -0.393106450744460E+00   0.562136961020632E-03   0.344490E-01   0.535290E+00   0.520562E+03   0.244941E-15
   LPB:    8  -0.393106283083644E+00   0.396728918259263E-03   0.359675E-01   0.614541E+00   0.540177E+03   0.250483E-15
  Finished solving LPB equations
  A_corr:   -0.326331068115920     
 End minimization
 Ecorr=   1711.14748076307     
 A_corr= -0.326331068115920     
 Ecorr_band=  -1711.47381183119     
 End Solvation calculations
RMM:   2    -0.137508469241E+03   -0.14421E-02   -0.15672E-02 18942   0.312E-01    0.803E-02
 Begin Solvation calculations
  rms_SCF =   4.164462195586931E-003 tol =   4.164462195586931E-004
 Begin minimization
 Creating dielectric and ionic cavities
  area:      127.179277768769     
  volume:    637.830381158141     
  Acav:     6.676912082860351E-002
  Solving linear dielectric/ionic screening model
        iter                  A_solv                     rms
   LPB:       -0.393374850887464E+00   0.869110774361928E-01
   LPB:    0  -0.393374615746322E+00   0.860344506383198E-01  -0.127371E-03   0.000000E+00   0.289878E+02  -0.369222E-02
   LPB:    1  -0.393354915787112E+00   0.122220852180312E-01   0.948412E-02   0.000000E+00   0.586859E+02   0.335380E-18
   LPB:    2  -0.393351218009476E+00   0.225379074864598E-02   0.170505E-01   0.104408E+00   0.115720E+03   0.568039E-17
   LPB:    3  -0.393350581277784E+00   0.995294547028746E-03   0.237644E-01   0.123545E+00   0.218810E+03  -0.558010E-17
   LPB:    4  -0.393350370966709E+00   0.872227673692367E-03   0.294860E-01   0.266205E+00   0.331682E+03   0.619806E-18
   LPB:    5  -0.393350261838705E+00   0.109151778207271E-02   0.319775E-01   0.478460E+00   0.149180E+03   0.179755E-17
   LPB:    6  -0.393350176791030E+00   0.143095009044551E-02   0.314271E-01   0.792987E+00   0.231367E+03   0.369433E-17
   LPB:    7  -0.393350104659311E+00   0.984228427871734E-03   0.302147E-01   0.882167E+00   0.645810E+02  -0.220790E-17
   LPB:    8  -0.393350039347466E+00   0.446666281371983E-03   0.349033E-01   0.783822E+00   0.312928E+03  -0.270937E-17
   LPB:    9  -0.393349985147138E+00   0.211194911353621E-03   0.405749E-01   0.713870E+00   0.209410E+03   0.185883E-16
  Finished solving LPB equations
  A_corr:   -0.326580864318534     
 End minimization
 Ecorr=   1710.96589681543     
 A_corr= -0.326580864318534     
 Ecorr_band=  -1711.29247767974     
 End Solvation calculations
RMM:   3    -0.137508197479E+03    0.27176E-03   -0.71602E-04 14637   0.718E-02    0.621E-02
 Begin Solvation calculations
  rms_SCF =   4.164462195586931E-003 tol =   4.164462195586931E-004
 Begin minimization
 Creating dielectric and ionic cavities
  area:      127.185561061235     
  volume:    637.835511408416     
  Acav:     6.677241955714820E-002
  Solving linear dielectric/ionic screening model
        iter                  A_solv                     rms
   LPB:       -0.393682085176873E+00   0.155936344800876E+00
   LPB:    0  -0.393681264749221E+00   0.154681962247323E+00  -0.237919E-03   0.000000E+00   0.289876E+02  -0.689670E-02
   LPB:    1  -0.393623966155589E+00   0.134278531305602E-01   0.857966E-02   0.000000E+00   0.648829E+02   0.283214E-18
   LPB:    2  -0.393619473547970E+00   0.241208601446454E-02   0.155125E-01   0.433654E-01   0.137465E+03   0.630320E-17
   LPB:    3  -0.393618859907429E+00   0.171090689278418E-02   0.233075E-01   0.909079E-01   0.289034E+03  -0.635583E-17
   LPB:    4  -0.393618663740439E+00   0.127887647529518E-02   0.265272E-01   0.280877E+00   0.162911E+03  -0.150933E-16
   LPB:    5  -0.393618573348138E+00   0.122234405031335E-02   0.254381E-01   0.480520E+00   0.295604E+03  -0.230573E-16
   LPB:    6  -0.393618518654982E+00   0.717946174219983E-03   0.264013E-01   0.582990E+00   0.113658E+03  -0.204820E-16
   LPB:    7  -0.393618478377248E+00   0.381212286461860E-03   0.319929E-01   0.607720E+00   0.469836E+03  -0.217448E-16
  Finished solving LPB equations
  A_corr:   -0.326846058820100     
 End minimization
 Ecorr=   1710.94663875843     
 A_corr= -0.326846058820100     
 Ecorr_band=  -1711.27348481725     
 End Solvation calculations
RMM:   4    -0.137508203317E+03   -0.58376E-05   -0.15811E-04 13007   0.407E-02    0.608E-02
 Begin Solvation calculations
  rms_SCF =   4.164462195586931E-003 tol =   4.164462195586931E-004
 Begin minimization
 Creating dielectric and ionic cavities
  area:      127.188076252593     
  volume:    637.848358406857     
  Acav:     6.677374003261152E-002
  Solving linear dielectric/ionic screening model
        iter                  A_solv                     rms
   LPB:       -0.393919285501839E+00   0.973298211051054E-01
   LPB:    0  -0.393918324228160E+00   0.947825545444167E-01  -0.257535E-03   0.000000E+00   0.289870E+02  -0.746518E-02
   LPB:    1  -0.393891219867110E+00   0.154903545611222E-01   0.100030E-01   0.000000E+00   0.595169E+02   0.159268E-18
   LPB:    2  -0.393885482168652E+00   0.266767386585635E-02   0.163298E-01   0.129672E+00   0.165306E+03   0.135603E-16
   LPB:    3  -0.393884392734616E+00   0.140683886802131E-02   0.240153E-01   0.129109E+00   0.375125E+03   0.192568E-16
   LPB:    4  -0.393884021706910E+00   0.115637422661310E-02   0.293380E-01   0.278782E+00   0.228118E+03   0.195306E-16
   LPB:    5  -0.393883853509389E+00   0.143694690132706E-02   0.298915E-01   0.444934E+00   0.315899E+03   0.117150E-16
   LPB:    6  -0.393883758175244E+00   0.125141121014597E-02   0.290556E-01   0.583105E+00   0.993105E+02   0.909313E-17
   LPB:    7  -0.393883696441601E+00   0.869941125422723E-03   0.268020E-01   0.701999E+00   0.268002E+03  -0.136068E-16
   LPB:    8  -0.393883645256867E+00   0.359913468732945E-03   0.321752E-01   0.690660E+00   0.151663E+03  -0.234366E-16
  Finished solving LPB equations
  A_corr:   -0.327109905224255     
 End minimization
 Ecorr=   1710.81542680700     
 A_corr= -0.327109905224255     
 Ecorr_band=  -1711.14253671223     
 End Solvation calculations
RMM:   5    -0.137508164940E+03    0.38377E-04   -0.47191E-05  8568   0.239E-02    0.316E-02
 Begin Solvation calculations
  rms_SCF =   4.164462195586931E-003 tol =   4.164462195586931E-004
 Begin minimization
 Creating dielectric and ionic cavities
  area:      127.196209089875     
  volume:    637.863157933751     
  Acav:     6.677800977218423E-002
  Solving linear dielectric/ionic screening model
        iter                  A_solv                     rms
   LPB:       -0.394352880554524E+00   0.535733783160853E-01
   LPB:    0  -0.394351093953414E+00   0.440412932449173E-01  -0.351101E-03   0.000000E+00   0.289863E+02  -0.101771E-01
   LPB:    1  -0.394336902883769E+00   0.205548342733519E-01   0.115805E-01   0.000000E+00   0.977860E+02   0.755038E-18
   LPB:    2  -0.394333160442886E+00   0.298692575730748E-02   0.153182E-01   0.199370E+00   0.116234E+03   0.320208E-16
   LPB:    3  -0.394332320453859E+00   0.252996033334721E-02   0.236860E-01   0.145156E+00   0.412141E+03   0.290805E-16
   LPB:    4  -0.394332015821291E+00   0.175691645668630E-02   0.264434E-01   0.324846E+00   0.918323E+02   0.133059E-16
   LPB:    5  -0.394331858474234E+00   0.182556031472594E-02   0.285961E-01   0.477632E+00   0.306575E+03   0.286345E-16
   LPB:    6  -0.394331746223834E+00   0.853052542597208E-03   0.269456E-01   0.757092E+00   0.101437E+03   0.349472E-16
   LPB:    7  -0.394331648627786E+00   0.424709834922662E-03   0.354723E-01   0.660455E+00   0.224999E+03   0.452039E-16
   LPB:    8  -0.394331577261044E+00   0.267065628277636E-03   0.387038E-01   0.670191E+00   0.153347E+03   0.558672E-16
  Finished solving LPB equations
  A_corr:   -0.327553567488859     
 End minimization
 Ecorr=   1710.63941988478     
 A_corr= -0.327553567488859     
 Ecorr_band=  -1710.96697345226     
 End Solvation calculations
RMM:   6    -0.137508178700E+03   -0.13760E-04   -0.84740E-05 11571   0.438E-02    0.242E-02
 Begin Solvation calculations
  rms_SCF =   4.164462195586931E-003 tol =   4.164462195586931E-004
 Begin minimization
 Creating dielectric and ionic cavities
  area:      127.202305220284     
  volume:    637.871743385794     
  Acav:     6.678121024064892E-002
  Solving linear dielectric/ionic screening model
        iter                  A_solv                     rms
   LPB:       -0.394807131105816E+00   0.470881648322458E-01
   LPB:    0  -0.394804507051348E+00   0.296586423950736E-01  -0.425508E-03   0.000000E+00   0.289859E+02  -0.123337E-01
   LPB:    1  -0.394793311484109E+00   0.100534680157842E-01   0.173389E-01   0.000000E+00   0.630304E+02   0.666007E-18
   LPB:    2  -0.394791784317644E+00   0.569788732236111E-02   0.148115E-01   0.159685E+00   0.223766E+03   0.170254E-15
   LPB:    3  -0.394791280050760E+00   0.285958626809801E-02   0.178022E-01   0.274725E+00   0.142854E+03   0.224732E-15
[...]
   LPB:    7  -0.409454826111268E+00   0.314208864474093E-03   0.340752E-01   0.675491E+00   0.218565E+03  -0.575795E-17
   LPB:    8  -0.409454822430879E+00   0.265089310266906E-03   0.271794E-01   0.873473E+00   0.184155E+03  -0.343938E-17
   LPB:    9  -0.409454818931935E+00   0.122572988113121E-03   0.330078E-01   0.782828E+00   0.240634E+03  -0.185766E-17
  Finished solving LPB equations
  A_corr:   -0.342878460278421     
 End minimization
 Ecorr=   1709.01229409664     
 A_corr= -0.342878460278421     
 Ecorr_band=  -1709.35517255692     
 End Solvation calculations
  70 F= -.13740592E+03 E0= -.13740401E+03  d E =-.136821E-02
quench:  g(F)=  0.000E+00 g(S)=  0.000E+00 dE (1.order)= 0.000E+00
 bond charge predicted
       N       E                     dE             d eps       ncg     rms          rms(c)
 Begin Solvation calculations
  rms_SCF =   1.653723243368543E-003 tol =   1.653723243368543E-004
 Begin minimization
 Creating dielectric and ionic cavities
  area:      126.801780494481     
  volume:    636.303070669346     
  Acav:     6.657093475960256E-002
  Solving linear dielectric/ionic screening model
        iter                  A_solv                     rms
   LPB:       -0.409911421321963E+00   0.247554155335593E-02
   LPB:    0  -0.409911421229944E+00   0.253351033376506E-02  -0.251657E-05   0.000000E+00   0.290594E+02  -0.731302E-04
   LPB:    1  -0.409566000299504E+00   0.101119214792586E-02   0.158075E-01   0.000000E+00   0.345382E+06  -0.259881E-20
   LPB:    2  -0.409534438955479E+00   0.114182566842000E-02   0.254262E-01   0.568053E-01   0.813657E+05  -0.924998E-17
   LPB:    3  -0.409525939750704E+00   0.233458082005811E-02   0.305918E-01   0.223820E+00   0.140458E+05  -0.142669E-16
   LPB:    4  -0.409522684839563E+00   0.552916177137199E-02   0.331669E-01   0.353232E+00   0.122533E+04  -0.846236E-17
   LPB:    5  -0.409521392741307E+00   0.842188764692249E-02   0.250159E-01   0.526315E+00   0.185181E+03  -0.171763E-16
   LPB:    6  -0.409520528367678E+00   0.357114573833328E-02   0.197351E-01   0.847975E+00   0.197019E+03  -0.212091E-16
   LPB:    7  -0.409519889677714E+00   0.360532903216897E-02   0.307107E-01   0.474829E+00   0.343215E+03  -0.169916E-16
   LPB:    8  -0.409519543024050E+00   0.297018555542422E-02   0.238611E-01   0.698563E+00   0.139610E+03  -0.188148E-16
   LPB:    9  -0.409519262381349E+00   0.898269138552508E-03   0.279792E-01   0.690418E+00   0.293173E+03  -0.203212E-16
   LPB:   10  -0.409519058194210E+00   0.225165086036937E-03   0.393549E-01   0.517263E+00   0.279430E+04  -0.311281E-16
   LPB:   11  -0.409518934218394E+00   0.147360254280331E-03   0.391248E-01   0.610738E+00   0.840949E+04  -0.441577E-16
  Finished solving LPB equations
  A_corr:   -0.342947999458791     
 End minimization
 Ecorr=   1709.00944569338     
 A_corr= -0.342947999458791     
 Ecorr_band=  -1709.35239369284     
 End Solvation calculations
DAV:   1    -0.137406746355E+03   -0.82425E-03   -0.32321E-02 12468   0.415E-01    0.519E-02
 Begin Solvation calculations
  rms_SCF =   1.653723243368543E-003 tol =   1.653723243368543E-004
 Begin minimization
 Creating dielectric and ionic cavities
  area:      126.803537273652     
  volume:    636.315735851081     
  Acav:     6.657185706866708E-002
  Solving linear dielectric/ionic screening model
        iter                  A_solv                     rms
   LPB:       -0.409283388913477E+00   0.636422076862489E-01
   LPB:    0  -0.409282122357793E+00   0.592587513116965E-01   0.295249E-03   0.000000E+00   0.290588E+02   0.857958E-02
   LPB:    1  -0.409267754904194E+00   0.130885693555427E-01   0.105282E-01   0.000000E+00   0.726554E+02   0.156122E-18
   LPB:    2  -0.409265075256293E+00   0.210852325341471E-02   0.145366E-01   0.135079E+00   0.300862E+03  -0.109532E-16
   LPB:    3  -0.409264378297645E+00   0.167366139321098E-02   0.265775E-01   0.142258E+00   0.614296E+03  -0.939608E-17
   LPB:    4  -0.409264143762569E+00   0.194851336908455E-02   0.264635E-01   0.337962E+00   0.229801E+03  -0.610618E-17
   LPB:    5  -0.409264024878927E+00   0.140819938722617E-02   0.235650E-01   0.569238E+00   0.172273E+03  -0.102309E-16
   LPB:    6  -0.409263945420727E+00   0.702868180599486E-03   0.292168E-01   0.539078E+00   0.191610E+03  -0.359272E-17
   LPB:    7  -0.409263894053654E+00   0.359440066935134E-03   0.330486E-01   0.571513E+00   0.606799E+03   0.166520E-18
   LPB:    8  -0.409263858352304E+00   0.197697041631844E-03   0.357057E-01   0.643302E+00   0.874992E+03   0.329267E-17
   LPB:    9  -0.409263832350770E+00   0.132271267665679E-03   0.392079E-01   0.663252E+00   0.155805E+04   0.482032E-17
  Finished solving LPB equations
  A_corr:   -0.342691975282102     
 End minimization
 Ecorr=   1709.01292710366     
 A_corr= -0.342691975282102     
 Ecorr_band=  -1709.35561907894     
 End Solvation calculations
RMM:   2    -0.137406988782E+03   -0.24243E-03   -0.26963E-03 20443   0.121E-01    0.351E-02
 Begin Solvation calculations
  rms_SCF =   1.653723243368543E-003 tol =   1.653723243368543E-004
 Begin minimization
 Creating dielectric and ionic cavities
  area:      126.801918126255     
  volume:    636.315682460555     
  Acav:     6.657100701628393E-002
  Solving linear dielectric/ionic screening model
        iter                  A_solv                     rms
   LPB:       -0.409179885880170E+00   0.266061315894039E-01
   LPB:    0  -0.409179733597266E+00   0.254846567084870E-01   0.102377E-03   0.000000E+00   0.290588E+02   0.297495E-02
   LPB:    1  -0.409177861047253E+00   0.377700389957196E-02   0.953151E-02   0.000000E+00   0.629641E+02  -0.144313E-18
   LPB:    2  -0.409177479090960E+00   0.588158124728052E-03   0.173224E-01   0.112237E+00   0.146916E+03  -0.811662E-17
   LPB:    3  -0.409177420308774E+00   0.358493251369829E-03   0.254493E-01   0.104752E+00   0.333064E+03  -0.100120E-16
   LPB:    4  -0.409177396651943E+00   0.303242462942171E-03   0.286606E-01   0.357356E+00   0.357624E+03  -0.102435E-16
   LPB:    5  -0.409177383272853E+00   0.463472375242177E-03   0.320701E-01   0.505422E+00   0.320337E+03  -0.103461E-16
   LPB:    6  -0.409177373916192E+00   0.493714647094477E-03   0.301243E-01   0.744522E+00   0.113685E+03  -0.976651E-17
   LPB:    7  -0.409177365509748E+00   0.258467377007838E-03   0.304772E-01   0.888041E+00   0.231412E+03  -0.684573E-17
   LPB:    8  -0.409177357544911E+00   0.112814661796545E-03   0.382903E-01   0.754139E+00   0.463656E+03  -0.407230E-18
  Finished solving LPB equations
  A_corr:   -0.342606350528627     
 End minimization
 Ecorr=   1709.02114547225     
 A_corr= -0.342606350528627     
 Ecorr_band=  -1709.36375182278     
 End Solvation calculations
RMM:   3    -0.137406936841E+03    0.51941E-04   -0.94846E-05  9622   0.240E-02    0.201E-02
 Begin Solvation calculations
  rms_SCF =   1.653723243368543E-003 tol =   1.653723243368543E-004
 Begin minimization
 Creating dielectric and ionic cavities
  area:      126.801787815344     
  volume:    636.320201459918     
  Acav:     6.657093860305568E-002
  Solving linear dielectric/ionic screening model
        iter                  A_solv                     rms
   LPB:       -0.408969595117271E+00   0.406057487942569E-01
   LPB:    0  -0.408969044774752E+00   0.376278660679798E-01   0.194623E-03   0.000000E+00   0.290586E+02   0.565547E-02
   LPB:    1  -0.408963285718733E+00   0.818445213826618E-02   0.103715E-01   0.000000E+00   0.743080E+02   0.137852E-18
   LPB:    2  -0.408962326721579E+00   0.115613934110054E-02   0.139920E-01   0.123431E+00   0.261632E+03   0.770654E-18
   LPB:    3  -0.408962120679902E+00   0.828412439869523E-03   0.257375E-01   0.116802E+00   0.499627E+03   0.542512E-17
   LPB:    4  -0.408962057286762E+00   0.862893256286374E-03   0.264777E-01   0.299070E+00   0.224467E+03   0.625278E-17
   LPB:    5  -0.408962029125732E+00   0.741450182542506E-03   0.236008E-01   0.498380E+00   0.201947E+03   0.486934E-17
   LPB:    6  -0.408962011339929E+00   0.359771241164481E-03   0.272309E-01   0.547380E+00   0.132716E+03   0.943946E-17
   LPB:    7  -0.408962000156908E+00   0.181186805555547E-03   0.312810E-01   0.547352E+00   0.590605E+03   0.112354E-16
   LPB:    8  -0.408961992544637E+00   0.898070539844313E-04   0.354190E-01   0.601174E+00   0.416312E+03   0.106757E-16
  Finished solving LPB equations
  A_corr:   -0.342391053941582     
 End minimization
 Ecorr=   1709.03604244489     
 A_corr= -0.342391053941582     
 Ecorr_band=  -1709.37843349883     
 End Solvation calculations
RMM:   4    -0.137406936189E+03    0.65222E-06   -0.20010E-05  7093   0.205E-02
 Begin Solvation calculations
  rms_SCF =   1.653723243368543E-003 tol =   1.653723243368543E-004
 Begin minimization
 Creating dielectric and ionic cavities
  area:      126.801791800007     
  volume:    636.320725672508     
  Acav:     6.657094069500376E-002
  Solving linear dielectric/ionic screening model
        iter                  A_solv                     rms
   LPB:       -0.408819260774563E+00   0.370748085159392E-01
   LPB:    0  -0.408818769891708E+00   0.340413150723441E-01   0.183809E-03   0.000000E+00   0.290586E+02   0.534123E-02
   LPB:    1  -0.408814669022580E+00   0.704083052627106E-02   0.102806E-01   0.000000E+00   0.653125E+02  -0.122909E-19
   LPB:    2  -0.408813693118698E+00   0.868190695950331E-03   0.161578E-01   0.151415E+00   0.167065E+03  -0.371768E-17
   LPB:    3  -0.408813553632084E+00   0.701273802805878E-03   0.257971E-01   0.895236E-01   0.411113E+03   0.436817E-17
   LPB:    4  -0.408813512669317E+00   0.717245115763851E-03   0.243678E-01   0.310892E+00   0.176241E+03   0.569368E-17
   LPB:    5  -0.408813492347713E+00   0.604810866794852E-03   0.247813E-01   0.487823E+00   0.203218E+03   0.560891E-17
   LPB:    6  -0.408813479300401E+00   0.354632744660735E-03   0.282499E-01   0.563210E+00   0.116702E+03   0.361207E-17
   LPB:    7  -0.408813469803183E+00   0.178695970528319E-03   0.326658E-01   0.629504E+00   0.307299E+03   0.154889E-17
   LPB:    8  -0.408813462838431E+00   0.797375550197159E-04   0.374758E-01   0.639221E+00   0.298836E+03  -0.434871E-18
  Finished solving LPB equations
  A_corr:   -0.342242522143427     
 End minimization
 Ecorr=   1709.06656800521     
 A_corr= -0.342242522143427     
 Ecorr_band=  -1709.40881052735     
 End Solvation calculations
  71 F= -.13740694E+03 E0= -.13740502E+03  d E =-.101294E-02
quench:  g(F)=  0.000E+00 g(S)=  0.000E+00 dE (1.order)= 0.000E+00
 bond charge predicted
       N       E                     dE             d eps       ncg     rms          rms(c)
 Begin Solvation calculations
  rms_SCF =   1.653723243368543E-003 tol =   1.653723243368543E-004
 Begin minimization
 Creating dielectric and ionic cavities
  area:      126.810402910579     
  volume:    636.323677506022     
  Acav:     6.657546152805420E-002
  Solving linear dielectric/ionic screening model
        iter                  A_solv                     rms
   LPB:       -0.408926995627488E+00   0.109482326968316E-02
   LPB:    0  -0.408926995625965E+00   0.109680195402327E-02   0.323762E-06   0.000000E+00   0.290585E+02   0.940801E-05
   LPB:    1  -0.408826350798861E+00   0.415095608223795E-03   0.160557E-01   0.000000E+00   0.635766E+06  -0.722976E-21
   LPB:    2  -0.408815126891107E+00   0.301145455445632E-03   0.267846E-01   0.668493E-01   0.154747E+06  -0.490210E-19
   LPB:    3  -0.408811713349285E+00   0.446891117407168E-03   0.318996E-01   0.255365E+00   0.584614E+05  -0.322256E-18
   LPB:    4  -0.408810290276433E+00   0.949453738896566E-03   0.351060E-01   0.378813E+00   0.114540E+05  -0.345941E-18
   LPB:    5  -0.408809604947803E+00   0.213324047844356E-02   0.360807E-01   0.468575E+00   0.116883E+04   0.322376E-17
   LPB:    6  -0.408809286779321E+00   0.334101837755053E-02   0.287340E-01   0.582956E+00   0.200659E+03   0.148163E-16
   LPB:    7  -0.408809091528297E+00   0.193522645798171E-02   0.217585E-01   0.810408E+00   0.164715E+03   0.700632E-17
   LPB:    8  -0.408808948221651E+00   0.212837619461233E-02   0.285755E-01   0.558866E+00   0.329082E+03   0.202428E-17
   LPB:    9  -0.408808871364649E+00   0.157637391071841E-02   0.207561E-01   0.738357E+00   0.140569E+03  -0.822547E-18
   LPB:   10  -0.408808799021722E+00   0.432768168907717E-03   0.288256E-01   0.677766E+00   0.373469E+03  -0.296273E-17
   LPB:   11  -0.408808749731628E+00   0.135365878367193E-03   0.377537E-01   0.520215E+00   0.305856E+04  -0.942278E-17
  Finished solving LPB equations
  A_corr:   -0.342233288203574     
 End minimization
 Ecorr=   1709.06262059005     
 A_corr= -0.342233288203574     
 Ecorr_band=  -1709.40485387826     
 End Solvation calculations
DAV:   1    -0.137407239694E+03   -0.30285E-03   -0.99311E-03 14310   0.214E-01    0.331E-02
 Begin Solvation calculations
  rms_SCF =   1.653723243368543E-003 tol =   1.653723243368543E-004
 Begin minimization
 Creating dielectric and ionic cavities
  area:      126.801086392265     
  volume:    636.306344238310     
  Acav:     6.657057035593909E-002
  Solving linear dielectric/ionic screening model
        iter                  A_solv                     rms
   LPB:       -0.408920708279473E+00   0.786763690895281E-01
   LPB:    0  -0.408920031652929E+00   0.771594557229340E-01  -0.215798E-03   0.000000E+00   0.290593E+02  -0.627093E-02
   LPB:    1  -0.408904573529976E+00   0.774462211018373E-02   0.880115E-02   0.000000E+00   0.668887E+02  -0.605054E-19
   LPB:    2  -0.408902486801486E+00   0.171375383293732E-02   0.180723E-01   0.657407E-01   0.158907E+03   0.149731E-17
   LPB:    3  -0.408902129697441E+00   0.883729015038738E-03   0.237614E-01   0.130158E+00   0.388941E+03   0.584007E-17
   LPB:    4  -0.408901990038275E+00   0.110761926019155E-02   0.277389E-01   0.335009E+00   0.492903E+03   0.956703E-17
   LPB:    5  -0.408901927537070E+00   0.123028713451741E-02   0.267008E-01   0.464927E+00   0.131974E+03   0.106973E-16
   LPB:    6  -0.408901890437471E+00   0.653756634968759E-03   0.250724E-01   0.632136E+00   0.153397E+03   0.138054E-16
   LPB:    7  -0.408901864347595E+00   0.239394436040295E-03   0.313024E-01   0.563275E+00   0.381594E+03   0.107787E-16
   LPB:    8  -0.408901846493197E+00   0.132711127080587E-03   0.358250E-01   0.597951E+00   0.108969E+04   0.836029E-17
  Finished solving LPB equations
  A_corr:   -0.342331276137258     
 End minimization
 Ecorr=   1709.09645611903     
 A_corr= -0.342331276137258     
 Ecorr_band=  -1709.43878739517     
 End Solvation calculations
RMM:   2    -0.137407356865E+03   -0.11717E-03   -0.95134E-04 16144   0.623E-02    0.502E-02
 Begin Solvation calculations
  rms_SCF =   1.653723243368543E-003 tol =   1.653723243368543E-004
 Begin minimization
 Creating dielectric and ionic cavities
  area:      126.802881815258     
  volume:    636.306082914154     
  Acav:     6.657151295301063E-002
  Solving linear dielectric/ionic screening model
        iter                  A_solv                     rms
   LPB:       -0.408982890263734E+00   0.105525546420106E+00
   LPB:    0  -0.408982889006466E+00   0.105524266049906E+00  -0.930222E-05   0.000000E+00   0.290593E+02  -0.270316E-03
   LPB:    1  -0.408956964844155E+00   0.101429746213738E-01   0.864924E-02   0.000000E+00   0.622403E+02   0.697926E-20
   LPB:    2  -0.408954704567474E+00   0.174814803580002E-02   0.155012E-01   0.486485E-01   0.121526E+03   0.314476E-19
   LPB:    3  -0.408954425179461E+00   0.682720034531360E-03   0.226281E-01   0.846765E-01   0.194056E+03   0.473230E-18
   LPB:    4  -0.408954348730022E+00   0.448819907167267E-03   0.275657E-01   0.224619E+00   0.296534E+03  -0.357004E-17
   LPB:    5  -0.408954316143025E+00   0.506701148901708E-03   0.278192E-01   0.422373E+00   0.313590E+03  -0.406583E-17
   LPB:    6  -0.408954300889584E+00   0.559896729232466E-03   0.270580E-01   0.481251E+00   0.141357E+03  -0.115672E-17
   LPB:    7  -0.408954291890343E+00   0.324078665425583E-03   0.249715E-01   0.639276E+00   0.150596E+03   0.170290E-17
   LPB:    8  -0.408954284813598E+00   0.117558314928859E-03   0.333808E-01   0.588270E+00   0.274912E+03   0.588133E-17
  Finished solving LPB equations
  A_corr:   -0.342382771860587     
 End minimization
 Ecorr=   1709.11868150555     
 A_corr= -0.342382771860587     
 Ecorr_band=  -1709.46106427741     
 End Solvation calculations
RMM:   3    -0.137407305193E+03    0.51672E-04   -0.54371E-05  8771   0.229E-02    0.256E-02
 Begin Solvation calculations
  rms_SCF =   1.653723243368543E-003 tol =   1.653723243368543E-004
 Begin minimization
 Creating dielectric and ionic cavities
  area:      126.801340540626     
  volume:    636.306649167439     
  Acav:     6.657070378382846E-002
  Solving linear dielectric/ionic screening model
        iter                  A_solv                     rms
   LPB:       -0.408959670707650E+00   0.362445647260892E-01
   LPB:    0  -0.408959668039857E+00   0.362117273372990E-01   0.135503E-04   0.000000E+00   0.290593E+02   0.393762E-03
   LPB:    1  -0.408956596810811E+00   0.325967378114717E-02   0.849995E-02   0.000000E+00   0.647667E+02  -0.164129E-19
   LPB:    2  -0.408956348823097E+00   0.759762449981462E-03   0.163943E-01   0.418640E-01   0.117309E+03  -0.119938E-17
   LPB:    3  -0.408956313916585E+00   0.406714485025578E-03   0.224935E-01   0.102592E+00   0.143557E+03  -0.865405E-18
   LPB:    4  -0.408956302467325E+00   0.355561725881456E-03   0.273796E-01   0.269464E+00   0.217348E+03   0.526989E-17
   LPB:    5  -0.408956297074882E+00   0.277267178160003E-03   0.241793E-01   0.533325E+00   0.194984E+03   0.880042E-17
   LPB:    6  -0.408956293866347E+00   0.161488456298981E-03   0.268823E-01   0.535177E+00   0.202593E+03   0.929151E-17
  Finished solving LPB equations
  A_corr:   -0.342385590082518     
 End minimization
 Ecorr=   1709.11666960210     
 A_corr= -0.342385590082518     
 Ecorr_band=  -1709.45905519218     
 End Solvation calculations
RMM:   4    -0.137407298013E+03    0.71799E-05   -0.16021E-05  7094   0.174E-02
 Begin Solvation calculations
  rms_SCF =   1.653723243368543E-003 tol =   1.653723243368543E-004
 Begin minimization
 Creating dielectric and ionic cavities
  area:      126.798133421123     
  volume:    636.300711503231     
  Acav:     6.656902004608972E-002
  Solving linear dielectric/ionic screening model
        iter                  A_solv                     rms
   LPB:       -0.409086776464014E+00   0.293664683474130E-01
   LPB:    0  -0.409086557211555E+00   0.282582011098747E-01  -0.122841E-03   0.000000E+00   0.290595E+02  -0.356970E-02
   LPB:    1  -0.409083082202212E+00   0.669041156954674E-02   0.109756E-01   0.000000E+00   0.721723E+02  -0.152241E-18
   LPB:    2  -0.409082458854112E+00   0.975773686246379E-03   0.137390E-01   0.143301E+00   0.342815E+03  -0.146388E-17
   LPB:    3  -0.409082301294350E+00   0.503510677586257E-03   0.258066E-01   0.134568E+00   0.699293E+03  -0.358201E-17
   LPB:    4  -0.409082249415698E+00   0.510219143192011E-03   0.287319E-01   0.295740E+00   0.531668E+03  -0.409358E-17
   LPB:    5  -0.409082226242884E+00   0.619123406425612E-03   0.265992E-01   0.482486E+00   0.303680E+03  -0.427667E-17
   LPB:    6  -0.409082212988885E+00   0.478549557034704E-03   0.256905E-01   0.592196E+00   0.132650E+03  -0.405104E-17
   LPB:    7  -0.409082204094759E+00   0.246183707432624E-03   0.288303E-01   0.597970E+00   0.221058E+03  -0.334741E-17
   LPB:    8  -0.409082197742996E+00   0.101274593508302E-03   0.342801E-01   0.600618E+00   0.415432E+03   0.202485E-17
  Finished solving LPB equations
  A_corr:   -0.342513177696907     
 End minimization
 Ecorr=   1709.14273958836     
 A_corr= -0.342513177696907     
 Ecorr_band=  -1709.48525276606     
 End Solvation calculations
  72 F= -.13740730E+03 E0= -.13740538E+03  d E =-.361824E-03
quench:  g(F)=  0.000E+00 g(S)=  0.000E+00 dE (1.order)= 0.000E+00
 reached required accuracy - stopping structural energy minimisation
