 vasp.5.4.4.18Apr17-6-g9f103f2a35 (build Feb 06 2024 13:54:16) complex          
  
 POSCAR found type information on POSCAR  Ru N  O 
 02/POSCAR found :  3 types and      40 ions
 scaLAPACK will be used

 ----------------------------------------------------------------------------- 
|                                                                             |
|  ADVICE TO THIS USER RUNNING 'VASP/VAMP'   (HEAR YOUR MASTER'S VOICE ...):  |
|                                                                             |
|      You enforced a specific xc-type in the INCAR file,                     |
|      a different type was found on the POTCAR file                          |
|          I HOPE YOU KNOW, WHAT YOU ARE  DOING                               |
|                                                                             |
 ----------------------------------------------------------------------------- 

 LDA part: xc-table for Pade appr. of Perdew
 POSCAR found type information on POSCAR  Ru N  O 
 00/POSCAR found :  3 types and      40 ions
 POSCAR found type information on POSCAR  Ru N  O 
 06/POSCAR found :  3 types and      40 ions
 Jacobian:    20.4921819155783     
 POSCAR, INCAR and KPOINTS ok, starting setup
 FFT: planning ...
 WAVECAR not read
 entering main loop
       N       E                     dE             d eps       ncg     rms          rms(c)
  Solvation turned off during non-self-consistent phase (first NELMDL steps)
DAV:   1     0.590932025935E+04    0.59093E+04   -0.33076E+05 18747   0.163E+03
DAV:   2    -0.812347929650E+02   -0.59906E+04   -0.57779E+04 16329   0.480E+02
DAV:   3    -0.328872970928E+03   -0.24764E+03   -0.23366E+03 20079   0.885E+01
DAV:   4    -0.339680018815E+03   -0.10807E+02   -0.10491E+02 19062   0.143E+01
DAV:   5    -0.340196298766E+03   -0.51628E+00   -0.50682E+00 22311   0.262E+00    0.649E+01
 Begin Solvation calculations
  rms_SCF =    6.46952369430862      tol =   0.646952369430862     
 Begin minimization
 Creating dielectric and ionic cavities
  area:      150.219301557560     
  volume:    750.561987014869     
  Acav:     7.886513331771924E-002
  Solving linear dielectric/ionic screening model
        iter                  A_solv                     rms
   LPB:       -0.723564856093115E+03   0.369196219123873E+03
   LPB:    0  -0.171857737981589E+01   0.410403741477186E+01  -0.710482E+01   0.000000E+00   0.286002E+02  -0.203199E+03
   LPB:    1  -0.458059982686109E+00   0.357451767250407E+01   0.143568E-01   0.000000E+00   0.648430E+03  -0.111546E-14
   LPB:    2  -0.278126310189691E+00   0.950266093510330E+00   0.187232E-01   0.109457E+00   0.491044E+02   0.133425E-13
   LPB:    3  -0.190309329266142E+00   0.429276141351111E+00   0.272988E-01   0.334735E+00   0.214519E+03   0.433027E-13
   LPB:    4  -0.150110382377534E+00   0.146117475395362E+00   0.339237E-01   0.368364E+00   0.884520E+02   0.521460E-13
  Finished solving LPB equations
  A_corr:   -7.124524905981458E-002
 End minimization
 Ecorr=   3661.15817278000     
 A_corr= -7.124524905981458E-002
 Ecorr_band=  -3661.22941802906     
 End Solvation calculations
RMM:   6    -0.324601151105E+03    0.15595E+02   -0.90517E+01 15297   0.186E+01    0.296E+01
 Begin Solvation calculations
  rms_SCF =    6.46952369430862      tol =   0.646952369430862     
 Begin minimization
 Creating dielectric and ionic cavities
  area:      150.098199002543     
  volume:    736.350008305764     
  Acav:     7.880155447633512E-002
  Solving linear dielectric/ionic screening model
        iter                  A_solv                     rms
   LPB:       -0.589311849461250E+01   0.440502174911097E+02
   LPB:    0  -0.234996020861856E+01   0.221462543289423E+02  -0.492068E+00   0.000000E+00   0.292665E+02  -0.144011E+02
   LPB:    1  -0.400660237901394E+00   0.253115966125731E+01   0.100062E-01   0.000000E+00   0.546572E+02  -0.624096E-15
   LPB:    2  -0.301542313979867E+00   0.105770694910993E+01   0.137911E-01   0.368932E-01   0.836614E+02   0.459951E-14
   LPB:    3  -0.261399318617268E+00   0.117827723680339E+01   0.258602E-01   0.215985E+00   0.890135E+02  -0.449261E-15
   LPB:    4  -0.221525851534973E+00   0.420032767260738E+00   0.293467E-01   0.875280E+00   0.413943E+02  -0.212668E-14
  Finished solving LPB equations
  A_corr:   -0.142724297058638     
 End minimization
 Ecorr=   3691.82265665503     
 A_corr= -0.142724297058638     
 Ecorr_band=  -3691.96538095209     
 End Solvation calculations
RMM:   7    -0.419658725838E+03   -0.95058E+02   -0.16420E+02 15709   0.183E+01    0.885E+01
 Begin Solvation calculations
  rms_SCF =    6.46952369430862      tol =   0.646952369430862     
 Begin minimization
 Creating dielectric and ionic cavities
  area:      142.830794387073     
  volume:    752.656967887509     
  Acav:     7.498616705321323E-002
  Solving linear dielectric/ionic screening model
        iter                  A_solv                     rms
   LPB:       -0.104022880697317E+02   0.567023150270779E+02
   LPB:    0  -0.620210889645108E+01   0.437021380882512E+02   0.542889E+00   0.000000E+00   0.285020E+02   0.154734E+02
   LPB:    1  -0.649966265747302E+00   0.383247823108748E+01   0.917193E-02   0.000000E+00   0.664675E+02   0.488323E-15
   LPB:    2  -0.305817540290654E+00   0.154455636417083E+01   0.155207E-01   0.366298E-01   0.125821E+03  -0.127011E-13
   LPB:    3  -0.246247203052869E+00   0.707021155203814E+00   0.203204E-01   0.132210E+00   0.766842E+02  -0.194345E-13
   LPB:    4  -0.226488490247949E+00   0.437146537014419E+00   0.220236E-01   0.306036E+00   0.264517E+03  -0.254684E-13
  Finished solving LPB equations
  A_corr:   -0.151502323194735     
 End minimization
 Ecorr=   3490.57796887629     
 A_corr= -0.151502323194735     
 Ecorr_band=  -3490.72947119948     
 End Solvation calculations
RMM:   8    -0.332677370619E+03    0.86981E+02   -0.45338E+01 15297   0.990E+00    0.343E+01
 Begin Solvation calculations
  rms_SCF =    6.46952369430862      tol =   0.646952369430862     
 Begin minimization
 Creating dielectric and ionic cavities
  area:      144.112830091820     
  volume:    754.141405528433     
  Acav:     7.565923579820528E-002
  Solving linear dielectric/ionic screening model
        iter                  A_solv                     rms
   LPB:       -0.883317336058578E+01   0.534147809089415E+02
   LPB:    0  -0.869031350537218E+01   0.529890210742958E+02   0.100245E+00   0.000000E+00   0.284324E+02   0.285021E+01
   LPB:    1  -0.940883641054490E+00   0.499743217941501E+01   0.918037E-02   0.000000E+00   0.654138E+02   0.137503E-16
   LPB:    2  -0.322333342766825E+00   0.844476335070968E+00   0.165688E-01   0.442257E-01   0.117125E+03  -0.803809E-15
   LPB:    3  -0.233560857641251E+00   0.288932902379358E+00   0.218994E-01   0.108583E+00   0.250099E+03   0.898828E-15
   LPB:    4  -0.213193442822279E+00   0.216694322203836E+00   0.267277E-01   0.187987E+00   0.333187E+03   0.158482E-14
  Finished solving LPB equations
  A_corr:   -0.137534207024074     
 End minimization
 Ecorr=   3459.49224729364     
 A_corr= -0.137534207024074     
 Ecorr_band=  -3459.62978150066     
 End Solvation calculations
RMM:   9    -0.323616984105E+03    0.90604E+01   -0.11464E+01 15734   0.401E+00    0.233E+01
 Begin Solvation calculations
  rms_SCF =    6.46952369430862      tol =   0.646952369430862     
 Begin minimization
 Creating dielectric and ionic cavities
  area:      135.841895355832     
  volume:    751.148721624035     
  Acav:     7.131699506181159E-002
  Solving linear dielectric/ionic screening model
        iter                  A_solv                     rms
   LPB:       -0.136230086752180E+01   0.193669335431260E+02
   LPB:    0  -0.132272958170596E+01   0.192718894479494E+02   0.526295E-01   0.000000E+00   0.285727E+02   0.150377E+01
   LPB:    1  -0.292098189577751E+00   0.179956412982266E+01   0.911925E-02   0.000000E+00   0.666416E+02   0.824345E-16
   LPB:    2  -0.207972589393605E+00   0.347571074154599E+00   0.170375E-01   0.436896E-01   0.115773E+03   0.277423E-14
   LPB:    3  -0.195720724450227E+00   0.115602814711648E+00   0.212880E-01   0.116559E+00   0.222425E+03   0.163402E-14
   LPB:    4  -0.191472981091118E+00   0.973416108864049E-01   0.340411E-01   0.216813E+00   0.199352E+03   0.263088E-14
  Finished solving LPB equations
  A_corr:   -0.120155986029307     
 End minimization
 Ecorr=   3410.53585065472     
 A_corr= -0.120155986029307     
 Ecorr_band=  -3410.65600664075     
 End Solvation calculations
RMM:  10    -0.316761218282E+03    0.68558E+01   -0.52731E+00 15670   0.309E+00    0.801E+00
 Begin Solvation calculations
  rms_SCF =    3.78983049118439      tol =   0.378983049118439     
 Begin minimization
 Creating dielectric and ionic cavities
  area:      135.184008818551     
  volume:    748.144950312972     
  Acav:     7.097160462973905E-002
  Solving linear dielectric/ionic screening model
        iter                  A_solv                     rms
   LPB:       -0.207474504401402E+00   0.116833139766272E+01
   LPB:    0  -0.206795080682824E+00   0.127571718741443E+01   0.687927E-02   0.000000E+00   0.287135E+02   0.197528E+00
   LPB:    1  -0.198627378419822E+00   0.239960797852350E+00   0.106958E-01   0.000000E+00   0.752747E+02   0.755043E-17
   LPB:    2  -0.196227995085198E+00   0.197919199393736E+00   0.262615E-01   0.119645E+00   0.157623E+03   0.317281E-15
   LPB:    3  -0.191910152043209E+00   0.309452835450635E+00   0.461506E-01   0.102402E+01   0.162668E+03   0.334084E-15
   LPB:    4  -0.188269745384630E+00   0.185956956498794E+00   0.296768E-01   0.131112E+01   0.359633E+02   0.490757E-15
  Finished solving LPB equations
  A_corr:   -0.117298140754890     
 End minimization
 Ecorr=   3384.06301114827     
 A_corr= -0.117298140754890     
 Ecorr_band=  -3384.18030928902     
 End Solvation calculations
RMM:  11    -0.316181082036E+03    0.58014E+00   -0.15212E+00 15420   0.186E+00    0.487E+00
 Begin Solvation calculations
  rms_SCF =    1.63541604002762      tol =   0.163541604002762     
 Begin minimization
 Creating dielectric and ionic cavities
  area:      135.254494001171     
  volume:    741.393663805961     
  Acav:     7.100860935061477E-002
  Solving linear dielectric/ionic screening model
        iter                  A_solv                     rms
   LPB:       -0.214467677594254E+00   0.165284281658499E+01
   LPB:    0  -0.213573546390282E+00   0.129113056096356E+01  -0.784859E-02   0.000000E+00   0.290300E+02  -0.227845E+00
   LPB:    1  -0.198201776070537E+00   0.250806691676207E+00   0.121003E-01   0.000000E+00   0.773775E+02   0.228788E-16
   LPB:    2  -0.195822330915761E+00   0.111960677980820E+00   0.205536E-01   0.911298E-01   0.271831E+03  -0.103746E-14
   LPB:    3  -0.194291446708546E+00   0.218844711622858E+00   0.377631E-01   0.350176E+00   0.151015E+03  -0.437267E-15
   LPB:    4  -0.192703203553273E+00   0.263680212477241E+00   0.372266E-01   0.105242E+01   0.101976E+03  -0.693767E-16
   LPB:    5  -0.191318997306228E+00   0.143725531946509E+00   0.237489E-01   0.136613E+01   0.126228E+03  -0.804210E-15
  Finished solving LPB equations
  A_corr:   -0.120310387955613     
 End minimization
 Ecorr=   3371.11230250899     
 A_corr= -0.120310387955613     
 Ecorr_band=  -3371.23261289694     
 End Solvation calculations
RMM:  12    -0.315981620121E+03    0.19946E+00   -0.31079E-01 15417   0.829E-01    0.293E+00
 Begin Solvation calculations
  rms_SCF =   0.736349374904503      tol =   7.363493749045032E-002
 Begin minimization
 Creating dielectric and ionic cavities
  area:      135.477719975039     
  volume:    738.296452304885     
  Acav:     7.112580298689529E-002
  Solving linear dielectric/ionic screening model
        iter                  A_solv                     rms
   LPB:       -0.202187960617164E+00   0.472465442581323E+00
   LPB:    0  -0.199932663833431E+00   0.587915958533556E+00   0.124340E-01   0.000000E+00   0.291752E+02   0.362764E+00
   LPB:    1  -0.195657206301140E+00   0.249798878812763E+00   0.124101E-01   0.000000E+00   0.116134E+03   0.187876E-16
   LPB:    2  -0.194682775771896E+00   0.109759228130723E+00   0.191155E-01   0.147965E+00   0.124589E+03  -0.350573E-15
   LPB:    3  -0.194162718580956E+00   0.146993370443327E+00   0.296559E-01   0.344013E+00   0.264065E+03  -0.523018E-15
   LPB:    4  -0.193605494802360E+00   0.829230463633840E-01   0.274149E-01   0.115905E+01   0.756754E+02  -0.610201E-15
   LPB:    5  -0.192983154785135E+00   0.705647405268434E-01   0.418330E-01   0.731922E+00   0.130044E+03  -0.996717E-16
  Finished solving LPB equations
  A_corr:   -0.121857351798239     
 End minimization
 Ecorr=   3355.94248505081     
 A_corr= -0.121857351798239     
 Ecorr_band=  -3356.06434240260     
 End Solvation calculations
RMM:  13    -0.315961054702E+03    0.20565E-01   -0.17830E-01 15426   0.661E-01    0.245E+00
 Begin Solvation calculations
  rms_SCF =   0.692969097958520      tol =   6.929690979585203E-002
 Begin minimization
 Creating dielectric and ionic cavities
  area:      136.527004396925     
  volume:    729.860280137166     
  Acav:     7.167667730838573E-002
  Solving linear dielectric/ionic screening model
        iter                  A_solv                     rms
   LPB:       -0.251098705924553E+00   0.116883782715694E+01
   LPB:    0  -0.235726738531961E+00   0.125181681049686E+01   0.322440E-01   0.000000E+00   0.295707E+02   0.953478E+00
   LPB:    1  -0.210268313561804E+00   0.521700552858866E+00   0.127274E-01   0.000000E+00   0.148788E+03  -0.561245E-16
   LPB:    2  -0.205591003158296E+00   0.138378798730163E+00   0.190738E-01   0.122593E+00   0.964233E+02   0.450995E-14
   LPB:    3  -0.203862939455798E+00   0.136227754003331E+00   0.287258E-01   0.245318E+00   0.460907E+03   0.493362E-14
   LPB:    4  -0.202972522055844E+00   0.196205426458143E+00   0.245456E-01   0.603023E+00   0.198410E+03   0.427502E-14
   LPB:    5  -0.202200408078422E+00   0.130453977165497E+00   0.246481E-01   0.863531E+00   0.197623E+03   0.392844E-14
   LPB:    6  -0.201397401015546E+00   0.522450900281337E-01   0.378800E-01   0.676723E+00   0.135593E+03   0.378977E-14
  Finished solving LPB equations
  A_corr:   -0.129720723707161     
 End minimization
 Ecorr=   3333.00129625044     
 A_corr= -0.129720723707161     
 Ecorr_band=  -3333.13101697415     
 End Solvation calculations
RMM:  14    -0.315946827178E+03    0.14228E-01   -0.10873E-01 15449   0.557E-01    0.162E+00
 Begin Solvation calculations
  rms_SCF =   0.692969097958520      tol =   6.929690979585203E-002
 Begin minimization
 Creating dielectric and ionic cavities
  area:      137.022985857054     
  volume:    727.201896873093     
  Acav:     7.193706757495340E-002
  Solving linear dielectric/ionic screening model
        iter                  A_solv                     rms
   LPB:       -0.214268592694567E+00   0.628725747522114E+00
   LPB:    0  -0.210441692093042E+00   0.439805058289276E+00   0.160544E-01   0.000000E+00   0.296954E+02   0.476741E+00
   LPB:    1  -0.206659586355750E+00   0.204949385482630E+00   0.130439E-01   0.000000E+00   0.178175E+03   0.443682E-16
   LPB:    2  -0.205922466186411E+00   0.874799176623691E-01   0.192514E-01   0.132053E+00   0.106670E+03   0.862569E-15
   LPB:    3  -0.205597100773918E+00   0.827287563850641E-01   0.265987E-01   0.319473E+00   0.335785E+03   0.101086E-14
   LPB:    4  -0.205207153434093E+00   0.142970627663567E+00   0.361627E-01   0.881524E+00   0.107915E+03   0.934568E-15
   LPB:    5  -0.204648865087107E+00   0.875148416302589E-01   0.311657E-01   0.166126E+01   0.202804E+03   0.588233E-15
   LPB:    6  -0.204209589553920E+00   0.295550718153882E-01   0.339535E-01   0.722221E+00   0.887789E+02   0.537924E-15
  Finished solving LPB equations
  A_corr:   -0.132272521978967     
 End minimization
 Ecorr=   3318.59823999824     
 A_corr= -0.132272521978967     
 Ecorr_band=  -3318.73051252022     
 End Solvation calculations
RMM:  15    -0.315927806085E+03    0.19021E-01   -0.68694E-02 15441   0.415E-01    0.121E+00
 Begin Solvation calculations
  rms_SCF =   0.692969097958520      tol =   6.929690979585203E-002
 Begin minimization
 Creating dielectric and ionic cavities
  area:      137.569831082168     
  volume:    724.552490226513     
  Acav:     7.222416131813834E-002
  Solving linear dielectric/ionic screening model
        iter                  A_solv                     rms
   LPB:       -0.220524385386626E+00   0.801029140282635E+00
   LPB:    0  -0.215236037139199E+00   0.571686427218971E+00   0.188332E-01   0.000000E+00   0.298196E+02   0.561598E+00
   LPB:    1  -0.209718106593360E+00   0.219799750272885E+00   0.131889E-01   0.000000E+00   0.162743E+03  -0.456940E-16
   LPB:    2  -0.208851885033451E+00   0.613343143094500E-01   0.176486E-01   0.117314E+00   0.987746E+02  -0.233218E-14
   LPB:    3  -0.208601668791806E+00   0.348258875411563E-01   0.257338E-01   0.198104E+00   0.249615E+03  -0.457385E-14
   LPB:    4  -0.208445575061052E+00   0.468511480577239E-01   0.364104E-01   0.440908E+00   0.343543E+03  -0.608020E-14
  Finished solving LPB equations
  A_corr:   -0.136221413742913     
 End minimization
 Ecorr=   3307.20891178776     
 A_corr= -0.136221413742913     
 Ecorr_band=  -3307.34513320150     
 End Solvation calculations
RMM:  16    -0.315917194155E+03    0.10612E-01   -0.24358E-02 15631   0.236E-01    0.824E-01
 Begin Solvation calculations
  rms_SCF =   0.692969097958520      tol =   6.929690979585203E-002
 Begin minimization
 Creating dielectric and ionic cavities
  area:      137.760006440969     
  volume:    723.621973486404     
  Acav:     7.232400338150861E-002
  Solving linear dielectric/ionic screening model
        iter                  A_solv                     rms
   LPB:       -0.210927616415242E+00   0.373509072180322E+00
   LPB:    0  -0.210489088912981E+00   0.351301936004870E+00   0.541933E-02   0.000000E+00   0.298632E+02   0.161838E+00
   LPB:    1  -0.209306955495227E+00   0.962338373478069E-01   0.128887E-01   0.000000E+00   0.109837E+03  -0.379347E-17
   LPB:    2  -0.209133105303429E+00   0.447497493746132E-01   0.154945E-01   0.122332E+00   0.154546E+03  -0.219664E-17
   LPB:    3  -0.209034496106194E+00   0.713205047924360E-01   0.317050E-01   0.277200E+00   0.100388E+03  -0.181334E-15
   LPB:    4  -0.208903138136695E+00   0.542513871205328E-01   0.323237E-01   0.130661E+01   0.151330E+03  -0.423262E-15
  Finished solving LPB equations
  A_corr:   -0.136579134755187     
 End minimization
 Ecorr=   3303.54057570804     
 A_corr= -0.136579134755187     
 Ecorr_band=  -3303.67715484279     
 End Solvation calculations
RMM:  17    -0.315913004016E+03    0.41901E-02   -0.86789E-03 15740   0.135E-01    0.603E-01
 Begin Solvation calculations
  rms_SCF =   0.692969097958520      tol =   6.929690979585203E-002
 Begin minimization
 Creating dielectric and ionic cavities
  area:      138.138687547414     
  volume:    721.921369650681     
  Acav:     7.252281096239237E-002
  Solving linear dielectric/ionic screening model
        iter                  A_solv                     rms
   LPB:       -0.216845948962033E+00   0.755510680539167E+00
   LPB:    0  -0.215361304724072E+00   0.659597949120235E+00   0.995816E-02   0.000000E+00   0.299429E+02   0.298176E+00
   LPB:    1  -0.210593457411779E+00   0.173447128765315E+00   0.129744E-01   0.000000E+00   0.129143E+03   0.664378E-17
   LPB:    2  -0.210091778155238E+00   0.832671024004020E-01   0.142733E-01   0.956463E-01   0.137489E+03   0.119182E-15
   LPB:    3  -0.209922569478891E+00   0.664573368096521E-01   0.222430E-01   0.216434E+00   0.103948E+03   0.441964E-15
   LPB:    4  -0.209798456010392E+00   0.591559476429812E-01   0.273154E-01   0.597285E+00   0.220955E+03   0.382553E-15
  Finished solving LPB equations
  A_corr:   -0.137275645048000     
 End minimization
 Ecorr=   3298.68418949884     
 A_corr= -0.137275645048000     
 Ecorr_band=  -3298.82146514389     
 End Solvation calculations
RMM:  18    -0.315911300294E+03    0.17037E-02   -0.35977E-03 13812   0.675E-02    0.538E-01
 Begin Solvation calculations
  rms_SCF =   0.692969097958520      tol =   6.929690979585203E-002
 Begin minimization
 Creating dielectric and ionic cavities
  area:      138.347770398600     
  volume:    721.046168022767     
  Acav:     7.263257945926485E-002
  Solving linear dielectric/ionic screening model
        iter                  A_solv                     rms
   LPB:       -0.212938527226185E+00   0.587029840799093E+00
   LPB:    0  -0.212623504358649E+00   0.554818447660423E+00   0.458397E-02   0.000000E+00   0.299840E+02   0.137445E+00
   LPB:    1  -0.210247863205888E+00   0.132131226936062E+00   0.126240E-01   0.000000E+00   0.968540E+02   0.109849E-16
   LPB:    2  -0.209972510241891E+00   0.623586470875322E-01   0.137538E-01   0.106386E+00   0.165179E+03  -0.611362E-16
   LPB:    3  -0.209836904903448E+00   0.547669727148575E-01   0.275392E-01   0.245956E+00   0.952204E+02  -0.571006E-16
   LPB:    4  -0.209698470772719E+00   0.582581229808066E-01   0.339073E-01   0.829134E+00   0.204763E+03   0.978268E-17
  Finished solving LPB equations
  A_corr:   -0.137065891313455     
 End minimization
 Ecorr=   3297.00617244882     
 A_corr= -0.137065891313455     
 Ecorr_band=  -3297.14323834013     
 End Solvation calculations
RMM:  19    -0.315910116931E+03    0.11834E-02   -0.17124E-03 13272   0.574E-02    0.490E-01
 Begin Solvation calculations
  rms_SCF =   0.692969097958520      tol =   6.929690979585203E-002
 Begin minimization
 Creating dielectric and ionic cavities
  area:      138.719296282981     
  volume:    719.636046514247     
  Acav:     7.282763054856503E-002
  Solving linear dielectric/ionic screening model
        iter                  A_solv                     rms
   LPB:       -0.221555071228282E+00   0.118884428479336E+01
   LPB:    0  -0.220779175808210E+00   0.115583586541285E+01   0.718611E-02   0.000000E+00   0.300501E+02   0.215943E+00
   LPB:    1  -0.210977879088038E+00   0.262167072476041E+00   0.125466E-01   0.000000E+00   0.932113E+02   0.114995E-16
   LPB:    2  -0.209965032910713E+00   0.110814980685615E+00   0.130133E-01   0.996318E-01   0.168140E+03   0.124326E-15
   LPB:    3  -0.209677431617371E+00   0.613196245760745E-01   0.208819E-01   0.176956E+00   0.108448E+03  -0.966976E-16
   LPB:    4  -0.209505319148296E+00   0.679541506554666E-01   0.279418E-01   0.447236E+00   0.250028E+03  -0.122036E-15
  Finished solving LPB equations
  A_corr:   -0.136677688599731     
 End minimization
 Ecorr=   3294.93594749496     
 A_corr= -0.136677688599731     
 Ecorr_band=  -3295.07262518356     
 End Solvation calculations
RMM:  20    -0.315908326978E+03    0.17900E-02   -0.16594E-03 12985   0.516E-02    0.396E-01
 Begin Solvation calculations
  rms_SCF =   0.692969097958520      tol =   6.929690979585203E-002
 Begin minimization
 Creating dielectric and ionic cavities
  area:      138.949173330853     
  volume:    718.846572548941     
  Acav:     7.294831599869761E-002
  Solving linear dielectric/ionic screening model
        iter                  A_solv                     rms
   LPB:       -0.215301849077948E+00   0.846163723472074E+00
   LPB:    0  -0.214963123538330E+00   0.815165370597056E+00   0.474514E-02   0.000000E+00   0.300871E+02   0.142767E+00
   LPB:    1  -0.210257657589084E+00   0.180786066185679E+00   0.126117E-01   0.000000E+00   0.888725E+02   0.599582E-17
   LPB:    2  -0.209763267510417E+00   0.840881500660733E-01   0.132346E-01   0.100122E+00   0.170073E+03   0.442605E-16
   LPB:    3  -0.209552516625907E+00   0.560723354737572E-01   0.252204E-01   0.223696E+00   0.949723E+02  -0.328444E-15
   LPB:    4  -0.209372159994200E+00   0.665204979147477E-01   0.327947E-01   0.658129E+00   0.229351E+03  -0.560217E-15
  Finished solving LPB equations
  A_corr:   -0.136423843995503     
 End minimization
 Ecorr=   3294.16123092831     
 A_corr= -0.136423843995503     
 Ecorr_band=  -3294.29765477231     
 End Solvation calculations
RMM:  21    -0.315907540406E+03    0.78657E-03   -0.11932E-03 13025   0.451E-02    0.349E-01
 Begin Solvation calculations
  rms_SCF =   0.692969097958520      tol =   6.929690979585203E-002
 Begin minimization
 Creating dielectric and ionic cavities
  area:      139.300658118043     
  volume:    717.741325449078     
  Acav:     7.313284551197266E-002
  Solving linear dielectric/ionic screening model
        iter                  A_solv                     rms
   LPB:       -0.226673032415936E+00   0.147148222247858E+01
   LPB:    0  -0.225834437742829E+00   0.143358685616751E+01   0.745980E-02   0.000000E+00   0.301389E+02   0.224830E+00
   LPB:    1  -0.211769760922454E+00   0.306342229291670E+00   0.125187E-01   0.000000E+00   0.872602E+02   0.115124E-16
   LPB:    2  -0.210402936619377E+00   0.130592608387130E+00   0.126928E-01   0.958484E-01   0.181129E+03   0.269726E-16
   LPB:    3  -0.210014605695106E+00   0.634122801380391E-01   0.208643E-01   0.172840E+00   0.106737E+03   0.127769E-15
   LPB:    4  -0.209781387365714E+00   0.798804812429341E-01   0.292465E-01   0.428441E+00   0.252451E+03   0.265604E-15
   LPB:    5  -0.209597464588031E+00   0.555082301370892E-01   0.286089E-01   0.806207E+00   0.552844E+02   0.244924E-15
  Finished solving LPB equations
  A_corr:   -0.136464619076058     
 End minimization
 Ecorr=   3294.13377378521     
 A_corr= -0.136464619076058     
 Ecorr_band=  -3294.27023840428     
 End Solvation calculations
RMM:  22    -0.315907270985E+03    0.26942E-03   -0.10240E-03 12246   0.383E-02    0.307E-01
 Begin Solvation calculations
  rms_SCF =   0.689938684850233      tol =   6.899386848502331E-002
 Begin minimization
 Creating dielectric and ionic cavities
  area:      139.369493118096     
  volume:    717.608862675450     
  Acav:     7.316898388700047E-002
  Solving linear dielectric/ionic screening model
        iter                  A_solv                     rms
   LPB:       -0.211216266596676E+00   0.497619634955039E+00
   LPB:    0  -0.211185601700558E+00   0.501749787786459E+00   0.142635E-02   0.000000E+00   0.301451E+02   0.429976E-01
   LPB:    1  -0.209700937236008E+00   0.102246249364587E+00   0.123317E-01   0.000000E+00   0.771613E+02  -0.336189E-19
   LPB:    2  -0.209539405290664E+00   0.390034242173994E-01   0.128603E-01   0.104328E+00   0.207647E+03  -0.336211E-16
   LPB:    3  -0.209477125080896E+00   0.378216116439130E-01   0.277840E-01   0.178463E+00   0.103568E+03   0.129615E-15
   LPB:    4  -0.209348876074677E+00   0.716040469591148E-01   0.531749E-01   0.107595E+01   0.112186E+03   0.234433E-15
   LPB:    5  -0.209212943166746E+00   0.363591984199193E-01   0.283117E-01   0.199072E+01   0.473307E+02   0.453074E-15
  Finished solving LPB equations
  A_corr:   -0.136043959279746     
 End minimization
 Ecorr=   3294.39583970217     
 A_corr= -0.136043959279746     
 Ecorr_band=  -3294.53188366145     
 End Solvation calculations
RMM:  23    -0.315908416703E+03   -0.11457E-02   -0.49762E-04 10636   0.280E-02    0.407E-01
 Begin Solvation calculations
  rms_SCF =   0.689938684850233      tol =   6.899386848502331E-002
 Begin minimization
 Creating dielectric and ionic cavities
  area:      139.476258872734     
  volume:    717.460127694813     
  Acav:     7.322503590818527E-002
  Solving linear dielectric/ionic screening model
        iter                  A_solv                     rms
   LPB:       -0.217167734228743E+00   0.121830394257087E+01
   LPB:    0  -0.217108282819331E+00   0.121837387926663E+01   0.198581E-02   0.000000E+00   0.301521E+02   0.598763E-01
   LPB:    1  -0.210036388208775E+00   0.223893324642932E+00   0.116940E-01   0.000000E+00   0.696746E+02   0.561656E-17
   LPB:    2  -0.209301862717008E+00   0.657744054777089E-01   0.120439E-01   0.100848E+00   0.234687E+03   0.363982E-16
   LPB:    3  -0.209186206408566E+00   0.221410135007019E-01   0.185737E-01   0.102101E+00   0.148425E+03   0.275316E-15
   LPB:    4  -0.209148169854096E+00   0.294546317784997E-01   0.250667E-01   0.243687E+00   0.253628E+03   0.278354E-15
  Finished solving LPB equations
  A_corr:   -0.135923133945910     
 End minimization
 Ecorr=   3294.01461306211     
 A_corr= -0.135923133945910     
 Ecorr_band=  -3294.15053619606     
 End Solvation calculations
RMM:  24    -0.315906792307E+03    0.16244E-02   -0.54828E-04 11233   0.249E-02    0.171E-01
 Begin Solvation calculations
  rms_SCF =   0.383008377517784      tol =   3.830083775177837E-002
 Begin minimization
 Creating dielectric and ionic cavities
  area:      139.525640189498     
  volume:    717.460770677737     
  Acav:     7.325096109948664E-002
  Solving linear dielectric/ionic screening model
        iter                  A_solv                     rms
   LPB:       -0.212782263524338E+00   0.837387228588851E+00
   LPB:    0  -0.212775344891896E+00   0.835925498570899E+00   0.677434E-03   0.000000E+00   0.301520E+02   0.204260E-01
   LPB:    1  -0.209593642903912E+00   0.149821127032944E+00   0.116793E-01   0.000000E+00   0.665769E+02   0.152120E-17
   LPB:    2  -0.209262805826087E+00   0.496076540649020E-01   0.121591E-01   0.998784E-01   0.226532E+03  -0.248382E-16
   LPB:    3  -0.209183661190557E+00   0.166505583764557E-01   0.223957E-01   0.129881E+00   0.117131E+03   0.106100E-15
   LPB:    4  -0.209140401409401E+00   0.260759090153300E-01   0.327969E-01   0.373245E+00   0.221434E+03   0.156380E-15
  Finished solving LPB equations
  A_corr:   -0.135889440309914     
 End minimization
 Ecorr=   3294.69370306050     
 A_corr= -0.135889440309914     
 Ecorr_band=  -3294.82959250081     
 End Solvation calculations
RMM:  25    -0.315906836280E+03   -0.43974E-04   -0.26984E-04  9887   0.187E-02
 Begin Solvation calculations
  rms_SCF =   0.383008377517784      tol =   3.830083775177837E-002
 Begin minimization
 Creating dielectric and ionic cavities
  area:      139.536002371994     
  volume:    717.633220072087     
  Acav:     7.325640124529674E-002
  Solving linear dielectric/ionic screening model
        iter                  A_solv                     rms
   LPB:       -0.211716772547582E+00   0.734995862452545E+00
   LPB:    0  -0.211709792057483E+00   0.735522138289662E+00  -0.680547E-03   0.000000E+00   0.301440E+02  -0.205144E-01
   LPB:    1  -0.209327884664332E+00   0.125290594205502E+00   0.116200E-01   0.000000E+00   0.649776E+02   0.952206E-18
   LPB:    2  -0.209106389387147E+00   0.400334820622103E-01   0.117063E-01   0.923046E-01   0.246757E+03   0.226366E-15
   LPB:    3  -0.209057386872346E+00   0.123781874932919E-01   0.229371E-01   0.112911E+00   0.106611E+03   0.243908E-15
   LPB:    4  -0.209018897604877E+00   0.193787320787355E-01   0.424488E-01   0.424418E+00   0.135392E+03   0.329138E-15
  Finished solving LPB equations
  A_corr:   -0.135762496359580     
 End minimization
 Ecorr=   3295.89215586262     
 A_corr= -0.135762496359580     
 Ecorr_band=  -3296.02791835898     
 End Solvation calculations
   1 F= -.31590684E+03 E0= -.31589696E+03  d E =-.315907E+03
quench:  g(F)=  0.000E+00 g(S)=  0.000E+00 dE (1.order)= 0.000E+00
 bond charge predicted
       N       E                     dE             d eps       ncg     rms          rms(c)
 Begin Solvation calculations
  rms_SCF =   0.383008377517784      tol =   3.830083775177837E-002
 Begin minimization
 Creating dielectric and ionic cavities
  area:      139.538362458982     
  volume:    717.631139672170     
  Acav:     7.325764029096579E-002
  Solving linear dielectric/ionic screening model
        iter                  A_solv                     rms
   LPB:       -0.209038539632096E+00   0.194557306006355E-01
   LPB:    0  -0.209038539631358E+00   0.194650383212214E-01  -0.221270E-06   0.000000E+00   0.301441E+02  -0.666997E-05
   LPB:    1  -0.209008941312872E+00   0.125663779617067E-01   0.174198E-01   0.000000E+00   0.342066E+03  -0.395776E-21
   LPB:    2  -0.208994219153258E+00   0.217233583540258E-01   0.336498E-01   0.257493E+00   0.321463E+03   0.944378E-16
   LPB:    3  -0.208973986322693E+00   0.173706422958942E-01   0.381238E-01   0.121303E+01   0.874079E+02   0.163560E-15
   LPB:    4  -0.208946023828527E+00   0.316289457120843E-01   0.403413E-01   0.130607E+01   0.802452E+02   0.237133E-15
  Finished solving LPB equations
  A_corr:   -0.135688383537562     
 End minimization
 Ecorr=   3296.56932356271     
 A_corr= -0.135688383537562     
 Ecorr_band=  -3296.70501194624     
 End Solvation calculations
DAV:   1    -0.315907161062E+03   -0.36876E-03   -0.34581E-03 16524   0.212E-01    0.110E-01
 Begin Solvation calculations
  rms_SCF =   0.263520957973908      tol =   2.635209579739077E-002
 Begin minimization
 Creating dielectric and ionic cavities
  area:      139.510974057487     
  volume:    717.663703798616     
  Acav:     7.324326138018075E-002
  Solving linear dielectric/ionic screening model
        iter                  A_solv                     rms
   LPB:       -0.219885162913314E+00   0.181549539040630E+01
   LPB:    0  -0.219791252793392E+00   0.180617320454892E+01  -0.249621E-02   0.000000E+00   0.301425E+02  -0.752421E-01
   LPB:    1  -0.211110621015735E+00   0.186632810893469E+00   0.910590E-02   0.000000E+00   0.641084E+02   0.608647E-18
   LPB:    2  -0.210283356356213E+00   0.337140833656197E-01   0.151019E-01   0.574624E-01   0.137029E+03  -0.940910E-17
   LPB:    3  -0.210182161166122E+00   0.106285901258174E-01   0.217165E-01   0.850661E-01   0.200506E+03   0.741934E-16
   LPB:    4  -0.210155172391532E+00   0.718270965873641E-02   0.267219E-01   0.216744E+00   0.339385E+03   0.891227E-16
  Finished solving LPB equations
  A_corr:   -0.136911911011351     
 End minimization
 Ecorr=   3296.86221760166     
 A_corr= -0.136911911011351     
 Ecorr_band=  -3296.99912951267     
 End Solvation calculations
RMM:   2    -0.315928982254E+03   -0.21821E-01   -0.51236E-03 15247   0.993E-02    0.125E+00
 Begin Solvation calculations
  rms_SCF =   0.263520957973908      tol =   2.635209579739077E-002
 Begin minimization
 Creating dielectric and ionic cavities
  area:      139.537564691672     
  volume:    717.695352831643     
  Acav:     7.325722146312755E-002
  Solving linear dielectric/ionic screening model
        iter                  A_solv                     rms
   LPB:       -0.214753446941622E+00   0.140798736064703E+01
   LPB:    0  -0.214728951923920E+00   0.140385099052604E+01   0.127490E-02   0.000000E+00   0.301410E+02   0.384267E-01
   LPB:    1  -0.209587924763708E+00   0.132994537856599E+00   0.883725E-02   0.000000E+00   0.667050E+02   0.280872E-17
   LPB:    2  -0.209152617480844E+00   0.197542631329858E-01   0.159830E-01   0.468172E-01   0.125016E+03  -0.350419E-15
   LPB:    3  -0.209106431556272E+00   0.562010096006536E-02   0.207322E-01   0.817950E-01   0.301762E+03  -0.363209E-15
   LPB:    4  -0.209096293547073E+00   0.279838372924990E-02   0.258992E-01   0.175712E+00   0.822114E+03  -0.314311E-15
  Finished solving LPB equations
  A_corr:   -0.135839072083945     
 End minimization
 Ecorr=   3297.06952271524     
 A_corr= -0.135839072083945     
 Ecorr_band=  -3297.20536178733     
 End Solvation calculations
RMM:   3    -0.315907335232E+03    0.21647E-01   -0.31860E-03 14219   0.804E-02    0.112E-01
 Begin Solvation calculations
  rms_SCF =   0.223776859936218      tol =   2.237768599362180E-002
 Begin minimization
 Creating dielectric and ionic cavities
  area:      139.530126843249     
  volume:    717.731294042036     
  Acav:     7.325331659270554E-002
  Solving linear dielectric/ionic screening model
        iter                  A_solv                     rms
   LPB:       -0.209170309884999E+00   0.103770247055960E+00
   LPB:    0  -0.209167686153691E+00   0.989560337956724E-01   0.417261E-03   0.000000E+00   0.301394E+02   0.125760E-01
   LPB:    1  -0.209132518956823E+00   0.138109086132281E-01   0.104491E-01   0.000000E+00   0.650287E+02   0.249747E-19
   LPB:    2  -0.209128114998655E+00   0.487908139996354E-02   0.142762E-01   0.916584E-01   0.247140E+03  -0.577409E-16
   LPB:    3  -0.209125936186780E+00   0.554622387129480E-02   0.313620E-01   0.225210E+00   0.152288E+03  -0.695475E-16
   LPB:    4  -0.209121972471215E+00   0.828205234712782E-02   0.682071E-01   0.836482E+00   0.163126E+03  -0.702825E-16
  Finished solving LPB equations
  A_corr:   -0.135868655878509     
 End minimization
 Ecorr=   3297.04553315796     
 A_corr= -0.135868655878509     
 Ecorr_band=  -3297.18140181384     
 End Solvation calculations
RMM:   4    -0.315907209134E+03    0.12610E-03   -0.19764E-04  9786   0.212E-02    0.837E-02
 Begin Solvation calculations
  rms_SCF =   0.177980804554478      tol =   1.779808045544783E-002
 Begin minimization
 Creating dielectric and ionic cavities
  area:      139.529956627633     
  volume:    717.787173338251     
  Acav:     7.325322722950726E-002
  Solving linear dielectric/ionic screening model
        iter                  A_solv                     rms
   LPB:       -0.209640295732625E+00   0.279452800778911E+00
   LPB:    0  -0.209632352884011E+00   0.274546325032681E+00  -0.726031E-03   0.000000E+00   0.301367E+02  -0.218802E-01
   LPB:    1  -0.209356939438283E+00   0.405128117102867E-01   0.108173E-01   0.000000E+00   0.622886E+02  -0.120807E-17
   LPB:    2  -0.209330350888785E+00   0.105094047505490E-01   0.119013E-01   0.877476E-01   0.249161E+03  -0.832171E-16
   LPB:    3  -0.209326735135259E+00   0.262240201986122E-02   0.205416E-01   0.787884E-01   0.125093E+03  -0.869152E-16
   LPB:    4  -0.209324607427467E+00   0.480041193498974E-02   0.402939E-01   0.299991E+00   0.132950E+03  -0.591681E-16
  Finished solving LPB equations
  A_corr:   -0.136071380197959     
 End minimization
 Ecorr=   3297.17316002611     
 A_corr= -0.136071380197959     
 Ecorr_band=  -3297.30923140630     
 End Solvation calculations
RMM:   5    -0.315907250319E+03   -0.41185E-04   -0.41861E-05  8483   0.112E-02
 Begin Solvation calculations
  rms_SCF =   0.177980804554478      tol =   1.779808045544783E-002
 Begin minimization
 Creating dielectric and ionic cavities
  area:      139.530328016239     
  volume:    717.819887032239     
  Acav:     7.325342220852535E-002
  Solving linear dielectric/ionic screening model
        iter                  A_solv                     rms
   LPB:       -0.209493166482932E+00   0.131070926445496E+00
   LPB:    0  -0.209492962845770E+00   0.131070198952144E+00  -0.116254E-03   0.000000E+00   0.301352E+02  -0.350333E-02
   LPB:    1  -0.209430198771398E+00   0.193691529771288E-01   0.108042E-01   0.000000E+00   0.625606E+02   0.200741E-18
   LPB:    2  -0.209424235246226E+00   0.559878259414117E-02   0.119490E-01   0.859124E-01   0.243990E+03   0.494975E-17
   LPB:    3  -0.209422923687988E+00   0.253331323752104E-02   0.268993E-01   0.976955E-01   0.873234E+02   0.891652E-17
   LPB:    4  -0.209420911646680E+00   0.228042777352387E-02   0.624323E-01   0.660968E+00   0.784370E+02   0.175905E-16
  Finished solving LPB equations
  A_corr:   -0.136167489438155     
 End minimization
 Ecorr=   3297.23816301854     
 A_corr= -0.136167489438155     
 Ecorr_band=  -3297.37433050798     
 End Solvation calculations
   2 F= -.31590725E+03 E0= -.31589732E+03  d E =-.414039E-03
quench:  g(F)=  0.000E+00 g(S)=  0.000E+00 dE (1.order)= 0.000E+00
 reached required accuracy - stopping structural energy minimisation
