 vasp.5.4.4.18Apr17-6-g9f103f2a35 (build Feb 06 2024 13:54:16) complex          
  
 POSCAR found type information on POSCAR  Pd N  O 
 02/POSCAR found :  3 types and      40 ions
 scaLAPACK will be used

 ----------------------------------------------------------------------------- 
|                                                                             |
|  ADVICE TO THIS USER RUNNING 'VASP/VAMP'   (HEAR YOUR MASTER'S VOICE ...):  |
|                                                                             |
|      You enforced a specific xc-type in the INCAR file,                     |
|      a different type was found on the POTCAR file                          |
|          I HOPE YOU KNOW, WHAT YOU ARE  DOING                               |
|                                                                             |
 ----------------------------------------------------------------------------- 

 LDA part: xc-table for Pade appr. of Perdew
 POSCAR found type information on POSCAR  Pd N  O 
 00/POSCAR found :  3 types and      40 ions
 POSCAR found type information on POSCAR  Pd N  O 
 06/POSCAR found :  3 types and      40 ions
 Jacobian:    21.0960049830057     
 POSCAR, INCAR and KPOINTS ok, starting setup
 FFT: planning ...
 WAVECAR not read
 entering main loop
       N       E                     dE             d eps       ncg     rms          rms(c)
DAV:   1     0.203320846522E+04    0.20332E+04   -0.13219E+05  2790   0.932E+02
DAV:   2    -0.424370067026E+02   -0.20756E+04   -0.19423E+04  3177   0.257E+02
DAV:   3    -0.185152669718E+03   -0.14272E+03   -0.12803E+03  3177   0.618E+01
DAV:   4    -0.190281008799E+03   -0.51283E+01   -0.49474E+01  3159   0.122E+01
DAV:   5    -0.190494541468E+03   -0.21353E+00   -0.21136E+00  3762   0.240E+00    0.353E+01
RMM:   6    -0.185183745356E+03    0.53108E+01   -0.30936E+01  2784   0.116E+01    0.249E+01
RMM:   7    -0.307676916410E+03   -0.12249E+03   -0.55154E+01  2820   0.101E+01    0.757E+01
RMM:   8    -0.202462381085E+03    0.10521E+03   -0.25462E+01  2777   0.779E+00    0.411E+01
RMM:   9    -0.184538838761E+03    0.17924E+02   -0.16101E+01  2778   0.732E+00    0.178E+01
RMM:  10    -0.186709873657E+03   -0.21710E+01   -0.93054E+00  2784   0.561E+00    0.212E+01
RMM:  11    -0.183666670049E+03    0.30432E+01   -0.51608E+00  2779   0.434E+00    0.126E+01
RMM:  12    -0.182818139381E+03    0.84853E+00   -0.22344E+00  2787   0.279E+00    0.115E+01
RMM:  13    -0.182485829797E+03    0.33231E+00   -0.93078E-01  2781   0.187E+00    0.818E+00
RMM:  14    -0.181930198650E+03    0.55563E+00   -0.45232E-01  2779   0.128E+00    0.406E+00
RMM:  15    -0.181854317933E+03    0.75881E-01   -0.11978E-01  2780   0.657E-01    0.287E+00
RMM:  16    -0.181815168686E+03    0.39149E-01   -0.44317E-02  2777   0.388E-01    0.220E+00
RMM:  17    -0.181798756205E+03    0.16412E-01   -0.10869E-02  2767   0.196E-01    0.160E+00
RMM:  18    -0.181811186755E+03   -0.12431E-01   -0.26848E-02  2777   0.304E-01    0.175E+00
RMM:  19    -0.181812572666E+03   -0.13859E-02   -0.28124E-02  2781   0.321E-01    0.190E+00
RMM:  20    -0.181791867420E+03    0.20705E-01   -0.16332E-02  2778   0.245E-01    0.990E-01
RMM:  21    -0.181785908156E+03    0.59593E-02   -0.55024E-03  2759   0.152E-01    0.478E-01
RMM:  22    -0.181784651715E+03    0.12564E-02   -0.20148E-03  2750   0.869E-02    0.326E-01
RMM:  23    -0.181783712431E+03    0.93928E-03   -0.11898E-03  2730   0.655E-02    0.281E-01
RMM:  24    -0.181783361230E+03    0.35120E-03   -0.60748E-04  2471   0.473E-02    0.186E-01
RMM:  25    -0.181783316933E+03    0.44297E-04   -0.26378E-04  1641   0.339E-02
   1 F= -.18178332E+03 E0= -.18177609E+03  d E =-.181783E+03
quench:  g(F)=  0.000E+00 g(S)=  0.000E+00 dE (1.order)= 0.000E+00
 bond charge predicted
       N       E                     dE             d eps       ncg     rms          rms(c)
DAV:   1    -0.181794036841E+03   -0.10676E-01   -0.16369E-01  2826   0.696E-01    0.249E-01
RMM:   2    -0.181954402176E+03   -0.16037E+00   -0.24802E-02  2781   0.264E-01    0.495E+00
RMM:   3    -0.181797200963E+03    0.15720E+00   -0.13529E-02  2784   0.222E-01    0.660E-01
RMM:   4    -0.181794675804E+03    0.25252E-02   -0.39459E-03  2767   0.159E-01    0.189E-01
RMM:   5    -0.181795146616E+03   -0.47081E-03   -0.74576E-04  2604   0.540E-02    0.278E-01
RMM:   6    -0.181795184003E+03   -0.37388E-04   -0.30194E-04  1747   0.359E-02
   2 F= -.18179518E+03 E0= -.18178814E+03  d E =-.118671E-01
quench:  g(F)=  0.000E+00 g(S)=  0.000E+00 dE (1.order)= 0.000E+00
 bond charge predicted
       N       E                     dE             d eps       ncg     rms          rms(c)
DAV:   1    -0.181809786486E+03   -0.14640E-01   -0.53296E-01  2814   0.132E+00    0.362E-01
RMM:   2    -0.182054796458E+03   -0.24501E+00   -0.45985E-02  2791   0.367E-01    0.612E+00
RMM:   3    -0.181816723341E+03    0.23807E+00   -0.23075E-02  2786   0.282E-01    0.103E+00
RMM:   4    -0.181812536116E+03    0.41872E-02   -0.58742E-03  2786   0.192E-01    0.488E-01
RMM:   5    -0.181811325873E+03    0.12102E-02   -0.14029E-03  2763   0.756E-02    0.264E-01
RMM:   6    -0.181811291348E+03    0.34525E-04   -0.80782E-04  2672   0.560E-02
   3 F= -.18181129E+03 E0= -.18180399E+03  d E =-.161073E-01
quench:  g(F)=  0.000E+00 g(S)=  0.000E+00 dE (1.order)= 0.000E+00
 bond charge predicted
       N       E                     dE             d eps       ncg     rms          rms(c)
DAV:   1    -0.181826230629E+03   -0.14905E-01   -0.86146E-01  2796   0.180E+00    0.348E-01
RMM:   2    -0.181895130804E+03   -0.68900E-01   -0.38911E-02  2784   0.350E-01    0.324E+00
RMM:   3    -0.181837958552E+03    0.57172E-01   -0.93478E-03  2790   0.179E-01    0.129E+00
RMM:   4    -0.181828330059E+03    0.96285E-02   -0.52828E-03  2772   0.163E-01    0.346E-01
RMM:   5    -0.181828354149E+03   -0.24090E-04   -0.13732E-03  2776   0.729E-02    0.294E-01
RMM:   6    -0.181828237606E+03    0.11654E-03   -0.71010E-04  2671   0.523E-02    0.218E-01
RMM:   7    -0.181828371137E+03   -0.13353E-03   -0.42313E-04  2082   0.405E-02    0.223E-01
RMM:   8    -0.181828401722E+03   -0.30585E-04   -0.25347E-04  1591   0.336E-02
   4 F= -.18182840E+03 E0= -.18182092E+03  d E =-.171104E-01
quench:  g(F)=  0.000E+00 g(S)=  0.000E+00 dE (1.order)= 0.000E+00
 bond charge predicted
       N       E                     dE             d eps       ncg     rms          rms(c)
DAV:   1    -0.181844007569E+03   -0.15636E-01   -0.12341E+00  2784   0.220E+00    0.343E-01
RMM:   2    -0.181882691407E+03   -0.38684E-01   -0.40661E-02  2789   0.331E-01    0.238E+00
RMM:   3    -0.181849935059E+03    0.32756E-01   -0.55134E-03  2785   0.138E-01    0.842E-01
RMM:   4    -0.181847730882E+03    0.22042E-02   -0.39062E-03  2772   0.134E-01    0.443E-01
RMM:   5    -0.181847116137E+03    0.61474E-03   -0.14782E-03  2778   0.763E-02    0.291E-01
RMM:   6    -0.181846761397E+03    0.35474E-03   -0.67516E-04  2632   0.515E-02    0.153E-01
RMM:   7    -0.181847053920E+03   -0.29252E-03   -0.34617E-04  1865   0.373E-02    0.209E-01
RMM:   8    -0.181846981179E+03    0.72741E-04   -0.20723E-04  1567   0.318E-02
   5 F= -.18184698E+03 E0= -.18183942E+03  d E =-.185795E-01
quench:  g(F)=  0.000E+00 g(S)=  0.000E+00 dE (1.order)= 0.000E+00
 bond charge predicted
       N       E                     dE             d eps       ncg     rms          rms(c)
DAV:   1    -0.181862836473E+03   -0.15783E-01   -0.17403E+00  2772   0.262E+00    0.388E-01
RMM:   2    -0.181872102702E+03   -0.92662E-02   -0.51664E-02  2792   0.365E-01    0.939E-01
RMM:   3    -0.181884360045E+03   -0.12257E-01   -0.47799E-03  2792   0.119E-01    0.172E+00
RMM:   4    -0.181867272712E+03    0.17087E-01   -0.43900E-03  2771   0.132E-01    0.514E-01
RMM:   5    -0.181867115250E+03    0.15746E-03   -0.21883E-03  2777   0.981E-02    0.369E-01
RMM:   6    -0.181866423452E+03    0.69180E-03   -0.94266E-04  2724   0.612E-02    0.161E-01
RMM:   7    -0.181866806732E+03   -0.38328E-03   -0.48162E-04  2212   0.434E-02    0.217E-01
RMM:   8    -0.181866696164E+03    0.11057E-03   -0.27517E-04  1631   0.359E-02    0.120E-01
RMM:   9    -0.181866691102E+03    0.50617E-05   -0.12885E-04  1507   0.249E-02
   6 F= -.18186669E+03 E0= -.18185901E+03  d E =-.197099E-01
quench:  g(F)=  0.000E+00 g(S)=  0.000E+00 dE (1.order)= 0.000E+00
 bond charge predicted
       N       E                     dE             d eps       ncg     rms          rms(c)
DAV:   1    -0.181881092859E+03   -0.14397E-01   -0.22649E+00  2772   0.298E+00    0.442E-01
RMM:   2    -0.181890791139E+03   -0.96983E-02   -0.67221E-02  2791   0.414E-01    0.851E-01
RMM:   3    -0.181910647963E+03   -0.19857E-01   -0.65587E-03  2784   0.140E-01    0.205E+00
RMM:   4    -0.181888803067E+03    0.21845E-01   -0.55481E-03  2773   0.143E-01    0.828E-01
RMM:   5    -0.181886540318E+03    0.22627E-02   -0.30756E-03  2779   0.121E-01    0.413E-01
RMM:   6    -0.181885680581E+03    0.85974E-03   -0.12983E-03  2747   0.728E-02    0.183E-01
RMM:   7    -0.181886074243E+03   -0.39366E-03   -0.66831E-04  2587   0.510E-02    0.196E-01
RMM:   8    -0.181886045739E+03    0.28504E-04   -0.33059E-04  1767   0.377E-02
   7 F= -.18188605E+03 E0= -.18187825E+03  d E =-.193546E-01
quench:  g(F)=  0.000E+00 g(S)=  0.000E+00 dE (1.order)= 0.000E+00
 bond charge predicted
       N       E                     dE             d eps       ncg     rms          rms(c)
DAV:   1    -0.181897072396E+03   -0.10998E-01   -0.27531E+00  2826   0.327E+00    0.493E-01
RMM:   2    -0.181905792167E+03   -0.87198E-02   -0.82370E-02  2790   0.458E-01    0.667E-01
RMM:   3    -0.181904900828E+03    0.89134E-03   -0.94391E-03  2781   0.183E-01    0.669E-01
RMM:   4    -0.181909385115E+03   -0.44843E-02   -0.39842E-03  2782   0.120E-01    0.103E+00
RMM:   5    -0.181906654217E+03    0.27309E-02   -0.15948E-03  2723   0.735E-02    0.852E-01
RMM:   6    -0.181902570050E+03    0.40842E-02   -0.17398E-03  2751   0.863E-02    0.209E-01
RMM:   7    -0.181903192272E+03   -0.62222E-03   -0.80206E-04  2699   0.570E-02    0.260E-01
RMM:   8    -0.181903113988E+03    0.78284E-04   -0.44026E-04  2142   0.431E-02
   8 F= -.18190311E+03 E0= -.18189522E+03  d E =-.170682E-01
quench:  g(F)=  0.000E+00 g(S)=  0.000E+00 dE (1.order)= 0.000E+00
 bond charge predicted
       N       E                     dE             d eps       ncg     rms          rms(c)
DAV:   1    -0.181908777299E+03   -0.55850E-02   -0.31039E+00  2850   0.347E+00    0.523E-01
RMM:   2    -0.181918882739E+03   -0.10105E-01   -0.92495E-02  2795   0.482E-01    0.733E-01
RMM:   3    -0.181949795162E+03   -0.30912E-01   -0.10086E-02  2793   0.176E-01    0.240E+00
RMM:   4    -0.181921472579E+03    0.28323E-01   -0.66127E-03  2778   0.153E-01    0.109E+00
RMM:   5    -0.181916285762E+03    0.51868E-02   -0.45810E-03  2779   0.146E-01    0.444E-01
RMM:   6    -0.181915404354E+03    0.88141E-03   -0.18274E-03  2756   0.856E-02    0.214E-01
RMM:   7    -0.181916045590E+03   -0.64124E-03   -0.84523E-04  2708   0.565E-02    0.285E-01
RMM:   8    -0.181915762124E+03    0.28347E-03   -0.48306E-04  2273   0.445E-02    0.153E-01
RMM:   9    -0.181915800860E+03   -0.38736E-04   -0.23855E-04  1604   0.324E-02
   9 F= -.18191580E+03 E0= -.18190777E+03  d E =-.126869E-01
quench:  g(F)=  0.000E+00 g(S)=  0.000E+00 dE (1.order)= 0.000E+00
 bond charge predicted
       N       E                     dE             d eps       ncg     rms          rms(c)
DAV:   1    -0.181913556308E+03    0.22058E-02   -0.24963E+00  2898   0.301E+00    0.449E-01
RMM:   2    -0.181923263451E+03   -0.97071E-02   -0.86845E-02  2793   0.470E-01    0.748E-01
RMM:   3    -0.181942152234E+03   -0.18889E-01   -0.80765E-03  2805   0.154E-01    0.197E+00
RMM:   4    -0.181922873068E+03    0.19279E-01   -0.51515E-03  2794   0.135E-01    0.882E-01
RMM:   5    -0.181919741864E+03    0.31312E-02   -0.33001E-03  2787   0.123E-01    0.387E-01
RMM:   6    -0.181919339932E+03    0.40193E-03   -0.16115E-03  2774   0.796E-02    0.258E-01
RMM:   7    -0.181919561433E+03   -0.22150E-03   -0.10147E-03  2755   0.624E-02    0.253E-01
RMM:   8    -0.181919309359E+03    0.25207E-03   -0.56465E-04  2496   0.467E-02    0.172E-01
RMM:   9    -0.181919241444E+03    0.67915E-04   -0.23659E-04  1601   0.315E-02
  10 F= -.18191924E+03 E0= -.18191110E+03  d E =-.344058E-02
quench:  g(F)=  0.000E+00 g(S)=  0.000E+00 dE (1.order)= 0.000E+00
 bond charge predicted
       N       E                     dE             d eps       ncg     rms          rms(c)
DAV:   1    -0.181920708293E+03   -0.13989E-02   -0.22621E-02  2934   0.244E-01    0.844E-02
RMM:   2    -0.181927956382E+03   -0.72481E-02   -0.22768E-03  2777   0.826E-02    0.107E+00
RMM:   3    -0.181920898305E+03    0.70581E-02   -0.81309E-04  2629   0.567E-02    0.268E-01
RMM:   4    -0.181920861457E+03    0.36848E-04   -0.37100E-04  1933   0.475E-02
  11 F= -.18192086E+03 E0= -.18191270E+03  d E =-.162001E-02
quench:  g(F)=  0.000E+00 g(S)=  0.000E+00 dE (1.order)= 0.000E+00
 bond charge predicted
       N       E                     dE             d eps       ncg     rms          rms(c)
DAV:   1    -0.181922540942E+03   -0.16426E-02   -0.71750E-02  2790   0.428E-01    0.126E-01
RMM:   2    -0.181929479068E+03   -0.69381E-02   -0.44018E-03  2798   0.111E-01    0.103E+00
RMM:   3    -0.181923127555E+03    0.63515E-02   -0.89512E-04  2678   0.577E-02    0.345E-01
RMM:   4    -0.181922811127E+03    0.31643E-03   -0.58645E-04  2431   0.542E-02    0.140E-01
RMM:   5    -0.181922829423E+03   -0.18296E-04   -0.21874E-04  1601   0.303E-02
  12 F= -.18192283E+03 E0= -.18191466E+03  d E =-.196797E-02
quench:  g(F)=  0.000E+00 g(S)=  0.000E+00 dE (1.order)= 0.000E+00
 bond charge predicted
       N       E                     dE             d eps       ncg     rms          rms(c)
DAV:   1    -0.181923400824E+03   -0.58970E-03   -0.96203E-02  2808   0.554E-01    0.141E-01
RMM:   2    -0.181926055588E+03   -0.26548E-02   -0.53763E-03  2804   0.125E-01    0.574E-01
RMM:   3    -0.181926103245E+03   -0.47658E-04   -0.89347E-04  2682   0.542E-02
  13 F= -.18192610E+03 E0= -.18191836E+03  d E =-.327382E-02
quench:  g(F)=  0.000E+00 g(S)=  0.000E+00 dE (1.order)= 0.000E+00
 bond charge predicted
       N       E                     dE             d eps       ncg     rms          rms(c)
DAV:   1    -0.181923695483E+03    0.23601E-02   -0.95135E-03  2964   0.297E-01    0.183E-01
RMM:   2    -0.181978860709E+03   -0.55165E-01   -0.73465E-03  2772   0.159E-01    0.293E+00
RMM:   3    -0.181925490619E+03    0.53370E-01   -0.54172E-03  2759   0.140E-01    0.689E-01
RMM:   4    -0.181923469822E+03    0.20208E-02   -0.19581E-03  2756   0.108E-01    0.864E-02
RMM:   5    -0.181923869864E+03   -0.40004E-03   -0.25722E-04  1677   0.363E-02    0.131E-01
RMM:   6    -0.181923759175E+03    0.11069E-03   -0.10670E-04  1503   0.234E-02    0.362E-02
RMM:   7    -0.181923772682E+03   -0.13507E-04   -0.29827E-05  1453   0.115E-02
  14 F= -.18192377E+03 E0= -.18191555E+03  d E =0.233056E-02
quench:  g(F)=  0.000E+00 g(S)=  0.000E+00 dE (1.order)= 0.000E+00
 bond charge predicted
       N       E                     dE             d eps       ncg     rms          rms(c)
DAV:   1    -0.181923973590E+03   -0.21441E-03   -0.75000E-03  2934   0.168E-01    0.417E-02
RMM:   2    -0.181926216295E+03   -0.22427E-02   -0.56388E-04  2221   0.439E-02    0.583E-01
RMM:   3    -0.181923973600E+03    0.22427E-02   -0.21790E-04  1587   0.310E-02    0.138E-01
RMM:   4    -0.181923991792E+03   -0.18191E-04   -0.10628E-04  1537   0.260E-02
  15 F= -.18192399E+03 E0= -.18191572E+03  d E =-.219110E-03
quench:  g(F)=  0.000E+00 g(S)=  0.000E+00 dE (1.order)= 0.000E+00
 bond charge predicted
       N       E                     dE             d eps       ncg     rms          rms(c)
DAV:   1    -0.181924209797E+03   -0.23620E-03   -0.15859E-02  2952   0.248E-01    0.526E-02
RMM:   2    -0.181924745365E+03   -0.53557E-03   -0.70214E-04  2237   0.505E-02    0.273E-01
RMM:   3    -0.181924688491E+03    0.56874E-04   -0.16380E-04  1549   0.261E-02
  16 F= -.18192469E+03 E0= -.18191652E+03  d E =-.696699E-03
quench:  g(F)=  0.000E+00 g(S)=  0.000E+00 dE (1.order)= 0.000E+00
 bond charge predicted
       N       E                     dE             d eps       ncg     rms          rms(c)
DAV:   1    -0.181924339589E+03    0.40578E-03   -0.27144E-02  2832   0.344E-01    0.721E-02
RMM:   2    -0.181926652608E+03   -0.23130E-02   -0.12379E-03  2711   0.718E-02    0.575E-01
RMM:   3    -0.181924832555E+03    0.18201E-02   -0.33613E-04  1887   0.358E-02    0.318E-01
RMM:   4    -0.181924373869E+03    0.45869E-03   -0.20454E-04  1587   0.340E-02    0.568E-02
RMM:   5    -0.181924452781E+03   -0.78912E-04   -0.70389E-05  1488   0.189E-02
  17 F= -.18192445E+03 E0= -.18191621E+03  d E =0.235710E-03
quench:  g(F)=  0.000E+00 g(S)=  0.000E+00 dE (1.order)= 0.000E+00
 bond charge predicted
       N       E                     dE             d eps       ncg     rms          rms(c)
DAV:   1    -0.181924512875E+03   -0.13901E-03   -0.41040E-02  2916   0.402E-01    0.661E-02
RMM:   2    -0.181925209448E+03   -0.69657E-03   -0.12367E-03  2345   0.623E-02    0.319E-01
RMM:   3    -0.181924803780E+03    0.40567E-03   -0.14932E-04  1554   0.251E-02    0.212E-01
RMM:   4    -0.181924622667E+03    0.18111E-03   -0.14201E-04  1556   0.267E-02    0.827E-02
RMM:   5    -0.181924624720E+03   -0.20531E-05   -0.53492E-05  1443   0.168E-02
  18 F= -.18192462E+03 E0= -.18191641E+03  d E =-.171939E-03
quench:  g(F)=  0.000E+00 g(S)=  0.000E+00 dE (1.order)= 0.000E+00
 bond charge predicted
       N       E                     dE             d eps       ncg     rms          rms(c)
DAV:   1    -0.181924580189E+03    0.42478E-04   -0.57776E-02  2832   0.476E-01    0.797E-02
RMM:   2    -0.181925666784E+03   -0.10866E-02   -0.18525E-03  2677   0.765E-02    0.373E-01
RMM:   3    -0.181925191106E+03    0.47568E-03   -0.23417E-04  1616   0.298E-02    0.316E-01
RMM:   4    -0.181924684160E+03    0.50695E-03   -0.18318E-04  1572   0.305E-02    0.943E-02
RMM:   5    -0.181924739709E+03   -0.55550E-04   -0.95101E-05  1501   0.222E-02
  19 F= -.18192474E+03 E0= -.18191650E+03  d E =-.114989E-03
quench:  g(F)=  0.000E+00 g(S)=  0.000E+00 dE (1.order)= 0.000E+00
 bond charge predicted
       N       E                     dE             d eps       ncg     rms          rms(c)
DAV:   1    -0.181924606565E+03    0.77595E-04   -0.74290E-02  2820   0.544E-01    0.854E-02
RMM:   2    -0.181924978302E+03   -0.37174E-03   -0.21173E-03  2715   0.823E-02    0.185E-01
RMM:   3    -0.181925535649E+03   -0.55735E-03   -0.24001E-04  1625   0.301E-02    0.365E-01
RMM:   4    -0.181924792506E+03    0.74314E-03   -0.16171E-04  1560   0.267E-02    0.137E-01
RMM:   5    -0.181924815800E+03   -0.23294E-04   -0.10749E-04  1524   0.241E-02
  20 F= -.18192482E+03 E0= -.18191662E+03  d E =-.760907E-04
quench:  g(F)=  0.000E+00 g(S)=  0.000E+00 dE (1.order)= 0.000E+00
 bond charge predicted
       N       E                     dE             d eps       ncg     rms          rms(c)
DAV:   1    -0.181924604866E+03    0.18764E-03   -0.87909E-02  2796   0.594E-01    0.990E-02
RMM:   2    -0.181926790270E+03   -0.21854E-02   -0.28560E-03  2780   0.969E-02    0.539E-01
RMM:   3    -0.181925417806E+03    0.13725E-02   -0.39788E-04  1994   0.379E-02    0.366E-01
RMM:   4    -0.181924737159E+03    0.68065E-03   -0.31074E-04  1779   0.390E-02    0.110E-01
RMM:   5    -0.181924837895E+03   -0.10074E-03   -0.15181E-04  1531   0.271E-02    0.102E-01
RMM:   6    -0.181924776357E+03    0.61539E-04   -0.77829E-05  1463   0.200E-02
  21 F= -.18192478E+03 E0= -.18191650E+03  d E =0.394433E-04
quench:  g(F)=  0.000E+00 g(S)=  0.000E+00 dE (1.order)= 0.000E+00
 bond charge predicted
       N       E                     dE             d eps       ncg     rms          rms(c)
DAV:   1    -0.181924607372E+03    0.23052E-03   -0.98559E-02  2772   0.628E-01    0.966E-02
RMM:   2    -0.181925246018E+03   -0.63865E-03   -0.28530E-03  2786   0.960E-02    0.258E-01
RMM:   3    -0.181925874584E+03   -0.62857E-03   -0.33690E-04  1791   0.344E-02    0.432E-01
RMM:   4    -0.181924823471E+03    0.10511E-02   -0.24277E-04  1636   0.328E-02    0.155E-01
RMM:   5    -0.181924810305E+03    0.13167E-04   -0.14007E-04  1542   0.276E-02
  22 F= -.18192481E+03 E0= -.18191648E+03  d E =-.339478E-04
quench:  g(F)=  0.000E+00 g(S)=  0.000E+00 dE (1.order)= 0.000E+00
 bond charge predicted
       N       E                     dE             d eps       ncg     rms          rms(c)
DAV:   1    -0.181924538214E+03    0.28526E-03   -0.91616E-02  2784   0.600E-01    0.110E-01
RMM:   2    -0.181925585340E+03   -0.10471E-02   -0.33353E-03  2798   0.103E-01    0.346E-01
RMM:   3    -0.181924920153E+03    0.66519E-03   -0.57192E-04  2405   0.468E-02    0.247E-01
RMM:   4    -0.181925215157E+03   -0.29500E-03   -0.15761E-04  1561   0.261E-02    0.293E-01
RMM:   5    -0.181924716714E+03    0.49844E-03   -0.15569E-04  1568   0.273E-02    0.811E-02
RMM:   6    -0.181924736856E+03   -0.20142E-04   -0.84723E-05  1488   0.213E-02
  23 F= -.18192474E+03 E0= -.18191647E+03  d E =0.734488E-04
quench:  g(F)=  0.000E+00 g(S)=  0.000E+00 dE (1.order)= 0.000E+00
 bond charge predicted
       N       E                     dE             d eps       ncg     rms          rms(c)
DAV:   1    -0.181924618176E+03    0.98537E-04   -0.44878E-02  2772   0.404E-01    0.746E-02
RMM:   2    -0.181924999315E+03   -0.38114E-03   -0.18987E-03  2732   0.761E-02    0.189E-01
RMM:   3    -0.181925334717E+03   -0.33540E-03   -0.26230E-04  1623   0.317E-02    0.317E-01
RMM:   4    -0.181924756013E+03    0.57870E-03   -0.11660E-04  1519   0.222E-02    0.118E-01
RMM:   5    -0.181924748124E+03    0.78896E-05   -0.87931E-05  1494   0.215E-02
  24 F= -.18192475E+03 E0= -.18191649E+03  d E =-.112677E-04
quench:  g(F)=  0.000E+00 g(S)=  0.000E+00 dE (1.order)= 0.000E+00
 bond charge predicted
       N       E                     dE             d eps       ncg     rms          rms(c)
DAV:   1    -0.181924719956E+03    0.36058E-04   -0.70960E-03  2817   0.163E-01    0.469E-02
RMM:   2    -0.181926131729E+03   -0.14118E-02   -0.56746E-04  2170   0.457E-02    0.455E-01
RMM:   3    -0.181924920771E+03    0.12110E-02   -0.19009E-04  1559   0.290E-02    0.221E-01
RMM:   4    -0.181924715989E+03    0.20478E-03   -0.11636E-04  1543   0.258E-02    0.429E-02
RMM:   5    -0.181924753371E+03   -0.37382E-04   -0.35347E-05  1445   0.131E-02
  25 F= -.18192475E+03 E0= -.18191649E+03  d E =-.524751E-05
quench:  g(F)=  0.000E+00 g(S)=  0.000E+00 dE (1.order)= 0.000E+00
 bond charge predicted
       N       E                     dE             d eps       ncg     rms          rms(c)
DAV:   1    -0.181924665859E+03    0.50130E-04   -0.94028E-03  2772   0.196E-01    0.372E-02
RMM:   2    -0.181925142074E+03   -0.47621E-03   -0.32286E-04  1634   0.340E-02    0.263E-01
RMM:   3    -0.181924732486E+03    0.40959E-03   -0.69206E-05  1478   0.181E-02    0.107E-01
RMM:   4    -0.181924702391E+03    0.30096E-04   -0.50109E-05  1474   0.162E-02
  26 F= -.18192470E+03 E0= -.18191642E+03  d E =0.509806E-04
quench:  g(F)=  0.000E+00 g(S)=  0.000E+00 dE (1.order)= 0.000E+00
 bond charge predicted
       N       E                     dE             d eps       ncg     rms          rms(c)
DAV:   1    -0.181924557816E+03    0.17467E-03   -0.14288E-02  2772   0.241E-01    0.476E-02
RMM:   2    -0.181924949528E+03   -0.39171E-03   -0.50321E-04  1837   0.431E-02    0.237E-01
RMM:   3    -0.181924827257E+03    0.12227E-03   -0.10227E-04  1498   0.211E-02    0.208E-01
RMM:   4    -0.181924581129E+03    0.24613E-03   -0.80153E-05  1508   0.200E-02    0.495E-02
RMM:   5    -0.181924591260E+03   -0.10131E-04   -0.37007E-05  1429   0.134E-02
  27 F= -.18192459E+03 E0= -.18191629E+03  d E =0.111130E-03
quench:  g(F)=  0.000E+00 g(S)=  0.000E+00 dE (1.order)= 0.000E+00
 bond charge predicted
       N       E                     dE             d eps       ncg     rms          rms(c)
DAV:   1    -0.181924395932E+03    0.18520E-03   -0.20663E-02  2772   0.289E-01    0.529E-02
RMM:   2    -0.181924747829E+03   -0.35190E-03   -0.67242E-04  1999   0.481E-02    0.215E-01
RMM:   3    -0.181924760005E+03   -0.12177E-04   -0.13374E-04  1525   0.246E-02
  28 F= -.18192476E+03 E0= -.18191658E+03  d E =-.168745E-03
quench:  g(F)=  0.000E+00 g(S)=  0.000E+00 dE (1.order)= 0.000E+00
 bond charge predicted
       N       E                     dE             d eps       ncg     rms          rms(c)
DAV:   1    -0.181924150744E+03    0.59709E-03   -0.28787E-02  2772   0.357E-01    0.878E-02
RMM:   2    -0.181931673302E+03   -0.75226E-02   -0.17815E-03  2758   0.832E-02    0.107E+00
RMM:   3    -0.181924433635E+03    0.72397E-02   -0.82555E-04  2612   0.561E-02    0.325E-01
RMM:   4    -0.181924136741E+03    0.29689E-03   -0.32912E-04  1849   0.452E-02    0.582E-02
RMM:   5    -0.181924268258E+03   -0.13152E-03   -0.84263E-05  1509   0.206E-02    0.772E-02
RMM:   6    -0.181924226556E+03    0.41701E-04   -0.38428E-05  1433   0.141E-02
  29 F= -.18192423E+03 E0= -.18191597E+03  d E =0.533449E-03
quench:  g(F)=  0.000E+00 g(S)=  0.000E+00 dE (1.order)= 0.000E+00
 bond charge predicted
       N       E                     dE             d eps       ncg     rms          rms(c)
DAV:   1    -0.181924002438E+03    0.26582E-03   -0.33582E-02  2772   0.366E-01    0.647E-02
RMM:   2    -0.181924549754E+03   -0.54732E-03   -0.11091E-03  2493   0.603E-02    0.272E-01
RMM:   3    -0.181924574646E+03   -0.24892E-04   -0.16584E-04  1554   0.251E-02
  30 F= -.18192457E+03 E0= -.18191650E+03  d E =-.348090E-03
quench:  g(F)=  0.000E+00 g(S)=  0.000E+00 dE (1.order)= 0.000E+00
 bond charge predicted
       N       E                     dE             d eps       ncg     rms          rms(c)
DAV:   1    -0.181923727139E+03    0.82261E-03   -0.41071E-02  2772   0.426E-01    0.962E-02
RMM:   2    -0.181926617874E+03   -0.28907E-02   -0.19060E-03  2774   0.884E-02    0.660E-01
RMM:   3    -0.181924932312E+03    0.16856E-02   -0.53985E-04  2340   0.430E-02    0.453E-01
RMM:   4    -0.181923768301E+03    0.11640E-02   -0.37304E-04  1936   0.433E-02    0.560E-02
RMM:   5    -0.181923882391E+03   -0.11409E-03   -0.88728E-05  1493   0.211E-02    0.859E-02
RMM:   6    -0.181923828460E+03    0.53931E-04   -0.42217E-05  1436   0.146E-02
  31 F= -.18192383E+03 E0= -.18191557E+03  d E =0.746187E-03
quench:  g(F)=  0.000E+00 g(S)=  0.000E+00 dE (1.order)= 0.000E+00
 bond charge predicted
       N       E                     dE             d eps       ncg     rms          rms(c)
DAV:   1    -0.181923611091E+03    0.27130E-03   -0.41290E-02  2790   0.403E-01    0.723E-02
RMM:   2    -0.181924032124E+03   -0.42103E-03   -0.13650E-03  2616   0.667E-02    0.225E-01
RMM:   3    -0.181924060852E+03   -0.28728E-04   -0.22704E-04  1581   0.307E-02
  32 F= -.18192406E+03 E0= -.18191598E+03  d E =-.232393E-03
quench:  g(F)=  0.000E+00 g(S)=  0.000E+00 dE (1.order)= 0.000E+00
 bond charge predicted
       N       E                     dE             d eps       ncg     rms          rms(c)
DAV:   1    -0.181923442447E+03    0.58968E-03   -0.43568E-02  2772   0.436E-01    0.142E-01
RMM:   2    -0.181960591888E+03   -0.37149E-01   -0.54684E-03  2780   0.137E-01    0.239E+00
RMM:   3    -0.181923900660E+03    0.36691E-01   -0.35060E-03  2753   0.116E-01    0.471E-01
RMM:   4    -0.181923312315E+03    0.58834E-03   -0.10492E-03  2705   0.840E-02    0.814E-02
RMM:   5    -0.181923560297E+03   -0.24798E-03   -0.14697E-04  1577   0.275E-02    0.987E-02
RMM:   6    -0.181923492745E+03    0.67552E-04   -0.73329E-05  1471   0.193E-02
  33 F= -.18192349E+03 E0= -.18191525E+03  d E =0.568107E-03
quench:  g(F)=  0.000E+00 g(S)=  0.000E+00 dE (1.order)= 0.000E+00
 bond charge predicted
       N       E                     dE             d eps       ncg     rms          rms(c)
DAV:   1    -0.181923338971E+03    0.22133E-03   -0.35213E-02  2790   0.367E-01    0.711E-02
RMM:   2    -0.181923716061E+03   -0.37709E-03   -0.13313E-03  2670   0.662E-02    0.208E-01
RMM:   3    -0.181923756292E+03   -0.40231E-04   -0.24453E-04  1609   0.313E-02
  34 F= -.18192376E+03 E0= -.18191566E+03  d E =-.263548E-03
quench:  g(F)=  0.000E+00 g(S)=  0.000E+00 dE (1.order)= 0.000E+00
 bond charge predicted
       N       E                     dE             d eps       ncg     rms          rms(c)
DAV:   1    -0.181923261269E+03    0.45479E-03   -0.20304E-02  2772   0.295E-01    0.112E-01
RMM:   2    -0.181946856906E+03   -0.23596E-01   -0.34112E-03  2784   0.109E-01    0.192E+00
RMM:   3    -0.181922910999E+03    0.23946E-01   -0.21450E-03  2727   0.905E-02    0.306E-01
RMM:   4    -0.181923293412E+03   -0.38241E-03   -0.66670E-04  2581   0.669E-02    0.645E-02
RMM:   5    -0.181923333861E+03   -0.40448E-04   -0.77964E-05  1493   0.182E-02
  35 F= -.18192333E+03 E0= -.18191516E+03  d E =0.422432E-03
quench:  g(F)=  0.000E+00 g(S)=  0.000E+00 dE (1.order)= 0.000E+00
 bond charge predicted
       N       E                     dE             d eps       ncg     rms          rms(c)
DAV:   1    -0.181923223355E+03    0.70058E-04   -0.10436E-02  2790   0.204E-01    0.522E-02
RMM:   2    -0.181924098581E+03   -0.87523E-03   -0.58247E-04  2141   0.468E-02    0.355E-01
RMM:   3    -0.181923625008E+03    0.47357E-03   -0.17921E-04  1554   0.278E-02    0.272E-01
RMM:   4    -0.181923230081E+03    0.39493E-03   -0.11090E-04  1543   0.245E-02    0.407E-02
RMM:   5    -0.181923286141E+03   -0.56060E-04   -0.41717E-05  1445   0.145E-02
  36 F= -.18192329E+03 E0= -.18191509E+03  d E =0.477198E-04
quench:  g(F)=  0.000E+00 g(S)=  0.000E+00 dE (1.order)= 0.000E+00
 bond charge predicted
       N       E                     dE             d eps       ncg     rms          rms(c)
DAV:   1    -0.181923131041E+03    0.99039E-04   -0.10992E-02  2772   0.209E-01    0.449E-02
RMM:   2    -0.181924740313E+03   -0.16093E-02   -0.49567E-04  1892   0.410E-02    0.498E-01
RMM:   3    -0.181923109108E+03    0.16312E-02   -0.16214E-04  1554   0.280E-02    0.103E-01
RMM:   4    -0.181923159047E+03   -0.49938E-04   -0.85714E-05  1527   0.228E-02
  37 F= -.18192316E+03 E0= -.18191491E+03  d E =0.127094E-03
quench:  g(F)=  0.000E+00 g(S)=  0.000E+00 dE (1.order)= 0.000E+00
 bond charge predicted
       N       E                     dE             d eps       ncg     rms          rms(c)
DAV:   1    -0.181922989414E+03    0.11969E-03   -0.15619E-02  2772   0.250E-01    0.563E-02
RMM:   2    -0.181923279760E+03   -0.29035E-03   -0.64577E-04  2149   0.487E-02    0.189E-01
RMM:   3    -0.181922992194E+03    0.28757E-03   -0.17887E-04  1536   0.293E-02    0.650E-02
RMM:   4    -0.181923086147E+03   -0.93953E-04   -0.58160E-05  1469   0.162E-02
  38 F= -.18192309E+03 E0= -.18191479E+03  d E =0.728999E-04
quench:  g(F)=  0.000E+00 g(S)=  0.000E+00 dE (1.order)= 0.000E+00
 bond charge predicted
       N       E                     dE             d eps       ncg     rms          rms(c)
DAV:   1    -0.181922812842E+03    0.17935E-03   -0.21217E-02  2784   0.295E-01    0.100E-01
RMM:   2    -0.181946113330E+03   -0.23300E-01   -0.29966E-03  2770   0.978E-02    0.192E+00
RMM:   3    -0.181922057671E+03    0.24056E-01   -0.19863E-03  2725   0.884E-02    0.201E-01
RMM:   4    -0.181922855339E+03   -0.79767E-03   -0.52754E-04  2209   0.617E-02    0.940E-02
RMM:   5    -0.181922865962E+03   -0.10623E-04   -0.10267E-04  1515   0.214E-02
  39 F= -.18192287E+03 E0= -.18191471E+03  d E =0.220185E-03
quench:  g(F)=  0.000E+00 g(S)=  0.000E+00 dE (1.order)= 0.000E+00
 bond charge predicted
       N       E                     dE             d eps       ncg     rms          rms(c)
DAV:   1    -0.181922574353E+03    0.28099E-03   -0.26867E-02  2772   0.331E-01    0.622E-02
RMM:   2    -0.181923460049E+03   -0.88570E-03   -0.88436E-04  2190   0.532E-02    0.364E-01
RMM:   3    -0.181922762103E+03    0.69795E-03   -0.14916E-04  1541   0.251E-02    0.178E-01
RMM:   4    -0.181922640819E+03    0.12128E-03   -0.13611E-04  1545   0.263E-02    0.702E-02
RMM:   5    -0.181922646064E+03   -0.52450E-05   -0.54046E-05  1414   0.161E-02
  40 F= -.18192265E+03 E0= -.18191445E+03  d E =0.219898E-03
quench:  g(F)=  0.000E+00 g(S)=  0.000E+00 dE (1.order)= 0.000E+00
 bond charge predicted
       N       E                     dE             d eps       ncg     rms          rms(c)
DAV:   1    -0.181922373875E+03    0.26694E-03   -0.32500E-02  2772   0.358E-01    0.691E-02
RMM:   2    -0.181922930234E+03   -0.55636E-03   -0.11269E-03  2369   0.591E-02    0.265E-01
RMM:   3    -0.181922961587E+03   -0.31352E-04   -0.18478E-04  1569   0.272E-02
  41 F= -.18192296E+03 E0= -.18191496E+03  d E =-.315523E-03
quench:  g(F)=  0.000E+00 g(S)=  0.000E+00 dE (1.order)= 0.000E+00
 bond charge predicted
       N       E                     dE             d eps       ncg     rms          rms(c)
DAV:   1    -0.181922135452E+03    0.79478E-03   -0.39596E-02  2772   0.421E-01    0.119E-01
RMM:   2    -0.181936966098E+03   -0.14831E-01   -0.31522E-03  2776   0.110E-01    0.153E+00
RMM:   3    -0.181922651655E+03    0.14314E-01   -0.16127E-03  2731   0.775E-02    0.443E-01
RMM:   4    -0.181922049384E+03    0.60227E-03   -0.66120E-04  2513   0.624E-02    0.644E-02
RMM:   5    -0.181922271320E+03   -0.22194E-03   -0.12045E-04  1544   0.251E-02    0.970E-02
RMM:   6    -0.181922202928E+03    0.68392E-04   -0.64432E-05  1456   0.184E-02
  42 F= -.18192220E+03 E0= -.18191400E+03  d E =0.758659E-03
quench:  g(F)=  0.000E+00 g(S)=  0.000E+00 dE (1.order)= 0.000E+00
 bond charge predicted
       N       E                     dE             d eps       ncg     rms          rms(c)
DAV:   1    -0.181922055025E+03    0.21630E-03   -0.33570E-02  2790   0.358E-01    0.752E-02
RMM:   2    -0.181922607789E+03   -0.55276E-03   -0.13698E-03  2730   0.684E-02    0.260E-01
RMM:   3    -0.181922376050E+03    0.23174E-03   -0.32801E-04  1772   0.360E-02    0.217E-01
RMM:   4    -0.181922151889E+03    0.22416E-03   -0.74474E-05  1491   0.175E-02    0.108E-01
RMM:   5    -0.181922121603E+03    0.30286E-04   -0.60787E-05  1454   0.172E-02
  43 F= -.18192212E+03 E0= -.18191386E+03  d E =0.813253E-04
quench:  g(F)=  0.000E+00 g(S)=  0.000E+00 dE (1.order)= 0.000E+00
 bond charge predicted
       N       E                     dE             d eps       ncg     rms          rms(c)
DAV:   1    -0.181921945732E+03    0.20616E-03   -0.37867E-02  2772   0.383E-01    0.705E-02
RMM:   2    -0.181922296432E+03   -0.35070E-03   -0.12218E-03  2366   0.612E-02    0.199E-01
RMM:   3    -0.181922483897E+03   -0.18746E-03   -0.20006E-04  1560   0.286E-02    0.290E-01
RMM:   4    -0.181922049512E+03    0.43438E-03   -0.10258E-04  1539   0.216E-02    0.127E-01
RMM:   5    -0.181922016821E+03    0.32691E-04   -0.77245E-05  1496   0.200E-02
  44 F= -.18192202E+03 E0= -.18191380E+03  d E =0.104782E-03
quench:  g(F)=  0.000E+00 g(S)=  0.000E+00 dE (1.order)= 0.000E+00
 bond charge predicted
       N       E                     dE             d eps       ncg     rms          rms(c)
DAV:   1    -0.181921843302E+03    0.20621E-03   -0.36621E-02  2772   0.379E-01    0.701E-02
RMM:   2    -0.181922083766E+03   -0.24046E-03   -0.12118E-03  2212   0.594E-02    0.159E-01
RMM:   3    -0.181922473789E+03   -0.39002E-03   -0.16553E-04  1549   0.257E-02    0.309E-01
RMM:   4    -0.181921976404E+03    0.49739E-03   -0.11263E-04  1536   0.224E-02    0.128E-01
RMM:   5    -0.181921922867E+03    0.53537E-04   -0.74382E-05  1495   0.201E-02
  45 F= -.18192192E+03 E0= -.18191365E+03  d E =0.939535E-04
quench:  g(F)=  0.000E+00 g(S)=  0.000E+00 dE (1.order)= 0.000E+00
 bond charge predicted
       N       E                     dE             d eps       ncg     rms          rms(c)
DAV:   1    -0.181921800375E+03    0.17603E-03   -0.23139E-02  2772   0.294E-01    0.663E-02
RMM:   2    -0.181922340791E+03   -0.54042E-03   -0.10857E-03  2552   0.600E-02    0.263E-01
RMM:   3    -0.181922355577E+03   -0.14787E-04   -0.23918E-04  1585   0.312E-02
  46 F= -.18192236E+03 E0= -.18191427E+03  d E =-.432710E-03
quench:  g(F)=  0.000E+00 g(S)=  0.000E+00 dE (1.order)= 0.000E+00
 bond charge predicted
       N       E                     dE             d eps       ncg     rms          rms(c)
DAV:   1    -0.181921798310E+03    0.54248E-03   -0.46774E-03  2829   0.173E-01    0.766E-02
RMM:   2    -0.181931538877E+03   -0.97406E-02   -0.13981E-03  2735   0.721E-02    0.122E+00
RMM:   3    -0.181921871949E+03    0.96669E-02   -0.95430E-04  2650   0.608E-02    0.293E-01
RMM:   4    -0.181921764198E+03    0.10775E-03   -0.32341E-04  1842   0.465E-02    0.399E-02
RMM:   5    -0.181921866867E+03   -0.10267E-03   -0.55310E-05  1494   0.172E-02    0.577E-02
RMM:   6    -0.181921843624E+03    0.23243E-04   -0.21145E-05  1434   0.104E-02
  47 F= -.18192184E+03 E0= -.18191362E+03  d E =0.511953E-03
quench:  g(F)=  0.000E+00 g(S)=  0.000E+00 dE (1.order)= 0.000E+00
 bond charge predicted
       N       E                     dE             d eps       ncg     rms          rms(c)
DAV:   1    -0.181921786861E+03    0.80007E-04   -0.30395E-03  2805   0.110E-01    0.302E-02
RMM:   2    -0.181921893955E+03   -0.10709E-03   -0.16555E-04  1497   0.263E-02    0.123E-01
RMM:   3    -0.181921939862E+03   -0.45907E-04   -0.63663E-05  1459   0.176E-02
  48 F= -.18192194E+03 E0= -.18191381E+03  d E =-.962378E-04
quench:  g(F)=  0.000E+00 g(S)=  0.000E+00 dE (1.order)= 0.000E+00
 bond charge predicted
       N       E                     dE             d eps       ncg     rms          rms(c)
DAV:   1    -0.181921672822E+03    0.22113E-03   -0.52643E-03  2772   0.157E-01    0.380E-02
RMM:   2    -0.181922816903E+03   -0.11441E-02   -0.29086E-04  1654   0.364E-02    0.425E-01
RMM:   3    -0.181921684417E+03    0.11325E-02   -0.12732E-04  1540   0.249E-02    0.120E-01
RMM:   4    -0.181921686488E+03   -0.20715E-05   -0.60710E-05  1506   0.196E-02
  49 F= -.18192169E+03 E0= -.18191345E+03  d E =0.253374E-03
quench:  g(F)=  0.000E+00 g(S)=  0.000E+00 dE (1.order)= 0.000E+00
 bond charge predicted
       N       E                     dE             d eps       ncg     rms          rms(c)
DAV:   1    -0.181921559188E+03    0.12523E-03   -0.69722E-03  2784   0.167E-01    0.478E-02
RMM:   2    -0.181922150274E+03   -0.59109E-03   -0.44196E-04  1973   0.415E-02    0.291E-01
RMM:   3    -0.181921985526E+03    0.16475E-03   -0.15658E-04  1545   0.259E-02    0.277E-01
RMM:   4    -0.181921524914E+03    0.46061E-03   -0.90731E-05  1530   0.217E-02    0.439E-02
RMM:   5    -0.181921569091E+03   -0.44177E-04   -0.37765E-05  1445   0.140E-02
  50 F= -.18192157E+03 E0= -.18191335E+03  d E =0.117397E-03
quench:  g(F)=  0.000E+00 g(S)=  0.000E+00 dE (1.order)= 0.000E+00
 bond charge predicted
       N       E                     dE             d eps       ncg     rms          rms(c)
DAV:   1    -0.181921396123E+03    0.12879E-03   -0.99696E-03  2784   0.198E-01    0.397E-02
RMM:   2    -0.181921538152E+03   -0.14203E-03   -0.31921E-04  1620   0.335E-02    0.140E-01
RMM:   3    -0.181921622868E+03   -0.84715E-04   -0.73727E-05  1468   0.184E-02
  51 F= -.18192162E+03 E0= -.18191351E+03  d E =-.537764E-04
quench:  g(F)=  0.000E+00 g(S)=  0.000E+00 dE (1.order)= 0.000E+00
 bond charge predicted
       N       E                     dE             d eps       ncg     rms          rms(c)
DAV:   1    -0.181921184918E+03    0.35323E-03   -0.13519E-02  2772   0.244E-01    0.613E-02
RMM:   2    -0.181923936871E+03   -0.27520E-02   -0.79978E-04  2555   0.566E-02    0.645E-01
RMM:   3    -0.181921331119E+03    0.26058E-02   -0.31375E-04  1820   0.353E-02    0.232E-01
RMM:   4    -0.181921196157E+03    0.13496E-03   -0.16745E-04  1569   0.319E-02    0.435E-02
RMM:   5    -0.181921243612E+03   -0.47455E-04   -0.49625E-05  1458   0.149E-02
  52 F= -.18192124E+03 E0= -.18191300E+03  d E =0.379256E-03
quench:  g(F)=  0.000E+00 g(S)=  0.000E+00 dE (1.order)= 0.000E+00
 bond charge predicted
       N       E                     dE             d eps       ncg     rms          rms(c)
DAV:   1    -0.181921026765E+03    0.16939E-03   -0.14902E-02  2790   0.243E-01    0.498E-02
RMM:   2    -0.181922150551E+03   -0.11238E-02   -0.55293E-04  1881   0.425E-02    0.414E-01
RMM:   3    -0.181921072020E+03    0.10785E-02   -0.13728E-04  1540   0.253E-02    0.130E-01
RMM:   4    -0.181921072092E+03   -0.72134E-07   -0.90664E-05  1524   0.226E-02
  53 F= -.18192107E+03 E0= -.18191291E+03  d E =0.171520E-03
quench:  g(F)=  0.000E+00 g(S)=  0.000E+00 dE (1.order)= 0.000E+00
 bond charge predicted
       N       E                     dE             d eps       ncg     rms          rms(c)
DAV:   1    -0.181920863545E+03    0.20847E-03   -0.17574E-02  2772   0.262E-01    0.633E-02
RMM:   2    -0.181921579326E+03   -0.71578E-03   -0.83935E-04  2472   0.544E-02    0.308E-01
RMM:   3    -0.181921501242E+03    0.78084E-04   -0.20098E-04  1567   0.280E-02
  54 F= -.18192150E+03 E0= -.18191354E+03  d E =-.429150E-03
quench:  g(F)=  0.000E+00 g(S)=  0.000E+00 dE (1.order)= 0.000E+00
 bond charge predicted
       N       E                     dE             d eps       ncg     rms          rms(c)
DAV:   1    -0.181920650226E+03    0.92910E-03   -0.19715E-02  2772   0.311E-01    0.905E-02
RMM:   2    -0.181926809241E+03   -0.61590E-02   -0.16628E-03  2767   0.836E-02    0.980E-01
RMM:   3    -0.181921261558E+03    0.55477E-02   -0.78956E-04  2610   0.541E-02    0.398E-01
RMM:   4    -0.181920608791E+03    0.65277E-03   -0.37322E-04  1928   0.463E-02    0.500E-02
RMM:   5    -0.181920750082E+03   -0.14129E-03   -0.86265E-05  1516   0.215E-02    0.647E-02
RMM:   6    -0.181920715710E+03    0.34372E-04   -0.34242E-05  1439   0.133E-02
  55 F= -.18192072E+03 E0= -.18191253E+03  d E =0.785532E-03
quench:  g(F)=  0.000E+00 g(S)=  0.000E+00 dE (1.order)= 0.000E+00
 bond charge predicted
       N       E                     dE             d eps       ncg     rms          rms(c)
DAV:   1    -0.181920602375E+03    0.14771E-03   -0.13415E-02  2772   0.225E-01    0.473E-02
RMM:   2    -0.181920903959E+03   -0.30158E-03   -0.48699E-04  1768   0.412E-02    0.201E-01
RMM:   3    -0.181920926593E+03   -0.22634E-04   -0.10152E-04  1485   0.207E-02
  56 F= -.18192093E+03 E0= -.18191283E+03  d E =-.210883E-03
quench:  g(F)=  0.000E+00 g(S)=  0.000E+00 dE (1.order)= 0.000E+00
 bond charge predicted
       N       E                     dE             d eps       ncg     rms          rms(c)
DAV:   1    -0.181920422624E+03    0.48134E-03   -0.14394E-02  2772   0.254E-01    0.645E-02
RMM:   2    -0.181921244439E+03   -0.82181E-03   -0.76903E-04  2552   0.572E-02    0.344E-01
RMM:   3    -0.181921233996E+03    0.10443E-04   -0.23386E-04  1613   0.295E-02
  57 F= -.18192123E+03 E0= -.18191276E+03  d E =-.307403E-03
quench:  g(F)=  0.000E+00 g(S)=  0.000E+00 dE (1.order)= 0.000E+00
 bond charge predicted
       N       E                     dE             d eps       ncg     rms          rms(c)
DAV:   1    -0.181920322318E+03    0.92212E-03   -0.91902E-03  2772   0.225E-01    0.546E-02
RMM:   2    -0.181920603677E+03   -0.28136E-03   -0.48644E-04  1901   0.498E-02    0.174E-01
RMM:   3    -0.181920516617E+03    0.87059E-04   -0.13751E-04  1521   0.257E-02
  58 F= -.18192052E+03 E0= -.18191223E+03  d E =0.717379E-03
quench:  g(F)=  0.000E+00 g(S)=  0.000E+00 dE (1.order)= 0.000E+00
 bond charge predicted
       N       E                     dE             d eps       ncg     rms          rms(c)
DAV:   1    -0.181920355401E+03    0.24828E-03   -0.63794E-03  2814   0.182E-01    0.132E-01
RMM:   2    -0.181979009182E+03   -0.58654E-01   -0.57292E-03  2772   0.128E-01    0.306E+00
RMM:   3    -0.181919041068E+03    0.59968E-01   -0.47671E-03  2754   0.136E-01    0.227E-01
RMM:   4    -0.181920280664E+03   -0.12396E-02   -0.10143E-03  2704   0.885E-02    0.101E-01
RMM:   5    -0.181920305924E+03   -0.25260E-04   -0.82711E-05  1529   0.203E-02
  59 F= -.18192031E+03 E0= -.18191208E+03  d E =0.210693E-03
quench:  g(F)=  0.000E+00 g(S)=  0.000E+00 dE (1.order)= 0.000E+00
 bond charge predicted
       N       E                     dE             d eps       ncg     rms          rms(c)
DAV:   1    -0.181920151363E+03    0.12930E-03   -0.75133E-03  2844   0.178E-01    0.467E-02
RMM:   2    -0.181921346089E+03   -0.11947E-02   -0.41451E-04  1833   0.396E-02    0.432E-01
RMM:   3    -0.181920278802E+03    0.10673E-02   -0.16441E-04  1555   0.274E-02    0.176E-01
RMM:   4    -0.181920170598E+03    0.10820E-03   -0.95391E-05  1534   0.234E-02    0.378E-02
RMM:   5    -0.181920189387E+03   -0.18789E-04   -0.25825E-05  1410   0.109E-02
  60 F= -.18192019E+03 E0= -.18191195E+03  d E =0.116537E-03
quench:  g(F)=  0.000E+00 g(S)=  0.000E+00 dE (1.order)= 0.000E+00
 bond charge predicted
       N       E                     dE             d eps       ncg     rms          rms(c)
DAV:   1    -0.181920002630E+03    0.16797E-03   -0.96753E-03  2772   0.196E-01    0.418E-02
RMM:   2    -0.181920143456E+03   -0.14083E-03   -0.33217E-04  1652   0.336E-02    0.133E-01
RMM:   3    -0.181920072910E+03    0.70546E-04   -0.87845E-05  1481   0.211E-02
  61 F= -.18192007E+03 E0= -.18191195E+03  d E =0.116477E-03
quench:  g(F)=  0.000E+00 g(S)=  0.000E+00 dE (1.order)= 0.000E+00
 bond charge predicted
       N       E                     dE             d eps       ncg     rms          rms(c)
DAV:   1    -0.181919838782E+03    0.30467E-03   -0.12486E-02  2772   0.231E-01    0.103E-01
RMM:   2    -0.181949911842E+03   -0.30073E-01   -0.32816E-03  2769   0.997E-02    0.216E+00
RMM:   3    -0.181919149327E+03    0.30763E-01   -0.25563E-03  2730   0.100E-01    0.234E-01
RMM:   4    -0.181919783834E+03   -0.63451E-03   -0.56341E-04  2275   0.668E-02    0.742E-02
RMM:   5    -0.181919851704E+03   -0.67870E-04   -0.67868E-05  1522   0.188E-02
  62 F= -.18191985E+03 E0= -.18191170E+03  d E =0.221206E-03
quench:  g(F)=  0.000E+00 g(S)=  0.000E+00 dE (1.order)= 0.000E+00
 bond charge predicted
       N       E                     dE             d eps       ncg     rms          rms(c)
DAV:   1    -0.181919602291E+03    0.18154E-03   -0.13790E-02  2799   0.235E-01    0.477E-02
RMM:   2    -0.181920586795E+03   -0.98450E-03   -0.48261E-04  1794   0.400E-02    0.391E-01
RMM:   3    -0.181919634332E+03    0.95246E-03   -0.11862E-04  1522   0.238E-02    0.110E-01
RMM:   4    -0.181919639035E+03   -0.47027E-05   -0.79685E-05  1517   0.210E-02
  63 F= -.18191964E+03 E0= -.18191145E+03  d E =0.212669E-03
quench:  g(F)=  0.000E+00 g(S)=  0.000E+00 dE (1.order)= 0.000E+00
 bond charge predicted
       N       E                     dE             d eps       ncg     rms          rms(c)
DAV:   1    -0.181919416750E+03    0.21758E-03   -0.13721E-02  2772   0.225E-01    0.541E-02
RMM:   2    -0.181919634769E+03   -0.21802E-03   -0.58121E-04  1909   0.447E-02    0.164E-01
RMM:   3    -0.181919668513E+03   -0.33744E-04   -0.14864E-04  1528   0.265E-02
  64 F= -.18191967E+03 E0= -.18191157E+03  d E =-.294786E-04
quench:  g(F)=  0.000E+00 g(S)=  0.000E+00 dE (1.order)= 0.000E+00
 bond charge predicted
       N       E                     dE             d eps       ncg     rms          rms(c)
DAV:   1    -0.181919283078E+03    0.35169E-03   -0.12474E-02  2790   0.241E-01    0.976E-02
RMM:   2    -0.181939730395E+03   -0.20447E-01   -0.26458E-03  2772   0.940E-02    0.179E+00
RMM:   3    -0.181918791842E+03    0.20939E-01   -0.17989E-03  2711   0.833E-02    0.265E-01
RMM:   4    -0.181919220181E+03   -0.42834E-03   -0.50025E-04  2181   0.593E-02    0.555E-02
RMM:   5    -0.181919319731E+03   -0.99549E-04   -0.65059E-05  1500   0.184E-02
  65 F= -.18191932E+03 E0= -.18191121E+03  d E =0.348783E-03
quench:  g(F)=  0.000E+00 g(S)=  0.000E+00 dE (1.order)= 0.000E+00
 bond charge predicted
       N       E                     dE             d eps       ncg     rms          rms(c)
DAV:   1    -0.181919202962E+03    0.17219E-04   -0.59149E-03  2829   0.150E-01    0.373E-02
RMM:   2    -0.181919407206E+03   -0.20424E-03   -0.27706E-04  1605   0.319E-02    0.169E-01
RMM:   3    -0.181919404595E+03    0.26114E-05   -0.65232E-05  1466   0.171E-02
  66 F= -.18191940E+03 E0= -.18191134E+03  d E =-.848640E-04
quench:  g(F)=  0.000E+00 g(S)=  0.000E+00 dE (1.order)= 0.000E+00
 bond charge predicted
       N       E                     dE             d eps       ncg     rms          rms(c)
DAV:   1    -0.181919123034E+03    0.28417E-03   -0.43493E-03  2772   0.148E-01    0.415E-02
RMM:   2    -0.181920165423E+03   -0.10424E-02   -0.30398E-04  1687   0.380E-02    0.403E-01
RMM:   3    -0.181919212910E+03    0.95251E-03   -0.13110E-04  1541   0.251E-02    0.158E-01
RMM:   4    -0.181919139439E+03    0.73471E-04   -0.74506E-05  1521   0.209E-02
  67 F= -.18191914E+03 E0= -.18191095E+03  d E =0.265156E-03
quench:  g(F)=  0.000E+00 g(S)=  0.000E+00 dE (1.order)= 0.000E+00
 bond charge predicted
       N       E                     dE             d eps       ncg     rms          rms(c)
DAV:   1    -0.181919074512E+03    0.13840E-03   -0.28775E-03  2790   0.104E-01    0.338E-02
RMM:   2    -0.181919557264E+03   -0.48275E-03   -0.22100E-04  1569   0.293E-02    0.265E-01
RMM:   3    -0.181919182684E+03    0.37458E-03   -0.76081E-05  1483   0.185E-02    0.147E-01
RMM:   4    -0.181919067128E+03    0.11556E-03   -0.50719E-05  1476   0.165E-02    0.279E-02
RMM:   5    -0.181919084087E+03   -0.16959E-04   -0.15629E-05  1399   0.882E-03
  68 F= -.18191908E+03 E0= -.18191089E+03  d E =0.553519E-04
quench:  g(F)=  0.000E+00 g(S)=  0.000E+00 dE (1.order)= 0.000E+00
 bond charge predicted
       N       E                     dE             d eps       ncg     rms          rms(c)
DAV:   1    -0.181918986121E+03    0.81007E-04   -0.37645E-03  2772   0.121E-01    0.278E-02
RMM:   2    -0.181919052261E+03   -0.66141E-04   -0.14347E-04  1466   0.238E-02
  69 F= -.18191905E+03 E0= -.18191080E+03  d E =0.318256E-04
quench:  g(F)=  0.000E+00 g(S)=  0.000E+00 dE (1.order)= 0.000E+00
 bond charge predicted
       N       E                     dE             d eps       ncg     rms          rms(c)
DAV:   1    -0.181918880685E+03    0.10544E-03   -0.47416E-03  2772   0.149E-01    0.776E-02
RMM:   2    -0.181938451894E+03   -0.19571E-01   -0.20159E-03  2762   0.762E-02    0.175E+00
RMM:   3    -0.181918174620E+03    0.20277E-01   -0.16221E-03  2709   0.806E-02    0.154E-01
RMM:   4    -0.181918853759E+03   -0.67914E-03   -0.33344E-04  1840   0.528E-02    0.678E-02
RMM:   5    -0.181918873074E+03   -0.19315E-04   -0.46411E-05  1494   0.156E-02
  70 F= -.18191887E+03 E0= -.18191072E+03  d E =0.179187E-03
quench:  g(F)=  0.000E+00 g(S)=  0.000E+00 dE (1.order)= 0.000E+00
 bond charge predicted
       N       E                     dE             d eps       ncg     rms          rms(c)
DAV:   1    -0.181918735580E+03    0.11818E-03   -0.56795E-03  2814   0.151E-01    0.314E-02
RMM:   2    -0.181918952848E+03   -0.21727E-03   -0.19112E-04  1542   0.264E-02    0.185E-01
RMM:   3    -0.181918807977E+03    0.14487E-03   -0.46288E-05  1460   0.148E-02    0.112E-01
RMM:   4    -0.181918748340E+03    0.59637E-04   -0.34260E-05  1448   0.134E-02
  71 F= -.18191875E+03 E0= -.18191056E+03  d E =0.124734E-03
quench:  g(F)=  0.000E+00 g(S)=  0.000E+00 dE (1.order)= 0.000E+00
 bond charge predicted
       N       E                     dE             d eps       ncg     rms          rms(c)
DAV:   1    -0.181918597902E+03    0.21008E-03   -0.65401E-03  2790   0.159E-01    0.443E-02
RMM:   2    -0.181918890442E+03   -0.29254E-03   -0.36167E-04  1732   0.378E-02    0.196E-01
RMM:   3    -0.181918562353E+03    0.32809E-03   -0.15187E-04  1527   0.282E-02    0.357E-02
RMM:   4    -0.181918614458E+03   -0.52106E-04   -0.33302E-05  1449   0.127E-02
  72 F= -.18191861E+03 E0= -.18191041E+03  d E =0.133881E-03
quench:  g(F)=  0.000E+00 g(S)=  0.000E+00 dE (1.order)= 0.000E+00
 bond charge predicted
       N       E                     dE             d eps       ncg     rms          rms(c)
DAV:   1    -0.181918496653E+03    0.65699E-04   -0.82242E-03  2790   0.185E-01    0.117E-01
RMM:   2    -0.181965688585E+03   -0.47192E-01   -0.46372E-03  2774   0.114E-01    0.274E+00
RMM:   3    -0.181917167877E+03    0.48521E-01   -0.38684E-03  2748   0.123E-01    0.171E-01
RMM:   4    -0.181918506609E+03   -0.13387E-02   -0.79787E-04  2574   0.794E-02    0.129E-01
RMM:   5    -0.181918448512E+03    0.58097E-04   -0.91635E-05  1531   0.207E-02
  73 F= -.18191845E+03 E0= -.18191031E+03  d E =0.165946E-03
quench:  g(F)=  0.000E+00 g(S)=  0.000E+00 dE (1.order)= 0.000E+00
 bond charge predicted
       N       E                     dE             d eps       ncg     rms          rms(c)
DAV:   1    -0.181918257885E+03    0.24872E-03   -0.83589E-03  2844   0.185E-01    0.479E-02
RMM:   2    -0.181919943994E+03   -0.16861E-02   -0.50637E-04  1985   0.421E-02    0.522E-01
RMM:   3    -0.181918287315E+03    0.16567E-02   -0.19559E-04  1560   0.301E-02    0.143E-01
RMM:   4    -0.181918275371E+03    0.11944E-04   -0.10738E-04  1540   0.254E-02
  74 F= -.18191828E+03 E0= -.18191010E+03  d E =0.173141E-03
quench:  g(F)=  0.000E+00 g(S)=  0.000E+00 dE (1.order)= 0.000E+00
 bond charge predicted
       N       E                     dE             d eps       ncg     rms          rms(c)
DAV:   1    -0.181918117537E+03    0.16978E-03   -0.84433E-03  2772   0.182E-01    0.542E-02
RMM:   2    -0.181918653338E+03   -0.53580E-03   -0.58451E-04  2256   0.472E-02    0.270E-01
RMM:   3    -0.181918583847E+03    0.69491E-04   -0.21891E-04  1560   0.305E-02
  75 F= -.18191858E+03 E0= -.18191055E+03  d E =-.308476E-03
quench:  g(F)=  0.000E+00 g(S)=  0.000E+00 dE (1.order)= 0.000E+00
 bond charge predicted
       N       E                     dE             d eps       ncg     rms          rms(c)
DAV:   1    -0.181918010399E+03    0.64294E-03   -0.47557E-03  2787   0.170E-01    0.557E-02
RMM:   2    -0.181922463232E+03   -0.44528E-02   -0.72330E-04  2534   0.547E-02    0.823E-01
RMM:   3    -0.181917992440E+03    0.44708E-02   -0.43319E-04  2104   0.416E-02    0.196E-01
RMM:   4    -0.181918030648E+03   -0.38208E-04   -0.15667E-04  1571   0.329E-02
  76 F= -.18191803E+03 E0= -.18190989E+03  d E =0.553199E-03
quench:  g(F)=  0.000E+00 g(S)=  0.000E+00 dE (1.order)= 0.000E+00
 bond charge predicted
       N       E                     dE             d eps       ncg     rms          rms(c)
DAV:   1    -0.181918022141E+03   -0.29701E-04   -0.12029E-03  2799   0.766E-02    0.413E-02
RMM:   2    -0.181918278521E+03   -0.25638E-03   -0.29620E-04  1741   0.362E-02    0.180E-01
RMM:   3    -0.181918261480E+03    0.17041E-04   -0.15213E-04  1526   0.270E-02
  77 F= -.18191826E+03 E0= -.18191022E+03  d E =-.230832E-03
quench:  g(F)=  0.000E+00 g(S)=  0.000E+00 dE (1.order)= 0.000E+00
 bond charge predicted
       N       E                     dE             d eps       ncg     rms          rms(c)
DAV:   1    -0.181917937422E+03    0.34110E-03   -0.18234E-03  2778   0.110E-01    0.404E-02
RMM:   2    -0.181919514436E+03   -0.15770E-02   -0.32426E-04  1808   0.377E-02    0.499E-01
RMM:   3    -0.181918010808E+03    0.15036E-02   -0.18316E-04  1558   0.292E-02    0.169E-01
RMM:   4    -0.181917950706E+03    0.60102E-04   -0.91337E-05  1531   0.238E-02
  78 F= -.18191795E+03 E0= -.18190977E+03  d E =0.310774E-03
quench:  g(F)=  0.000E+00 g(S)=  0.000E+00 dE (1.order)= 0.000E+00
 bond charge predicted
       N       E                     dE             d eps       ncg     rms          rms(c)
DAV:   1    -0.181917888099E+03    0.12271E-03   -0.16445E-03  2790   0.833E-02    0.314E-02
RMM:   2    -0.181918051124E+03   -0.16303E-03   -0.15873E-04  1530   0.269E-02    0.149E-01
RMM:   3    -0.181917967597E+03    0.83527E-04   -0.83253E-05  1474   0.207E-02
  79 F= -.18191797E+03 E0= -.18190989E+03  d E =-.168915E-04
quench:  g(F)=  0.000E+00 g(S)=  0.000E+00 dE (1.order)= 0.000E+00
 bond charge predicted
       N       E                     dE             d eps       ncg     rms          rms(c)
DAV:   1    -0.181917792732E+03    0.25839E-03   -0.22459E-03  2772   0.106E-01    0.341E-02
RMM:   2    -0.181919203063E+03   -0.14103E-02   -0.24114E-04  1620   0.321E-02    0.465E-01
RMM:   3    -0.181917770464E+03    0.14326E-02   -0.14435E-04  1555   0.265E-02    0.123E-01
RMM:   4    -0.181917790122E+03   -0.19658E-04   -0.59841E-05  1513   0.197E-02
  80 F= -.18191779E+03 E0= -.18190965E+03  d E =0.177475E-03
quench:  g(F)=  0.000E+00 g(S)=  0.000E+00 dE (1.order)= 0.000E+00
 bond charge predicted
       N       E                     dE             d eps       ncg     rms          rms(c)
DAV:   1    -0.181917702061E+03    0.68403E-04   -0.26213E-03  2772   0.103E-01    0.305E-02
RMM:   2    -0.181917797869E+03   -0.95808E-04   -0.15423E-04  1488   0.261E-02
  81 F= -.18191780E+03 E0= -.18190966E+03  d E =-.774667E-05
quench:  g(F)=  0.000E+00 g(S)=  0.000E+00 dE (1.order)= 0.000E+00
 bond charge predicted
       N       E                     dE             d eps       ncg     rms          rms(c)
DAV:   1    -0.181917735830E+03   -0.33769E-04   -0.40550E-03  2817   0.154E-01    0.171E-01
RMM:   2    -0.182030383285E+03   -0.11265E+00   -0.10460E-02  2766   0.166E-01    0.421E+00
RMM:   3    -0.181916181788E+03    0.11420E+00   -0.88986E-03  2766   0.183E-01    0.215E-01
RMM:   4    -0.181917714600E+03   -0.15328E-02   -0.16133E-03  2744   0.112E-01    0.183E-01
RMM:   5    -0.181917553610E+03    0.16099E-03   -0.16446E-04  1571   0.277E-02    0.928E-02
RMM:   6    -0.181917578783E+03   -0.25173E-04   -0.74568E-05  1509   0.191E-02
  82 F= -.18191758E+03 E0= -.18190940E+03  d E =0.219086E-03
quench:  g(F)=  0.000E+00 g(S)=  0.000E+00 dE (1.order)= 0.000E+00
 bond charge predicted
       N       E                     dE             d eps       ncg     rms          rms(c)
DAV:   1    -0.181917444180E+03    0.10943E-03   -0.43210E-03  2844   0.132E-01    0.382E-02
RMM:   2    -0.181918667547E+03   -0.12234E-02   -0.29277E-04  1688   0.329E-02    0.443E-01
RMM:   3    -0.181917463558E+03    0.12040E-02   -0.13941E-04  1548   0.260E-02    0.120E-01
RMM:   4    -0.181917456785E+03    0.67723E-05   -0.70350E-05  1513   0.207E-02
  83 F= -.18191746E+03 E0= -.18190934E+03  d E =0.121997E-03
quench:  g(F)=  0.000E+00 g(S)=  0.000E+00 dE (1.order)= 0.000E+00
 bond charge predicted
       N       E                     dE             d eps       ncg     rms          rms(c)
DAV:   1    -0.181917333330E+03    0.13023E-03   -0.48056E-03  2772   0.139E-01    0.478E-02
RMM:   2    -0.181917874206E+03   -0.54088E-03   -0.42995E-04  1999   0.416E-02    0.261E-01
RMM:   3    -0.181917687449E+03    0.18676E-03   -0.19454E-04  1556   0.296E-02    0.266E-01
RMM:   4    -0.181917305759E+03    0.38169E-03   -0.65773E-05  1511   0.185E-02    0.447E-02
RMM:   5    -0.181917336035E+03   -0.30276E-04   -0.28966E-05  1443   0.128E-02
  84 F= -.18191734E+03 E0= -.18190921E+03  d E =0.120750E-03
quench:  g(F)=  0.000E+00 g(S)=  0.000E+00 dE (1.order)= 0.000E+00
 bond charge predicted
       N       E                     dE             d eps       ncg     rms          rms(c)
DAV:   1    -0.181917208828E+03    0.96930E-04   -0.55098E-03  2772   0.147E-01    0.302E-02
RMM:   2    -0.181917261983E+03   -0.53154E-04   -0.17478E-04  1490   0.251E-02
  85 F= -.18191726E+03 E0= -.18190914E+03  d E =0.740524E-04
quench:  g(F)=  0.000E+00 g(S)=  0.000E+00 dE (1.order)= 0.000E+00
 bond charge predicted
       N       E                     dE             d eps       ncg     rms          rms(c)
DAV:   1    -0.181917210533E+03   -0.17042E-05   -0.51219E-03  2799   0.157E-01    0.147E-01
RMM:   2    -0.181999910074E+03   -0.82700E-01   -0.77901E-03  2772   0.144E-01    0.358E+00
RMM:   3    -0.181915587319E+03    0.84323E-01   -0.66417E-03  2756   0.161E-01    0.177E-01
RMM:   4    -0.181917144886E+03   -0.15576E-02   -0.11547E-03  2727   0.975E-02    0.135E-01
RMM:   5    -0.181917076630E+03    0.68255E-04   -0.10842E-04  1546   0.224E-02
  86 F= -.18191708E+03 E0= -.18190893E+03  d E =0.185352E-03
quench:  g(F)=  0.000E+00 g(S)=  0.000E+00 dE (1.order)= 0.000E+00
 bond charge predicted
       N       E                     dE             d eps       ncg     rms          rms(c)
DAV:   1    -0.181917058106E+03    0.86779E-04   -0.26925E-03  2850   0.113E-01    0.651E-02
RMM:   2    -0.181923376703E+03   -0.63186E-02   -0.10709E-03  2696   0.592E-02    0.999E-01
RMM:   3    -0.181917101981E+03    0.62747E-02   -0.65587E-04  2480   0.514E-02    0.278E-01
RMM:   4    -0.181916968406E+03    0.13357E-03   -0.27235E-04  1738   0.412E-02    0.320E-02
RMM:   5    -0.181917066105E+03   -0.97698E-04   -0.50403E-05  1491   0.162E-02
  87 F= -.18191707E+03 E0= -.18190894E+03  d E =0.105259E-04
quench:  g(F)=  0.000E+00 g(S)=  0.000E+00 dE (1.order)= 0.000E+00
 bond charge predicted
       N       E                     dE             d eps       ncg     rms          rms(c)
DAV:   1    -0.181917007754E+03   -0.39348E-04   -0.15504E-03  2799   0.787E-02    0.232E-02
RMM:   2    -0.181917558237E+03   -0.55048E-03   -0.12034E-04  1503   0.211E-02    0.290E-01
RMM:   3    -0.181917015095E+03    0.54314E-03   -0.54556E-05  1478   0.163E-02    0.700E-02
RMM:   4    -0.181917013341E+03    0.17536E-05   -0.26433E-05  1449   0.127E-02
  88 F= -.18191701E+03 E0= -.18190887E+03  d E =0.527631E-04
quench:  g(F)=  0.000E+00 g(S)=  0.000E+00 dE (1.order)= 0.000E+00
 bond charge predicted
       N       E                     dE             d eps       ncg     rms          rms(c)
DAV:   1    -0.181916950704E+03    0.64391E-04   -0.19479E-03  2790   0.870E-02    0.246E-02
RMM:   2    -0.181917057683E+03   -0.10698E-03   -0.10620E-04  1471   0.210E-02    0.122E-01
RMM:   3    -0.181917029593E+03    0.28090E-04   -0.46563E-05  1455   0.152E-02
  89 F= -.18191703E+03 E0= -.18190895E+03  d E =-.162518E-04
quench:  g(F)=  0.000E+00 g(S)=  0.000E+00 dE (1.order)= 0.000E+00
 bond charge predicted
       N       E                     dE             d eps       ncg     rms          rms(c)
DAV:   1    -0.181916868912E+03    0.18877E-03   -0.23022E-03  2772   0.106E-01    0.289E-02
RMM:   2    -0.181917611163E+03   -0.74225E-03   -0.16280E-04  1558   0.273E-02    0.336E-01
RMM:   3    -0.181916880553E+03    0.73061E-03   -0.83771E-05  1511   0.203E-02    0.107E-01
RMM:   4    -0.181916872047E+03    0.85061E-05   -0.36960E-05  1491   0.153E-02
  90 F= -.18191687E+03 E0= -.18190874E+03  d E =0.157546E-03
quench:  g(F)=  0.000E+00 g(S)=  0.000E+00 dE (1.order)= 0.000E+00
 bond charge predicted
       N       E                     dE             d eps       ncg     rms          rms(c)
DAV:   1    -0.181916811378E+03    0.69175E-04   -0.20733E-03  2772   0.913E-02    0.290E-02
RMM:   2    -0.181916895800E+03   -0.84422E-04   -0.14114E-04  1473   0.249E-02
  91 F= -.18191690E+03 E0= -.18190875E+03  d E =-.237528E-04
quench:  g(F)=  0.000E+00 g(S)=  0.000E+00 dE (1.order)= 0.000E+00
 bond charge predicted
       N       E                     dE             d eps       ncg     rms          rms(c)
DAV:   1    -0.181916775616E+03    0.35762E-04   -0.24265E-03  2781   0.121E-01    0.991E-02
RMM:   2    -0.181952950941E+03   -0.36175E-01   -0.34645E-03  2757   0.972E-02    0.238E+00
RMM:   3    -0.181915630594E+03    0.37320E-01   -0.29071E-03  2738   0.107E-01    0.168E-01
RMM:   4    -0.181916746701E+03   -0.11161E-02   -0.58589E-04  2298   0.686E-02    0.912E-02
RMM:   5    -0.181916732997E+03    0.13704E-04   -0.62471E-05  1508   0.185E-02
  92 F= -.18191673E+03 E0= -.18190858E+03  d E =0.162803E-03
quench:  g(F)=  0.000E+00 g(S)=  0.000E+00 dE (1.order)= 0.000E+00
 bond charge predicted
       N       E                     dE             d eps       ncg     rms          rms(c)
DAV:   1    -0.181916656610E+03    0.90091E-04   -0.22572E-03  2844   0.990E-02    0.282E-02
RMM:   2    -0.181917581548E+03   -0.92494E-03   -0.17264E-04  1560   0.256E-02    0.384E-01
RMM:   3    -0.181916635779E+03    0.94577E-03   -0.91705E-05  1510   0.214E-02    0.792E-02
RMM:   4    -0.181916661647E+03   -0.25868E-04   -0.40358E-05  1481   0.160E-02
  93 F= -.18191666E+03 E0= -.18190853E+03  d E =0.713502E-04
quench:  g(F)=  0.000E+00 g(S)=  0.000E+00 dE (1.order)= 0.000E+00
 bond charge predicted
       N       E                     dE             d eps       ncg     rms          rms(c)
DAV:   1    -0.181916587955E+03    0.47824E-04   -0.22319E-03  2772   0.934E-02    0.328E-02
RMM:   2    -0.181916826983E+03   -0.23903E-03   -0.19854E-04  1560   0.289E-02    0.176E-01
RMM:   3    -0.181916815426E+03    0.11557E-04   -0.88548E-05  1494   0.204E-02
  94 F= -.18191682E+03 E0= -.18190882E+03  d E =-.153779E-03
quench:  g(F)=  0.000E+00 g(S)=  0.000E+00 dE (1.order)= 0.000E+00
 bond charge predicted
       N       E                     dE             d eps       ncg     rms          rms(c)
DAV:   1    -0.181916498431E+03    0.32855E-03   -0.27558E-03  2772   0.127E-01    0.367E-02
RMM:   2    -0.181917732807E+03   -0.12344E-02   -0.25985E-04  1653   0.357E-02    0.439E-01
RMM:   3    -0.181916550521E+03    0.11823E-02   -0.14244E-04  1551   0.264E-02    0.147E-01
RMM:   4    -0.181916508543E+03    0.41978E-04   -0.63482E-05  1514   0.201E-02
  95 F= -.18191651E+03 E0= -.18190836E+03  d E =0.306884E-03
quench:  g(F)=  0.000E+00 g(S)=  0.000E+00 dE (1.order)= 0.000E+00
 bond charge predicted
       N       E                     dE             d eps       ncg     rms          rms(c)
DAV:   1    -0.181916486574E+03    0.63947E-04   -0.10877E-03  2811   0.679E-02    0.293E-02
RMM:   2    -0.181916661634E+03   -0.17506E-03   -0.14589E-04  1500   0.256E-02    0.155E-01
RMM:   3    -0.181916712204E+03   -0.50570E-04   -0.65412E-05  1468   0.172E-02
  96 F= -.18191671E+03 E0= -.18190869E+03  d E =-.203661E-03
quench:  g(F)=  0.000E+00 g(S)=  0.000E+00 dE (1.order)= 0.000E+00
 bond charge predicted
       N       E                     dE             d eps       ncg     rms          rms(c)
DAV:   1    -0.181916437641E+03    0.22399E-03   -0.12213E-03  2709   0.960E-02    0.274E-02
RMM:   2    -0.181916636652E+03   -0.19901E-03   -0.12679E-04  1510   0.262E-02    0.161E-01
RMM:   3    -0.181916599788E+03    0.36864E-04   -0.62802E-05  1475   0.175E-02
  97 F= -.18191660E+03 E0= -.18190832E+03  d E =0.112416E-03
quench:  g(F)=  0.000E+00 g(S)=  0.000E+00 dE (1.order)= 0.000E+00
 bond charge predicted
       N       E                     dE             d eps       ncg     rms          rms(c)
DAV:   1    -0.181916428491E+03    0.20816E-03   -0.58418E-04  1971   0.694E-02    0.209E-02
RMM:   2    -0.181916511587E+03   -0.83096E-04   -0.76255E-05  1441   0.204E-02
  98 F= -.18191651E+03 E0= -.18190833E+03  d E =0.882011E-04
quench:  g(F)=  0.000E+00 g(S)=  0.000E+00 dE (1.order)= 0.000E+00
 bond charge predicted
       N       E                     dE             d eps       ncg     rms          rms(c)
DAV:   1    -0.181916470801E+03   -0.42310E-04   -0.46398E-04  1944   0.710E-02    0.101E-01
RMM:   2    -0.181953850508E+03   -0.37380E-01   -0.34350E-03  2727   0.957E-02    0.242E+00
RMM:   3    -0.181915316429E+03    0.38534E-01   -0.30569E-03  2743   0.110E-01    0.136E-01
RMM:   4    -0.181916445880E+03   -0.11295E-02   -0.55874E-04  2213   0.691E-02    0.831E-02
RMM:   5    -0.181916432924E+03    0.12955E-04   -0.52739E-05  1498   0.161E-02
  99 F= -.18191643E+03 E0= -.18190838E+03  d E =0.786628E-04
quench:  g(F)=  0.000E+00 g(S)=  0.000E+00 dE (1.order)= 0.000E+00
 bond charge predicted
       N       E                     dE             d eps       ncg     rms          rms(c)
DAV:   1    -0.181916402427E+03    0.43452E-04   -0.37247E-04  2331   0.508E-02    0.299E-02
RMM:   2    -0.181918038152E+03   -0.16357E-02   -0.21803E-04  1627   0.279E-02    0.510E-01
RMM:   3    -0.181916336280E+03    0.17019E-02   -0.14847E-04  1555   0.274E-02    0.851E-02
RMM:   4    -0.181916407302E+03   -0.71021E-04   -0.59012E-05  1510   0.200E-02
 100 F= -.18191641E+03 E0= -.18190825E+03  d E =0.256224E-04
quench:  g(F)=  0.000E+00 g(S)=  0.000E+00 dE (1.order)= 0.000E+00
 bond charge predicted
       N       E                     dE             d eps       ncg     rms          rms(c)
DAV:   1    -0.181916384070E+03   -0.47790E-04   -0.51664E-04  2394   0.484E-02    0.229E-02
RMM:   2    -0.181916519291E+03   -0.13522E-03   -0.88295E-05  1493   0.205E-02    0.133E-01
RMM:   3    -0.181916463553E+03    0.55739E-04   -0.50726E-05  1464   0.160E-02
 101 F= -.18191646E+03 E0= -.18190823E+03  d E =-.562511E-04
quench:  g(F)=  0.000E+00 g(S)=  0.000E+00 dE (1.order)= 0.000E+00
 bond charge predicted
       N       E                     dE             d eps       ncg     rms          rms(c)
DAV:   1    -0.181916348128E+03    0.17116E-03   -0.96616E-04  2622   0.759E-02    0.251E-02
RMM:   2    -0.181917267892E+03   -0.91976E-03   -0.13506E-04  1529   0.254E-02    0.383E-01
RMM:   3    -0.181916323514E+03    0.94438E-03   -0.90844E-05  1516   0.214E-02    0.811E-02
RMM:   4    -0.181916352874E+03   -0.29360E-04   -0.34286E-05  1485   0.154E-02
 102 F= -.18191635E+03 E0= -.18190825E+03  d E =0.110679E-03
quench:  g(F)=  0.000E+00 g(S)=  0.000E+00 dE (1.order)= 0.000E+00
 bond charge predicted
       N       E                     dE             d eps       ncg     rms          rms(c)
DAV:   1    -0.181916335936E+03   -0.12421E-04   -0.74537E-04  2646   0.568E-02    0.200E-02
RMM:   2    -0.181916377775E+03   -0.41840E-04   -0.67619E-05  1410   0.178E-02
 103 F= -.18191638E+03 E0= -.18190827E+03  d E =-.249014E-04
quench:  g(F)=  0.000E+00 g(S)=  0.000E+00 dE (1.order)= 0.000E+00
 bond charge predicted
       N       E                     dE             d eps       ncg     rms          rms(c)
DAV:   1    -0.181916345294E+03   -0.93587E-05   -0.90895E-04  2781   0.783E-02    0.734E-02
RMM:   2    -0.181936077470E+03   -0.19732E-01   -0.18899E-03  2707   0.719E-02    0.176E+00
RMM:   3    -0.181915486774E+03    0.20591E-01   -0.16060E-03  2705   0.800E-02    0.135E-01
RMM:   4    -0.181916321456E+03   -0.83468E-03   -0.32666E-04  1834   0.522E-02    0.616E-02
RMM:   5    -0.181916326341E+03   -0.48855E-05   -0.42063E-05  1483   0.150E-02
 104 F= -.18191633E+03 E0= -.18190818E+03  d E =0.514340E-04
quench:  g(F)=  0.000E+00 g(S)=  0.000E+00 dE (1.order)= 0.000E+00
 bond charge predicted
       N       E                     dE             d eps       ncg     rms          rms(c)
DAV:   1    -0.181916300713E+03    0.20743E-04   -0.83874E-04  2790   0.633E-02    0.164E-02
RMM:   2    -0.181916489330E+03   -0.18862E-03   -0.54977E-05  1457   0.153E-02    0.172E-01
RMM:   3    -0.181916325308E+03    0.16402E-03   -0.24498E-05  1445   0.109E-02    0.618E-02
RMM:   4    -0.181916312418E+03    0.12890E-04   -0.12540E-05  1393   0.869E-03
 105 F= -.18191631E+03 E0= -.18190818E+03  d E =0.139234E-04
quench:  g(F)=  0.000E+00 g(S)=  0.000E+00 dE (1.order)= 0.000E+00
 bond charge predicted
       N       E                     dE             d eps       ncg     rms          rms(c)
DAV:   1    -0.181916321958E+03    0.33501E-05   -0.93838E-04  2790   0.620E-02    0.199E-02
RMM:   2    -0.181916414406E+03   -0.92448E-04   -0.73461E-05  1456   0.179E-02
 106 F= -.18191641E+03 E0= -.18190835E+03  d E =-.101988E-03
quench:  g(F)=  0.000E+00 g(S)=  0.000E+00 dE (1.order)= 0.000E+00
 bond charge predicted
       N       E                     dE             d eps       ncg     rms          rms(c)
DAV:   1    -0.181916403966E+03   -0.82009E-04   -0.12130E-03  2844   0.959E-02    0.109E-01
RMM:   2    -0.181960488712E+03   -0.44085E-01   -0.41278E-03  2736   0.105E-01    0.265E+00
RMM:   3    -0.181915018851E+03    0.45470E-01   -0.36166E-03  2748   0.120E-01    0.147E-01
RMM:   4    -0.181916376371E+03   -0.13575E-02   -0.70225E-04  2443   0.762E-02    0.975E-02
RMM:   5    -0.181916342852E+03    0.33519E-04   -0.61788E-05  1517   0.173E-02
 107 F= -.18191634E+03 E0= -.18190815E+03  d E =0.715542E-04
quench:  g(F)=  0.000E+00 g(S)=  0.000E+00 dE (1.order)= 0.000E+00
 bond charge predicted
       N       E                     dE             d eps       ncg     rms          rms(c)
DAV:   1    -0.181916373074E+03    0.32971E-05   -0.91033E-04  2850   0.698E-02    0.345E-02
RMM:   2    -0.181917853665E+03   -0.14806E-02   -0.25268E-04  1694   0.312E-02    0.487E-01
RMM:   3    -0.181916387588E+03    0.14661E-02   -0.16008E-04  1558   0.277E-02    0.133E-01
RMM:   4    -0.181916381060E+03    0.65285E-05   -0.73738E-05  1522   0.216E-02
 108 F= -.18191638E+03 E0= -.18190827E+03  d E =-.382079E-04
quench:  g(F)=  0.000E+00 g(S)=  0.000E+00 dE (1.order)= 0.000E+00
 bond charge predicted
       N       E                     dE             d eps       ncg     rms          rms(c)
DAV:   1    -0.181916450449E+03   -0.62861E-04   -0.89842E-04  2862   0.647E-02    0.272E-02
RMM:   2    -0.181916612589E+03   -0.16214E-03   -0.12898E-04  1517   0.244E-02    0.147E-01
RMM:   3    -0.181916428294E+03    0.18430E-03   -0.75134E-05  1472   0.203E-02    0.291E-02
RMM:   4    -0.181916460874E+03   -0.32580E-04   -0.91561E-06  1193   0.740E-03
 109 F= -.18191646E+03 E0= -.18190834E+03  d E =-.798142E-04
quench:  g(F)=  0.000E+00 g(S)=  0.000E+00 dE (1.order)= 0.000E+00
 bond charge predicted
       N       E                     dE             d eps       ncg     rms          rms(c)
DAV:   1    -0.181916529398E+03   -0.10110E-03   -0.11518E-03  2772   0.717E-02    0.163E-02
RMM:   2    -0.181916578445E+03   -0.49047E-04   -0.47468E-05  1432   0.149E-02
 110 F= -.18191658E+03 E0= -.18190844E+03  d E =-.117571E-03
quench:  g(F)=  0.000E+00 g(S)=  0.000E+00 dE (1.order)= 0.000E+00
 bond charge predicted
       N       E                     dE             d eps       ncg     rms          rms(c)
DAV:   1    -0.181916676721E+03   -0.14732E-03   -0.15488E-03  2886   0.950E-02    0.873E-02
RMM:   2    -0.181945628644E+03   -0.28952E-01   -0.27835E-03  2731   0.866E-02    0.212E+00
RMM:   3    -0.181915718838E+03    0.29910E-01   -0.22709E-03  2725   0.946E-02    0.138E-01
RMM:   4    -0.181916637101E+03   -0.91826E-03   -0.47150E-04  2094   0.613E-02    0.634E-02
RMM:   5    -0.181916641287E+03   -0.41867E-05   -0.39105E-05  1485   0.148E-02
 111 F= -.18191664E+03 E0= -.18190853E+03  d E =-.628426E-04
quench:  g(F)=  0.000E+00 g(S)=  0.000E+00 dE (1.order)= 0.000E+00
 bond charge predicted
       N       E                     dE             d eps       ncg     rms          rms(c)
DAV:   1    -0.181916762321E+03   -0.12522E-03   -0.17084E-03  2874   0.877E-02    0.261E-02
RMM:   2    -0.181918167855E+03   -0.14055E-02   -0.18399E-04  1564   0.255E-02    0.466E-01
RMM:   3    -0.181916700672E+03    0.14672E-02   -0.12135E-04  1543   0.250E-02    0.717E-02
RMM:   4    -0.181916763789E+03   -0.63117E-04   -0.40799E-05  1495   0.171E-02
 112 F= -.18191676E+03 E0= -.18190860E+03  d E =-.122502E-03
quench:  g(F)=  0.000E+00 g(S)=  0.000E+00 dE (1.order)= 0.000E+00
 bond charge predicted
       N       E                     dE             d eps       ncg     rms          rms(c)
DAV:   1    -0.181916915919E+03   -0.21525E-03   -0.22596E-03  2853   0.989E-02    0.324E-02
RMM:   2    -0.181917315093E+03   -0.39917E-03   -0.20105E-04  1573   0.293E-02    0.244E-01
RMM:   3    -0.181917141654E+03    0.17344E-03   -0.92785E-05  1500   0.206E-02    0.202E-01
RMM:   4    -0.181916895345E+03    0.24631E-03   -0.48142E-05  1491   0.163E-02    0.208E-02
RMM:   5    -0.181916920878E+03   -0.25532E-04   -0.14339E-05  1387   0.887E-03
 113 F= -.18191692E+03 E0= -.18190874E+03  d E =-.157088E-03
quench:  g(F)=  0.000E+00 g(S)=  0.000E+00 dE (1.order)= 0.000E+00
 bond charge predicted
       N       E                     dE             d eps       ncg     rms          rms(c)
DAV:   1    -0.181917082074E+03   -0.18673E-03   -0.28415E-03  2808   0.110E-01    0.226E-02
RMM:   2    -0.181917154901E+03   -0.72828E-04   -0.10728E-04  1467   0.213E-02
 114 F= -.18191715E+03 E0= -.18190892E+03  d E =-.234024E-03
quench:  g(F)=  0.000E+00 g(S)=  0.000E+00 dE (1.order)= 0.000E+00
 bond charge predicted
       N       E                     dE             d eps       ncg     rms          rms(c)
DAV:   1    -0.181917347131E+03   -0.26506E-03   -0.36062E-03  2889   0.141E-01    0.130E-01
RMM:   2    -0.181980699716E+03   -0.63353E-01   -0.59806E-03  2754   0.127E-01    0.317E+00
RMM:   3    -0.181915885853E+03    0.64814E-01   -0.50996E-03  2754   0.141E-01    0.181E-01
RMM:   4    -0.181917332393E+03   -0.14465E-02   -0.10104E-03  2706   0.892E-02    0.137E-01
RMM:   5    -0.181917258419E+03    0.73973E-04   -0.99804E-05  1535   0.217E-02
 115 F= -.18191726E+03 E0= -.18190913E+03  d E =-.103518E-03
quench:  g(F)=  0.000E+00 g(S)=  0.000E+00 dE (1.order)= 0.000E+00
 bond charge predicted
       N       E                     dE             d eps       ncg     rms          rms(c)
DAV:   1    -0.181917430758E+03   -0.98365E-04   -0.34719E-03  2850   0.129E-01    0.533E-02
RMM:   2    -0.181921743173E+03   -0.43124E-02   -0.73275E-04  2579   0.498E-02    0.823E-01
RMM:   3    -0.181917455313E+03    0.42879E-02   -0.42183E-04  2074   0.415E-02    0.212E-01
RMM:   4    -0.181917406466E+03    0.48847E-04   -0.17783E-04  1567   0.338E-02
 116 F= -.18191741E+03 E0= -.18190922E+03  d E =-.148047E-03
quench:  g(F)=  0.000E+00 g(S)=  0.000E+00 dE (1.order)= 0.000E+00
 bond charge predicted
       N       E                     dE             d eps       ncg     rms          rms(c)
DAV:   1    -0.181917653378E+03   -0.19807E-03   -0.40227E-03  2826   0.135E-01    0.535E-02
RMM:   2    -0.181918229468E+03   -0.57609E-03   -0.55835E-04  2390   0.477E-02    0.280E-01
RMM:   3    -0.181917596632E+03    0.63284E-03   -0.26998E-04  1635   0.347E-02    0.564E-02
RMM:   4    -0.181917679409E+03   -0.82778E-04   -0.36263E-05  1450   0.133E-02
 117 F= -.18191768E+03 E0= -.18190947E+03  d E =-.272943E-03
quench:  g(F)=  0.000E+00 g(S)=  0.000E+00 dE (1.order)= 0.000E+00
 bond charge predicted
       N       E                     dE             d eps       ncg     rms          rms(c)
DAV:   1    -0.181917847887E+03   -0.25125E-03   -0.46767E-03  2772   0.145E-01    0.399E-02
RMM:   2    -0.181919501606E+03   -0.16537E-02   -0.35708E-04  1847   0.380E-02    0.502E-01
RMM:   3    -0.181917866548E+03    0.16351E-02   -0.17934E-04  1555   0.293E-02    0.152E-01
RMM:   4    -0.181917845271E+03    0.21277E-04   -0.82867E-05  1534   0.230E-02
 118 F= -.18191785E+03 E0= -.18190964E+03  d E =-.165862E-03
quench:  g(F)=  0.000E+00 g(S)=  0.000E+00 dE (1.order)= 0.000E+00
 bond charge predicted
       N       E                     dE             d eps       ncg     rms          rms(c)
DAV:   1    -0.181918084600E+03   -0.21805E-03   -0.50550E-03  2772   0.150E-01    0.464E-02
RMM:   2    -0.181918451926E+03   -0.36733E-03   -0.40498E-04  1962   0.415E-02    0.221E-01
RMM:   3    -0.181918244042E+03    0.20788E-03   -0.18140E-04  1545   0.296E-02    0.183E-01
RMM:   4    -0.181918088260E+03    0.15578E-03   -0.40339E-05  1472   0.142E-02    0.511E-02
RMM:   5    -0.181918085398E+03    0.28621E-05   -0.21777E-05  1406   0.104E-02
 119 F= -.18191809E+03 E0= -.18190987E+03  d E =-.240126E-03
quench:  g(F)=  0.000E+00 g(S)=  0.000E+00 dE (1.order)= 0.000E+00
 bond charge predicted
       N       E                     dE             d eps       ncg     rms          rms(c)
DAV:   1    -0.181918326608E+03   -0.23835E-03   -0.56070E-03  2772   0.155E-01    0.348E-02
RMM:   2    -0.181918478469E+03   -0.15186E-03   -0.24185E-04  1596   0.318E-02    0.143E-01
RMM:   3    -0.181918522599E+03   -0.44130E-04   -0.85952E-05  1468   0.205E-02
 120 F= -.18191852E+03 E0= -.18191042E+03  d E =-.437201E-03
quench:  g(F)=  0.000E+00 g(S)=  0.000E+00 dE (1.order)= 0.000E+00
 bond charge predicted
       N       E                     dE             d eps       ncg     rms          rms(c)
[...]
 465 F= -.18192701E+03 E0= -.18191855E+03  d E =0.159502E-03
quench:  g(F)=  0.000E+00 g(S)=  0.000E+00 dE (1.order)= 0.000E+00
 bond charge predicted
       N       E                     dE             d eps       ncg     rms          rms(c)
DAV:   1    -0.181926913742E+03    0.15402E-03   -0.13025E-03  2796   0.756E-02    0.289E-02
RMM:   2    -0.181927113532E+03   -0.19979E-03   -0.14664E-04  1530   0.253E-02    0.161E-01
RMM:   3    -0.181926997110E+03    0.11642E-03   -0.82473E-05  1499   0.205E-02    0.141E-01
RMM:   4    -0.181926905734E+03    0.91375E-04   -0.18511E-05  1429   0.100E-02
 466 F= -.18192691E+03 E0= -.18191841E+03  d E =0.108243E-03
quench:  g(F)=  0.000E+00 g(S)=  0.000E+00 dE (1.order)= 0.000E+00
 bond charge predicted
       N       E                     dE             d eps       ncg     rms          rms(c)
DAV:   1    -0.181926822437E+03    0.17467E-03   -0.87771E-04  2772   0.630E-02    0.179E-02
RMM:   2    -0.181926866626E+03   -0.44188E-04   -0.54579E-05  1404   0.160E-02
 467 F= -.18192687E+03 E0= -.18191832E+03  d E =0.391089E-04
quench:  g(F)=  0.000E+00 g(S)=  0.000E+00 dE (1.order)= 0.000E+00
 bond charge predicted
       N       E                     dE             d eps       ncg     rms          rms(c)
DAV:   1    -0.181926806124E+03    0.16313E-04   -0.94301E-04  2685   0.815E-02    0.102E-01
RMM:   2    -0.181966331822E+03   -0.39526E-01   -0.36707E-03  2730   0.989E-02    0.251E+00
RMM:   3    -0.181925446854E+03    0.40885E-01   -0.32118E-03  2741   0.113E-01    0.135E-01
RMM:   4    -0.181926782722E+03   -0.13359E-02   -0.62117E-04  2342   0.719E-02    0.990E-02
RMM:   5    -0.181926755220E+03    0.27502E-04   -0.59446E-05  1504   0.170E-02
 468 F= -.18192676E+03 E0= -.18191832E+03  d E =0.111405E-03
quench:  g(F)=  0.000E+00 g(S)=  0.000E+00 dE (1.order)= 0.000E+00
 bond charge predicted
       N       E                     dE             d eps       ncg     rms          rms(c)
DAV:   1    -0.181926678392E+03    0.10433E-03   -0.50411E-04  2610   0.575E-02    0.368E-02
RMM:   2    -0.181928124758E+03   -0.14464E-02   -0.28383E-04  1746   0.329E-02    0.482E-01
RMM:   3    -0.181926802869E+03    0.13219E-02   -0.17774E-04  1558   0.290E-02    0.185E-01
RMM:   4    -0.181926656305E+03    0.14656E-03   -0.85136E-05  1528   0.229E-02    0.212E-02
RMM:   5    -0.181926682010E+03   -0.25705E-04   -0.17171E-05  1373   0.929E-03
 469 F= -.18192668E+03 E0= -.18191824E+03  d E =0.732101E-04
quench:  g(F)=  0.000E+00 g(S)=  0.000E+00 dE (1.order)= 0.000E+00
 bond charge predicted
       N       E                     dE             d eps       ncg     rms          rms(c)
DAV:   1    -0.181926603282E+03    0.53023E-04   -0.56848E-04  2628   0.509E-02    0.133E-02
RMM:   2    -0.181926752899E+03   -0.14962E-03   -0.37648E-05  1437   0.126E-02    0.150E-01
RMM:   3    -0.181926623091E+03    0.12981E-03   -0.17629E-05  1414   0.907E-03    0.492E-02
RMM:   4    -0.181926613884E+03    0.92068E-05   -0.86088E-06  1306   0.732E-03
 470 F= -.18192661E+03 E0= -.18191816E+03  d E =0.681257E-04
quench:  g(F)=  0.000E+00 g(S)=  0.000E+00 dE (1.order)= 0.000E+00
 bond charge predicted
       N       E                     dE             d eps       ncg     rms          rms(c)
DAV:   1    -0.181926524968E+03    0.98123E-04   -0.76939E-04  2763   0.579E-02    0.167E-02
RMM:   2    -0.181926576707E+03   -0.51739E-04   -0.50225E-05  1398   0.150E-02
 471 F= -.18192658E+03 E0= -.18191821E+03  d E =0.371771E-04
quench:  g(F)=  0.000E+00 g(S)=  0.000E+00 dE (1.order)= 0.000E+00
 bond charge predicted
       N       E                     dE             d eps       ncg     rms          rms(c)
DAV:   1    -0.181926427628E+03    0.97340E-04   -0.11842E-03  2871   0.847E-02    0.719E-02
RMM:   2    -0.181945395178E+03   -0.18968E-01   -0.18041E-03  2713   0.702E-02    0.173E+00
RMM:   3    -0.181925628684E+03    0.19766E-01   -0.15612E-03  2702   0.789E-02    0.111E-01
RMM:   4    -0.181926450117E+03   -0.82143E-03   -0.29400E-04  1782   0.507E-02    0.661E-02
RMM:   5    -0.181926430849E+03    0.19268E-04   -0.35166E-05  1476   0.135E-02
 472 F= -.18192643E+03 E0= -.18191798E+03  d E =0.145858E-03
quench:  g(F)=  0.000E+00 g(S)=  0.000E+00 dE (1.order)= 0.000E+00
 bond charge predicted
       N       E                     dE             d eps       ncg     rms          rms(c)
DAV:   1    -0.181926313096E+03    0.13702E-03   -0.13026E-03  2880   0.780E-02    0.318E-02
RMM:   2    -0.181928222756E+03   -0.19097E-02   -0.25435E-04  1668   0.296E-02    0.554E-01
RMM:   3    -0.181926228580E+03    0.19942E-02   -0.17650E-04  1558   0.297E-02    0.107E-01
RMM:   4    -0.181926300696E+03   -0.72116E-04   -0.67060E-05  1523   0.213E-02
 473 F= -.18192630E+03 E0= -.18191786E+03  d E =0.130153E-03
quench:  g(F)=  0.000E+00 g(S)=  0.000E+00 dE (1.order)= 0.000E+00
 bond charge predicted
       N       E                     dE             d eps       ncg     rms          rms(c)
DAV:   1    -0.181926182006E+03    0.46574E-04   -0.16676E-03  2790   0.863E-02    0.308E-02
RMM:   2    -0.181926386073E+03   -0.20407E-03   -0.17469E-04  1535   0.279E-02    0.169E-01
RMM:   3    -0.181926389125E+03   -0.30524E-05   -0.84096E-05  1474   0.201E-02
 474 F= -.18192639E+03 E0= -.18191783E+03  d E =-.884289E-04
quench:  g(F)=  0.000E+00 g(S)=  0.000E+00 dE (1.order)= 0.000E+00
 bond charge predicted
       N       E                     dE             d eps       ncg     rms          rms(c)
DAV:   1    -0.181926036443E+03    0.34963E-03   -0.22380E-03  2790   0.118E-01    0.306E-02
RMM:   2    -0.181927039083E+03   -0.10026E-02   -0.19593E-04  1562   0.321E-02    0.391E-01
RMM:   3    -0.181926064168E+03    0.97492E-03   -0.10988E-04  1534   0.234E-02    0.122E-01
RMM:   4    -0.181926042791E+03    0.21377E-04   -0.46812E-05  1504   0.177E-02
 475 F= -.18192604E+03 E0= -.18191760E+03  d E =0.346334E-03
quench:  g(F)=  0.000E+00 g(S)=  0.000E+00 dE (1.order)= 0.000E+00
 bond charge predicted
       N       E                     dE             d eps       ncg     rms          rms(c)
DAV:   1    -0.181925946621E+03    0.11755E-03   -0.12048E-03  2772   0.743E-02    0.287E-02
RMM:   2    -0.181926178166E+03   -0.23154E-03   -0.14532E-04  1524   0.255E-02    0.177E-01
RMM:   3    -0.181926174728E+03    0.34377E-05   -0.68502E-05  1476   0.174E-02
 476 F= -.18192617E+03 E0= -.18191761E+03  d E =-.131937E-03
quench:  g(F)=  0.000E+00 g(S)=  0.000E+00 dE (1.order)= 0.000E+00
 bond charge predicted
       N       E                     dE             d eps       ncg     rms          rms(c)
DAV:   1    -0.181925856599E+03    0.32157E-03   -0.13188E-03  2790   0.961E-02    0.261E-02
RMM:   2    -0.181926035487E+03   -0.17889E-03   -0.12888E-04  1513   0.254E-02    0.147E-01
RMM:   3    -0.181925984201E+03    0.51286E-04   -0.54907E-05  1465   0.163E-02
 477 F= -.18192598E+03 E0= -.18191741E+03  d E =0.190527E-03
quench:  g(F)=  0.000E+00 g(S)=  0.000E+00 dE (1.order)= 0.000E+00
 bond charge predicted
       N       E                     dE             d eps       ncg     rms          rms(c)
DAV:   1    -0.181925768364E+03    0.26712E-03   -0.12392E-03  2772   0.893E-02    0.337E-02
RMM:   2    -0.181928638085E+03   -0.28697E-02   -0.30904E-04  1782   0.350E-02    0.678E-01
RMM:   3    -0.181925554946E+03    0.30831E-02   -0.24253E-04  1652   0.346E-02    0.727E-02
RMM:   4    -0.181925774303E+03   -0.21936E-03   -0.76089E-05  1538   0.240E-02    0.248E-02
RMM:   5    -0.181925782147E+03   -0.78441E-05   -0.13251E-05  1382   0.786E-03
 478 F= -.18192578E+03 E0= -.18191733E+03  d E =0.202053E-03
quench:  g(F)=  0.000E+00 g(S)=  0.000E+00 dE (1.order)= 0.000E+00
 bond charge predicted
       N       E                     dE             d eps       ncg     rms          rms(c)
DAV:   1    -0.181925668737E+03    0.10557E-03   -0.11425E-03  2796   0.704E-02    0.161E-02
RMM:   2    -0.181925927368E+03   -0.25863E-03   -0.53290E-05  1465   0.142E-02    0.204E-01
RMM:   3    -0.181925663181E+03    0.26419E-03   -0.26944E-05  1447   0.116E-02    0.371E-02
RMM:   4    -0.181925671559E+03   -0.83777E-05   -0.10990E-05  1384   0.855E-03
 479 F= -.18192567E+03 E0= -.18191724E+03  d E =0.110588E-03
quench:  g(F)=  0.000E+00 g(S)=  0.000E+00 dE (1.order)= 0.000E+00
 bond charge predicted
       N       E                     dE             d eps       ncg     rms          rms(c)
DAV:   1    -0.181925542693E+03    0.12049E-03   -0.15035E-03  2784   0.797E-02    0.179E-02
RMM:   2    -0.181925589089E+03   -0.46395E-04   -0.60968E-05  1418   0.160E-02
 480 F= -.18192559E+03 E0= -.18191711E+03  d E =0.824704E-04
quench:  g(F)=  0.000E+00 g(S)=  0.000E+00 dE (1.order)= 0.000E+00
 bond charge predicted
       N       E                     dE             d eps       ncg     rms          rms(c)
DAV:   1    -0.181925445659E+03    0.97034E-04   -0.19358E-03  2838   0.104E-01    0.849E-02
RMM:   2    -0.181952823052E+03   -0.27377E-01   -0.25823E-03  2736   0.834E-02    0.207E+00
RMM:   3    -0.181924438487E+03    0.28385E-01   -0.22197E-03  2729   0.939E-02    0.118E-01
RMM:   4    -0.181925450618E+03   -0.10121E-02   -0.40764E-04  1975   0.593E-02    0.903E-02
RMM:   5    -0.181925413269E+03    0.37349E-04   -0.47140E-05  1490   0.157E-02
 481 F= -.18192541E+03 E0= -.18191697E+03  d E =0.175819E-03
quench:  g(F)=  0.000E+00 g(S)=  0.000E+00 dE (1.order)= 0.000E+00
 bond charge predicted
       N       E                     dE             d eps       ncg     rms          rms(c)
DAV:   1    -0.181925276059E+03    0.17456E-03   -0.19053E-03  2856   0.936E-02    0.416E-02
RMM:   2    -0.181928635941E+03   -0.33599E-02   -0.46823E-04  2138   0.388E-02    0.730E-01
RMM:   3    -0.181925150269E+03    0.34857E-02   -0.30832E-04  1803   0.375E-02    0.147E-01
RMM:   4    -0.181925246459E+03   -0.96190E-04   -0.11746E-04  1550   0.282E-02
 482 F= -.18192525E+03 E0= -.18191683E+03  d E =0.166810E-03
quench:  g(F)=  0.000E+00 g(S)=  0.000E+00 dE (1.order)= 0.000E+00
 bond charge predicted
       N       E                     dE             d eps       ncg     rms          rms(c)
DAV:   1    -0.181925124901E+03    0.25368E-04   -0.22223E-03  2859   0.997E-02    0.349E-02
RMM:   2    -0.181925301682E+03   -0.17678E-03   -0.21946E-04  1582   0.314E-02    0.152E-01
RMM:   3    -0.181925235290E+03    0.66391E-04   -0.11145E-04  1490   0.239E-02
 483 F= -.18192524E+03 E0= -.18191689E+03  d E =0.111691E-04
quench:  g(F)=  0.000E+00 g(S)=  0.000E+00 dE (1.order)= 0.000E+00
 bond charge predicted
       N       E                     dE             d eps       ncg     rms          rms(c)
DAV:   1    -0.181924978606E+03    0.32308E-03   -0.23085E-03  2808   0.112E-01    0.392E-02
RMM:   2    -0.181927347640E+03   -0.23690E-02   -0.34880E-04  1858   0.381E-02    0.613E-01
RMM:   3    -0.181924898586E+03    0.24491E-02   -0.23068E-04  1610   0.329E-02    0.130E-01
RMM:   4    -0.181924969891E+03   -0.71305E-04   -0.87338E-05  1537   0.244E-02
 484 F= -.18192497E+03 E0= -.18191654E+03  d E =0.265399E-03
quench:  g(F)=  0.000E+00 g(S)=  0.000E+00 dE (1.order)= 0.000E+00
 bond charge predicted
       N       E                     dE             d eps       ncg     rms          rms(c)
DAV:   1    -0.181924902906E+03   -0.43202E-05   -0.10106E-03  2823   0.690E-02    0.300E-02
RMM:   2    -0.181925037305E+03   -0.13440E-03   -0.15370E-04  1506   0.266E-02    0.135E-01
RMM:   3    -0.181924980452E+03    0.56853E-04   -0.80864E-05  1461   0.205E-02
 485 F= -.18192498E+03 E0= -.18191652E+03  d E =-.105608E-04
quench:  g(F)=  0.000E+00 g(S)=  0.000E+00 dE (1.order)= 0.000E+00
 bond charge predicted
       N       E                     dE             d eps       ncg     rms          rms(c)
DAV:   1    -0.181924802985E+03    0.23432E-03   -0.13279E-03  2772   0.875E-02    0.367E-02
RMM:   2    -0.181927568345E+03   -0.27654E-02   -0.33728E-04  1852   0.360E-02    0.666E-01
RMM:   3    -0.181924633132E+03    0.29352E-02   -0.25436E-04  1676   0.349E-02    0.106E-01
RMM:   4    -0.181924800054E+03   -0.16692E-03   -0.86831E-05  1538   0.252E-02    0.225E-02
RMM:   5    -0.181924810150E+03   -0.10097E-04   -0.16268E-05  1409   0.852E-03
 486 F= -.18192481E+03 E0= -.18191641E+03  d E =0.170302E-03
quench:  g(F)=  0.000E+00 g(S)=  0.000E+00 dE (1.order)= 0.000E+00
 bond charge predicted
       N       E                     dE             d eps       ncg     rms          rms(c)
DAV:   1    -0.181924711741E+03    0.88312E-04   -0.89432E-04  2781   0.634E-02    0.165E-02
RMM:   2    -0.181924779743E+03   -0.68002E-04   -0.48575E-05  1428   0.147E-02
 487 F= -.18192478E+03 E0= -.18191641E+03  d E =0.304067E-04
quench:  g(F)=  0.000E+00 g(S)=  0.000E+00 dE (1.order)= 0.000E+00
 bond charge predicted
       N       E                     dE             d eps       ncg     rms          rms(c)
DAV:   1    -0.181924672162E+03    0.39579E-04   -0.11463E-03  2796   0.882E-02    0.942E-02
RMM:   2    -0.181956018184E+03   -0.31346E-01   -0.30458E-03  2729   0.913E-02    0.221E+00
RMM:   3    -0.181923699963E+03    0.32318E-01   -0.25631E-03  2736   0.100E-01    0.175E-01
RMM:   4    -0.181924647232E+03   -0.94727E-03   -0.54040E-04  2237   0.658E-02    0.703E-02
RMM:   5    -0.181924641618E+03    0.56149E-05   -0.54443E-05  1491   0.163E-02
 488 F= -.18192464E+03 E0= -.18191624E+03  d E =0.138126E-03
quench:  g(F)=  0.000E+00 g(S)=  0.000E+00 dE (1.order)= 0.000E+00
 bond charge predicted
       N       E                     dE             d eps       ncg     rms          rms(c)
DAV:   1    -0.181924562198E+03    0.85035E-04   -0.62547E-04  2736   0.598E-02    0.246E-02
RMM:   2    -0.181925395445E+03   -0.83325E-03   -0.13583E-04  1528   0.230E-02    0.368E-01
RMM:   3    -0.181924560060E+03    0.83538E-03   -0.89052E-05  1519   0.212E-02    0.104E-01
RMM:   4    -0.181924551223E+03    0.88370E-05   -0.37086E-05  1484   0.155E-02
 489 F= -.18192455E+03 E0= -.18191616E+03  d E =0.903943E-04
quench:  g(F)=  0.000E+00 g(S)=  0.000E+00 dE (1.order)= 0.000E+00
 bond charge predicted
       N       E                     dE             d eps       ncg     rms          rms(c)
DAV:   1    -0.181924490839E+03    0.69221E-04   -0.53742E-04  2628   0.503E-02    0.203E-02
RMM:   2    -0.181924627879E+03   -0.13704E-03   -0.78756E-05  1461   0.189E-02    0.138E-01
RMM:   3    -0.181924591347E+03    0.36531E-04   -0.34089E-05  1455   0.122E-02
 490 F= -.18192459E+03 E0= -.18191616E+03  d E =-.401242E-04
quench:  g(F)=  0.000E+00 g(S)=  0.000E+00 dE (1.order)= 0.000E+00
 bond charge predicted
       N       E                     dE             d eps       ncg     rms          rms(c)
DAV:   1    -0.181924442369E+03    0.18551E-03   -0.51979E-04  2259   0.647E-02    0.175E-02
RMM:   2    -0.181924603923E+03   -0.16155E-03   -0.55843E-05  1448   0.187E-02    0.152E-01
RMM:   3    -0.181924495485E+03    0.10844E-03   -0.29141E-05  1457   0.116E-02    0.103E-01
RMM:   4    -0.181924449014E+03    0.46471E-04   -0.13847E-05  1415   0.930E-03
 491 F= -.18192445E+03 E0= -.18191606E+03  d E =0.142333E-03
quench:  g(F)=  0.000E+00 g(S)=  0.000E+00 dE (1.order)= 0.000E+00
 bond charge predicted
       N       E                     dE             d eps       ncg     rms          rms(c)
DAV:   1    -0.181924434561E+03    0.60923E-04   -0.55419E-05  1521   0.193E-02    0.125E-02
RMM:   2    -0.181924477675E+03   -0.43114E-04   -0.27740E-05  1394   0.119E-02
 492 F= -.18192448E+03 E0= -.18191609E+03  d E =-.286607E-04
quench:  g(F)=  0.000E+00 g(S)=  0.000E+00 dE (1.order)= 0.000E+00
 bond charge predicted
       N       E                     dE             d eps       ncg     rms          rms(c)
DAV:   1    -0.181924460910E+03   -0.26349E-04   -0.28355E-04  1572   0.555E-02    0.898E-02
RMM:   2    -0.181953009842E+03   -0.28549E-01   -0.26298E-03  2724   0.838E-02    0.212E+00
RMM:   3    -0.181923447809E+03    0.29562E-01   -0.23856E-03  2730   0.973E-02    0.150E-01
RMM:   4    -0.181924430613E+03   -0.98280E-03   -0.48194E-04  2087   0.633E-02    0.656E-02
RMM:   5    -0.181924432709E+03   -0.20958E-05   -0.45928E-05  1486   0.150E-02
 493 F= -.18192443E+03 E0= -.18191609E+03  d E =0.449657E-04
quench:  g(F)=  0.000E+00 g(S)=  0.000E+00 dE (1.order)= 0.000E+00
 bond charge predicted
       N       E                     dE             d eps       ncg     rms          rms(c)
DAV:   1    -0.181924401442E+03    0.29171E-04   -0.86755E-05  1620   0.338E-02    0.220E-02
RMM:   2    -0.181925259799E+03   -0.85836E-03   -0.11813E-04  1515   0.207E-02    0.369E-01
RMM:   3    -0.181924377321E+03    0.88248E-03   -0.80248E-05  1510   0.203E-02    0.791E-02
RMM:   4    -0.181924387990E+03   -0.10669E-04   -0.31924E-05  1482   0.147E-02
 494 F= -.18192439E+03 E0= -.18191599E+03  d E =0.447189E-04
quench:  g(F)=  0.000E+00 g(S)=  0.000E+00 dE (1.order)= 0.000E+00
 bond charge predicted
       N       E                     dE             d eps       ncg     rms          rms(c)
DAV:   1    -0.181924386198E+03   -0.88774E-05   -0.47853E-05  1512   0.200E-02    0.147E-02
RMM:   2    -0.181924539569E+03   -0.15337E-03   -0.43846E-05  1455   0.142E-02    0.151E-01
RMM:   3    -0.181924419238E+03    0.12033E-03   -0.21590E-05  1369   0.987E-03    0.869E-02
RMM:   4    -0.181924382369E+03    0.36870E-04   -0.13820E-05  1373   0.870E-03
 495 F= -.18192438E+03 E0= -.18191600E+03  d E =0.562152E-05
quench:  g(F)=  0.000E+00 g(S)=  0.000E+00 dE (1.order)= 0.000E+00
 bond charge predicted
       N       E                     dE             d eps       ncg     rms          rms(c)
DAV:   1    -0.181924366643E+03    0.52595E-04   -0.51400E-05  1512   0.168E-02    0.589E-03
RMM:   2    -0.181924372032E+03   -0.53892E-05   -0.70454E-06  1246   0.687E-03
 496 F= -.18192437E+03 E0= -.18191600E+03  d E =0.103363E-04
quench:  g(F)=  0.000E+00 g(S)=  0.000E+00 dE (1.order)= 0.000E+00
 bond charge predicted
       N       E                     dE             d eps       ncg     rms          rms(c)
DAV:   1    -0.181924334698E+03    0.31945E-04   -0.42658E-05  1593   0.191E-02    0.887E-03
RMM:   2    -0.181924475398E+03   -0.14070E-03   -0.19335E-05  1437   0.944E-03    0.147E-01
RMM:   3    -0.181924350143E+03    0.12526E-03   -0.13855E-05  1377   0.827E-03    0.375E-02
RMM:   4    -0.181924341989E+03    0.81538E-05   -0.34523E-06   840   0.599E-03
 497 F= -.18192434E+03 E0= -.18191595E+03  d E =0.300434E-04
quench:  g(F)=  0.000E+00 g(S)=  0.000E+00 dE (1.order)= 0.000E+00
 bond charge predicted
       N       E                     dE             d eps       ncg     rms          rms(c)
DAV:   1    -0.181924335280E+03    0.14863E-04   -0.17005E-05  1404   0.104E-02    0.770E-03
RMM:   2    -0.181924349424E+03   -0.14145E-04   -0.98830E-06  1326   0.720E-03
 498 F= -.18192435E+03 E0= -.18191594E+03  d E =-.743548E-05
quench:  g(F)=  0.000E+00 g(S)=  0.000E+00 dE (1.order)= 0.000E+00
 bond charge predicted
       N       E                     dE             d eps       ncg     rms          rms(c)
DAV:   1    -0.181924343941E+03   -0.86613E-05   -0.10629E-04  1440   0.338E-02    0.566E-02
RMM:   2    -0.181936144787E+03   -0.11801E-01   -0.10748E-03  2632   0.534E-02    0.137E+00
RMM:   3    -0.181923633431E+03    0.12511E-01   -0.98177E-04  2657   0.638E-02    0.836E-02
RMM:   4    -0.181924341508E+03   -0.70808E-03   -0.20085E-04  1637   0.422E-02    0.485E-02
RMM:   5    -0.181924344412E+03   -0.29034E-05   -0.22693E-05  1445   0.106E-02
 499 F= -.18192434E+03 E0= -.18191599E+03  d E =0.501281E-05
quench:  g(F)=  0.000E+00 g(S)=  0.000E+00 dE (1.order)= 0.000E+00
 bond charge predicted
       N       E                     dE             d eps       ncg     rms          rms(c)
DAV:   1    -0.181924315408E+03    0.26101E-04   -0.43745E-05  1548   0.252E-02    0.102E-02
RMM:   2    -0.181924359159E+03   -0.43752E-04   -0.18314E-05  1400   0.103E-02
 500 F= -.18192436E+03 E0= -.18191606E+03  d E =-.147479E-04
quench:  g(F)=  0.000E+00 g(S)=  0.000E+00 dE (1.order)= 0.000E+00
