 vasp.5.4.4.18Apr17-6-g9f103f2a35 (build Feb 06 2024 13:54:16) complex          
  
 POSCAR found type information on POSCAR  Cu Pd Cu N  O 
 03/POSCAR found :  5 types and      40 ions
 scaLAPACK will be used

 ----------------------------------------------------------------------------- 
|                                                                             |
|  ADVICE TO THIS USER RUNNING 'VASP/VAMP'   (HEAR YOUR MASTER'S VOICE ...):  |
|                                                                             |
|      You enforced a specific xc-type in the INCAR file,                     |
|      a different type was found on the POTCAR file                          |
|          I HOPE YOU KNOW, WHAT YOU ARE  DOING                               |
|                                                                             |
 ----------------------------------------------------------------------------- 

 LDA part: xc-table for Pade appr. of Perdew
 POSCAR found type information on POSCAR  Cu Pd Cu N  O 
 00/POSCAR found :  5 types and      40 ions
 POSCAR found type information on POSCAR  Cu Pd Cu N  O 
 06/POSCAR found :  5 types and      40 ions
 Jacobian:    20.5888137679208     
 POSCAR, INCAR and KPOINTS ok, starting setup
 FFT: planning ...
 WAVECAR not read
 entering main loop
       N       E                     dE             d eps       ncg     rms          rms(c)
DAV:   1     0.418085200178E+04    0.41809E+04   -0.17842E+05  4032   0.203E+03
DAV:   2     0.610326810458E+03   -0.35705E+04   -0.34427E+04  4032   0.460E+02
DAV:   3    -0.268712583756E+02   -0.63720E+03   -0.58531E+03  4707   0.232E+02
DAV:   4    -0.147572010723E+03   -0.12070E+03   -0.10811E+03  7047   0.931E+01
DAV:   5    -0.161559291656E+03   -0.13987E+02   -0.12363E+02  6363   0.300E+01    0.438E+01
RMM:   6    -0.170848611985E+03   -0.92893E+01   -0.35688E+02  4082   0.945E+01    0.489E+01
RMM:   7    -0.168487165913E+03    0.23614E+01   -0.12648E+02  4165   0.448E+01    0.351E+01
RMM:   8    -0.146773494083E+03    0.21714E+02   -0.19450E+01  4111   0.188E+01    0.242E+01
RMM:   9    -0.138242644986E+03    0.85308E+01   -0.66307E+00  4113   0.117E+01    0.134E+01
RMM:  10    -0.134586709449E+03    0.36559E+01   -0.93531E+00  4102   0.114E+01    0.816E+00
RMM:  11    -0.133440015265E+03    0.11467E+01   -0.27892E+00  4147   0.529E+00    0.440E+00
RMM:  12    -0.133326939064E+03    0.11308E+00   -0.60905E-01  4119   0.330E+00    0.370E+00
RMM:  13    -0.133256957642E+03    0.69981E-01   -0.16847E-01  4128   0.158E+00    0.298E+00
RMM:  14    -0.133080137500E+03    0.17682E+00   -0.23148E-01  4222   0.139E+00    0.174E+00
RMM:  15    -0.133065700746E+03    0.14437E-01   -0.15189E-01  4098   0.112E+00    0.161E+00
RMM:  16    -0.133051929570E+03    0.13771E-01   -0.28221E-02  4335   0.500E-01    0.121E+00
RMM:  17    -0.133038310631E+03    0.13619E-01   -0.80079E-03  4197   0.282E-01    0.840E-01
RMM:  18    -0.133025138646E+03    0.13172E-01   -0.17011E-02  4104   0.398E-01    0.300E-01
RMM:  19    -0.133023566408E+03    0.15722E-02   -0.34592E-03  4696   0.152E-01    0.250E-01
RMM:  20    -0.133022240356E+03    0.13261E-02   -0.24570E-03  4124   0.156E-01    0.193E-01
RMM:  21    -0.133021507067E+03    0.73329E-03   -0.14170E-03  4122   0.987E-02    0.108E-01
RMM:  22    -0.133021456462E+03    0.50605E-04   -0.82029E-04  4102   0.827E-02    0.757E-02
RMM:  23    -0.133021723929E+03   -0.26747E-03   -0.25604E-04  4253   0.382E-02    0.668E-02
RMM:  24    -0.133022319222E+03   -0.59529E-03   -0.19191E-04  4053   0.523E-02    0.364E-02
RMM:  25    -0.133022731123E+03   -0.41190E-03   -0.73571E-05  3287   0.198E-02    0.256E-02
RMM:  26    -0.133022923033E+03   -0.19191E-03   -0.37876E-05  2572   0.196E-02    0.201E-02
RMM:  27    -0.133023103843E+03   -0.18081E-03   -0.38970E-05  2612   0.216E-02    0.142E-02
RMM:  28    -0.133023173326E+03   -0.69483E-04   -0.14051E-05  2404   0.124E-02    0.146E-02
RMM:  29    -0.133023198466E+03   -0.25140E-04   -0.73204E-06  2362   0.961E-03    0.732E-03
RMM:  30    -0.133023231550E+03   -0.33084E-04   -0.57533E-06  2368   0.794E-03    0.852E-03
RMM:  31    -0.133023245707E+03   -0.14157E-04   -0.41136E-06  2313   0.887E-03    0.306E-03
RMM:  32    -0.133023252303E+03   -0.65951E-05   -0.21702E-06  2281   0.366E-03
   1 F= -.13302325E+03 E0= -.13302369E+03  d E =-.133023E+03
quench:  g(F)=  0.000E+00 g(S)=  0.000E+00 dE (1.order)= 0.000E+00
 bond charge predicted
       N       E                     dE             d eps       ncg     rms          rms(c)
DAV:   1    -0.133023298458E+03   -0.52750E-04   -0.58561E-04  4167   0.415E-02    0.668E-03
RMM:   2    -0.133023302946E+03   -0.44885E-05   -0.25360E-05  2459   0.113E-02
   2 F= -.13302330E+03 E0= -.13302374E+03  d E =-.506438E-04
quench:  g(F)=  0.000E+00 g(S)=  0.000E+00 dE (1.order)= 0.000E+00
 bond charge predicted
       N       E                     dE             d eps       ncg     rms          rms(c)
DAV:   1    -0.133023378437E+03   -0.79979E-04   -0.21745E-03  4374   0.856E-02    0.134E-02
RMM:   2    -0.133023394160E+03   -0.15722E-04   -0.10274E-04  3252   0.223E-02    0.193E-02
RMM:   3    -0.133023387572E+03    0.65881E-05   -0.90914E-06  2260   0.133E-02
   3 F= -.13302339E+03 E0= -.13302382E+03  d E =-.846252E-04
quench:  g(F)=  0.000E+00 g(S)=  0.000E+00 dE (1.order)= 0.000E+00
 bond charge predicted
       N       E                     dE             d eps       ncg     rms          rms(c)
DAV:   1    -0.133023487322E+03   -0.93163E-04   -0.47975E-03  4653   0.138E-01    0.192E-02
RMM:   2    -0.133023512009E+03   -0.24687E-04   -0.23866E-04  3994   0.316E-02    0.175E-02
RMM:   3    -0.133023504680E+03    0.73289E-05   -0.13839E-05  2360   0.136E-02
   4 F= -.13302350E+03 E0= -.13302394E+03  d E =-.117109E-03
quench:  g(F)=  0.000E+00 g(S)=  0.000E+00 dE (1.order)= 0.000E+00
 bond charge predicted
       N       E                     dE             d eps       ncg     rms          rms(c)
DAV:   1    -0.133023627931E+03   -0.11592E-03   -0.85878E-03  4455   0.179E-01    0.241E-02
RMM:   2    -0.133023665973E+03   -0.38041E-04   -0.38622E-04  4631   0.426E-02    0.176E-02
RMM:   3    -0.133023659917E+03    0.60555E-05   -0.24792E-05  2378   0.182E-02
   5 F= -.13302366E+03 E0= -.13302409E+03  d E =-.155237E-03
quench:  g(F)=  0.000E+00 g(S)=  0.000E+00 dE (1.order)= 0.000E+00
 bond charge predicted
       N       E                     dE             d eps       ncg     rms          rms(c)
DAV:   1    -0.133023809376E+03   -0.14340E-03   -0.12905E-02  4860   0.235E-01    0.315E-02
RMM:   2    -0.133023886656E+03   -0.77280E-04   -0.59777E-04  4988   0.496E-02    0.344E-02
RMM:   3    -0.133023863353E+03    0.23303E-04   -0.34248E-05  2634   0.167E-02    0.267E-02
RMM:   4    -0.133023852118E+03    0.11235E-04   -0.13470E-05  2262   0.198E-02    0.131E-02
RMM:   5    -0.133023853057E+03   -0.93938E-06   -0.57884E-06  2219   0.116E-02
   6 F= -.13302385E+03 E0= -.13302428E+03  d E =-.193140E-03
quench:  g(F)=  0.000E+00 g(S)=  0.000E+00 dE (1.order)= 0.000E+00
 bond charge predicted
       N       E                     dE             d eps       ncg     rms          rms(c)
DAV:   1    -0.133024032504E+03   -0.18039E-03   -0.18470E-02  4266   0.245E-01    0.327E-02
RMM:   2    -0.133024109632E+03   -0.77128E-04   -0.78732E-04  5516   0.552E-02    0.232E-02
RMM:   3    -0.133024099101E+03    0.10531E-04   -0.28385E-05  2577   0.162E-02    0.235E-02
RMM:   4    -0.133024093047E+03    0.60536E-05   -0.81683E-06  2307   0.140E-02
   7 F= -.13302409E+03 E0= -.13302452E+03  d E =-.239990E-03
quench:  g(F)=  0.000E+00 g(S)=  0.000E+00 dE (1.order)= 0.000E+00
 bond charge predicted
       N       E                     dE             d eps       ncg     rms          rms(c)
DAV:   1    -0.133024289378E+03   -0.19028E-03   -0.24904E-02  4275   0.292E-01    0.399E-02
RMM:   2    -0.133024410436E+03   -0.12106E-03   -0.10613E-03  5850   0.627E-02    0.356E-02
RMM:   3    -0.133024390520E+03    0.19916E-04   -0.52232E-05  2880   0.200E-02    0.365E-02
RMM:   4    -0.133024365252E+03    0.25268E-04   -0.18157E-05  2324   0.219E-02    0.147E-02
RMM:   5    -0.133024366622E+03   -0.13703E-05   -0.74144E-06  2233   0.128E-02
   8 F= -.13302437E+03 E0= -.13302479E+03  d E =-.273575E-03
quench:  g(F)=  0.000E+00 g(S)=  0.000E+00 dE (1.order)= 0.000E+00
 bond charge predicted
       N       E                     dE             d eps       ncg     rms          rms(c)
DAV:   1    -0.133024582377E+03   -0.21712E-03   -0.32806E-02  4131   0.323E-01    0.441E-02
RMM:   2    -0.133024716642E+03   -0.13427E-03   -0.13621E-03  6037   0.721E-02    0.322E-02
RMM:   3    -0.133024697161E+03    0.19481E-04   -0.52470E-05  2865   0.188E-02    0.308E-02
RMM:   4    -0.133024686992E+03    0.10169E-04   -0.12422E-05  2366   0.160E-02    0.157E-02
RMM:   5    -0.133024685764E+03    0.12276E-05   -0.86569E-06  2253   0.145E-02
   9 F= -.13302469E+03 E0= -.13302510E+03  d E =-.319142E-03
quench:  g(F)=  0.000E+00 g(S)=  0.000E+00 dE (1.order)= 0.000E+00
 bond charge predicted
       N       E                     dE             d eps       ncg     rms          rms(c)
DAV:   1    -0.133024913727E+03   -0.22674E-03   -0.40741E-02  4059   0.355E-01    0.499E-02
RMM:   2    -0.133025094357E+03   -0.18063E-03   -0.17447E-03  6109   0.806E-02    0.451E-02
RMM:   3    -0.133025064748E+03    0.29609E-04   -0.83030E-05  3213   0.248E-02    0.393E-02
RMM:   4    -0.133025036580E+03    0.28168E-04   -0.17297E-05  2393   0.191E-02    0.181E-02
RMM:   5    -0.133025036676E+03   -0.95555E-07   -0.12433E-05  2253   0.180E-02
  10 F= -.13302504E+03 E0= -.13302545E+03  d E =-.350911E-03
quench:  g(F)=  0.000E+00 g(S)=  0.000E+00 dE (1.order)= 0.000E+00
 bond charge predicted
       N       E                     dE             d eps       ncg     rms          rms(c)
DAV:   1    -0.133025270684E+03   -0.23410E-03   -0.50337E-02  4077   0.392E-01    0.535E-02
RMM:   2    -0.133025471926E+03   -0.20124E-03   -0.19914E-03  6238   0.872E-02    0.382E-02
RMM:   3    -0.133025461635E+03    0.10292E-04   -0.93309E-05  3373   0.267E-02    0.453E-02
RMM:   4    -0.133025422633E+03    0.39002E-04   -0.21007E-05  2455   0.202E-02    0.178E-02
RMM:   5    -0.133025425016E+03   -0.23834E-05   -0.17292E-05  2345   0.197E-02
  11 F= -.13302543E+03 E0= -.13302583E+03  d E =-.388340E-03
quench:  g(F)=  0.000E+00 g(S)=  0.000E+00 dE (1.order)= 0.000E+00
 bond charge predicted
       N       E                     dE             d eps       ncg     rms          rms(c)
DAV:   1    -0.133025645958E+03   -0.22333E-03   -0.51620E-02  4086   0.393E-01    0.611E-02
RMM:   2    -0.133025914944E+03   -0.26899E-03   -0.25176E-03  6130   0.939E-02    0.677E-02
RMM:   3    -0.133025844590E+03    0.70355E-04   -0.14129E-04  3915   0.307E-02    0.458E-02
RMM:   4    -0.133025803695E+03    0.40895E-04   -0.23142E-05  2489   0.186E-02    0.229E-02
RMM:   5    -0.133025803845E+03   -0.15075E-06   -0.19421E-05  2331   0.216E-02
  12 F= -.13302580E+03 E0= -.13302620E+03  d E =-.378829E-03
quench:  g(F)=  0.000E+00 g(S)=  0.000E+00 dE (1.order)= 0.000E+00
 bond charge predicted
       N       E                     dE             d eps       ncg     rms          rms(c)
DAV:   1    -0.133025937474E+03   -0.13378E-03   -0.41972E-02  4374   0.361E-01    0.492E-02
RMM:   2    -0.133026123576E+03   -0.18610E-03   -0.19948E-03  5877   0.825E-02    0.336E-02
RMM:   3    -0.133026085481E+03    0.38095E-04   -0.79735E-05  3400   0.202E-02    0.242E-02
RMM:   4    -0.133026096128E+03   -0.10647E-04   -0.24941E-05  2504   0.204E-02    0.256E-02
RMM:   5    -0.133026081383E+03    0.14744E-04   -0.15250E-05  2324   0.191E-02    0.132E-02
RMM:   6    -0.133026079716E+03    0.16673E-05   -0.10581E-05  2243   0.154E-02
  13 F= -.13302608E+03 E0= -.13302648E+03  d E =-.275871E-03
quench:  g(F)=  0.000E+00 g(S)=  0.000E+00 dE (1.order)= 0.000E+00
 bond charge predicted
       N       E                     dE             d eps       ncg     rms          rms(c)
DAV:   1    -0.133026228106E+03   -0.14672E-03   -0.10536E-02  4212   0.169E-01    0.349E-02
RMM:   2    -0.133026304004E+03   -0.75898E-04   -0.75962E-04  5078   0.479E-02    0.435E-02
RMM:   3    -0.133026276014E+03    0.27989E-04   -0.36268E-05  2618   0.165E-02    0.248E-02
RMM:   4    -0.133026268821E+03    0.71932E-05   -0.10883E-05  2311   0.156E-02
  14 F= -.13302627E+03 E0= -.13302667E+03  d E =-.189105E-03
quench:  g(F)=  0.000E+00 g(S)=  0.000E+00 dE (1.order)= 0.000E+00
 bond charge predicted
       N       E                     dE             d eps       ncg     rms          rms(c)
DAV:   1    -0.133026402501E+03   -0.12649E-03   -0.94836E-03  4887   0.210E-01    0.251E-02
RMM:   2    -0.133026456973E+03   -0.54471E-04   -0.42654E-04  4511   0.459E-02    0.259E-02
RMM:   3    -0.133026441343E+03    0.15629E-04   -0.36266E-05  2593   0.224E-02    0.220E-02
RMM:   4    -0.133026433159E+03    0.81839E-05   -0.84309E-06  2189   0.155E-02
  15 F= -.13302643E+03 E0= -.13302683E+03  d E =-.164338E-03
quench:  g(F)=  0.000E+00 g(S)=  0.000E+00 dE (1.order)= 0.000E+00
 bond charge predicted
       N       E                     dE             d eps       ncg     rms          rms(c)
DAV:   1    -0.133026598351E+03   -0.15701E-03   -0.14017E-02  4176   0.207E-01    0.310E-02
RMM:   2    -0.133026657281E+03   -0.58930E-04   -0.56565E-04  5197   0.456E-02    0.262E-02
RMM:   3    -0.133026649354E+03    0.79276E-05   -0.24193E-05  2542   0.140E-02
  16 F= -.13302665E+03 E0= -.13302704E+03  d E =-.216194E-03
quench:  g(F)=  0.000E+00 g(S)=  0.000E+00 dE (1.order)= 0.000E+00
 bond charge predicted
       N       E                     dE             d eps       ncg     rms          rms(c)
DAV:   1    -0.133026803914E+03   -0.14663E-03   -0.20346E-02  4590   0.295E-01    0.400E-02
RMM:   2    -0.133026902340E+03   -0.98426E-04   -0.10026E-03  5563   0.660E-02    0.326E-02
RMM:   3    -0.133026881426E+03    0.20914E-04   -0.47996E-05  2711   0.189E-02    0.243E-02
RMM:   4    -0.133026878893E+03    0.25329E-05   -0.95509E-06  2296   0.145E-02
  17 F= -.13302688E+03 E0= -.13302727E+03  d E =-.229539E-03
quench:  g(F)=  0.000E+00 g(S)=  0.000E+00 dE (1.order)= 0.000E+00
 bond charge predicted
       N       E                     dE             d eps       ncg     rms          rms(c)
DAV:   1    -0.133027076505E+03   -0.19508E-03   -0.25118E-02  4770   0.316E-01    0.418E-02
RMM:   2    -0.133027234278E+03   -0.15777E-03   -0.11245E-03  5596   0.691E-02    0.466E-02
RMM:   3    -0.133027175990E+03    0.58288E-04   -0.86397E-05  3533   0.266E-02    0.364E-02
RMM:   4    -0.133027154064E+03    0.21926E-04   -0.14567E-05  2311   0.182E-02    0.155E-02
RMM:   5    -0.133027154949E+03   -0.88496E-06   -0.63598E-06  2229   0.107E-02
  18 F= -.13302715E+03 E0= -.13302754E+03  d E =-.276056E-03
quench:  g(F)=  0.000E+00 g(S)=  0.000E+00 dE (1.order)= 0.000E+00
 bond charge predicted
       N       E                     dE             d eps       ncg     rms          rms(c)
DAV:   1    -0.133027374272E+03   -0.22021E-03   -0.32196E-02  4095   0.316E-01    0.441E-02
RMM:   2    -0.133027510930E+03   -0.13666E-03   -0.13751E-03  6090   0.724E-02    0.362E-02
RMM:   3    -0.133027492426E+03    0.18504E-04   -0.56551E-05  2891   0.203E-02    0.334E-02
RMM:   4    -0.133027473803E+03    0.18623E-04   -0.15469E-05  2355   0.190E-02    0.158E-02
RMM:   5    -0.133027472615E+03    0.11885E-05   -0.85303E-06  2264   0.144E-02
  19 F= -.13302747E+03 E0= -.13302785E+03  d E =-.317665E-03
quench:  g(F)=  0.000E+00 g(S)=  0.000E+00 dE (1.order)= 0.000E+00
 bond charge predicted
       N       E                     dE             d eps       ncg     rms          rms(c)
DAV:   1    -0.133027696839E+03   -0.22304E-03   -0.40243E-02  4050   0.353E-01    0.470E-02
RMM:   2    -0.133027854619E+03   -0.15778E-03   -0.16227E-03  6097   0.794E-02    0.293E-02
RMM:   3    -0.133027841538E+03    0.13081E-04   -0.61184E-05  2999   0.217E-02    0.357E-02
RMM:   4    -0.133027821600E+03    0.19939E-04   -0.15576E-05  2389   0.183E-02    0.158E-02
RMM:   5    -0.133027823553E+03   -0.19529E-05   -0.12790E-05  2295   0.168E-02
  20 F= -.13302782E+03 E0= -.13302820E+03  d E =-.350938E-03
quench:  g(F)=  0.000E+00 g(S)=  0.000E+00 dE (1.order)= 0.000E+00
 bond charge predicted
       N       E                     dE             d eps       ncg     rms          rms(c)
DAV:   1    -0.133028054953E+03   -0.23335E-03   -0.43951E-02  4185   0.369E-01    0.556E-02
RMM:   2    -0.133028275709E+03   -0.22076E-03   -0.21012E-03  6136   0.871E-02    0.586E-02
RMM:   3    -0.133028223203E+03    0.52506E-04   -0.10773E-04  3476   0.273E-02    0.414E-02
RMM:   4    -0.133028191729E+03    0.31474E-04   -0.19845E-05  2439   0.192E-02    0.209E-02
RMM:   5    -0.133028190935E+03    0.79427E-06   -0.15756E-05  2293   0.200E-02
  21 F= -.13302819E+03 E0= -.13302856E+03  d E =-.367382E-03
quench:  g(F)=  0.000E+00 g(S)=  0.000E+00 dE (1.order)= 0.000E+00
 bond charge predicted
       N       E                     dE             d eps       ncg     rms          rms(c)
DAV:   1    -0.133028380298E+03   -0.18857E-03   -0.45274E-02  4194   0.374E-01    0.502E-02
RMM:   2    -0.133028566214E+03   -0.18592E-03   -0.19450E-03  6037   0.844E-02    0.313E-02
RMM:   3    -0.133028544566E+03    0.21648E-04   -0.75743E-05  3315   0.231E-02    0.341E-02
RMM:   4    -0.133028529828E+03    0.14738E-04   -0.22085E-05  2472   0.196E-02    0.178E-02
RMM:   5    -0.133028528253E+03    0.15748E-05   -0.17006E-05  2331   0.196E-02
  22 F= -.13302853E+03 E0= -.13302890E+03  d E =-.337318E-03
quench:  g(F)=  0.000E+00 g(S)=  0.000E+00 dE (1.order)= 0.000E+00
 bond charge predicted
       N       E                     dE             d eps       ncg     rms          rms(c)
DAV:   1    -0.133028701215E+03   -0.17139E-03   -0.22362E-02  4500   0.262E-01    0.510E-02
RMM:   2    -0.133028854179E+03   -0.15296E-03   -0.15011E-03  5726   0.674E-02    0.635E-02
RMM:   3    -0.133028795974E+03    0.58205E-04   -0.79487E-05  3040   0.226E-02    0.353E-02
RMM:   4    -0.133028777448E+03    0.18526E-04   -0.19809E-05  2404   0.193E-02    0.209E-02
RMM:   5    -0.133028775708E+03    0.17398E-05   -0.20756E-05  2402   0.205E-02
  23 F= -.13302878E+03 E0= -.13302914E+03  d E =-.247455E-03
quench:  g(F)=  0.000E+00 g(S)=  0.000E+00 dE (1.order)= 0.000E+00
 bond charge predicted
       N       E                     dE             d eps       ncg     rms          rms(c)
DAV:   1    -0.133028921486E+03   -0.14404E-03   -0.12569E-02  4824   0.219E-01    0.270E-02
RMM:   2    -0.133028978482E+03   -0.56996E-04   -0.60248E-04  4661   0.468E-02    0.165E-02
RMM:   3    -0.133028967877E+03    0.10605E-04   -0.26131E-05  2471   0.166E-02    0.133E-02
RMM:   4    -0.133028968678E+03   -0.80085E-06   -0.10758E-05  2246   0.161E-02
  24 F= -.13302897E+03 E0= -.13302933E+03  d E =-.192970E-03
quench:  g(F)=  0.000E+00 g(S)=  0.000E+00 dE (1.order)= 0.000E+00
 bond charge predicted
       N       E                     dE             d eps       ncg     rms          rms(c)
DAV:   1    -0.133029134071E+03   -0.16619E-03   -0.12542E-02  4608   0.217E-01    0.309E-02
RMM:   2    -0.133029219820E+03   -0.85749E-04   -0.60296E-04  5119   0.487E-02    0.396E-02
RMM:   3    -0.133029182999E+03    0.36821E-04   -0.36411E-05  2667   0.193E-02    0.251E-02
RMM:   4    -0.133029172007E+03    0.10992E-04   -0.13172E-05  2258   0.194E-02    0.110E-02
RMM:   5    -0.133029172533E+03   -0.52564E-06   -0.46284E-06  2199   0.958E-03
  25 F= -.13302917E+03 E0= -.13302953E+03  d E =-.203855E-03
quench:  g(F)=  0.000E+00 g(S)=  0.000E+00 dE (1.order)= 0.000E+00
 bond charge predicted
       N       E                     dE             d eps       ncg     rms          rms(c)
DAV:   1    -0.133029360343E+03   -0.18834E-03   -0.18553E-02  4077   0.245E-01    0.339E-02
RMM:   2    -0.133029437808E+03   -0.77464E-04   -0.78418E-04  5591   0.557E-02    0.260E-02
RMM:   3    -0.133029427398E+03    0.10410E-04   -0.29733E-05  2605   0.163E-02    0.249E-02
RMM:   4    -0.133029419438E+03    0.79597E-05   -0.94793E-06  2314   0.153E-02
  26 F= -.13302942E+03 E0= -.13302978E+03  d E =-.246905E-03
quench:  g(F)=  0.000E+00 g(S)=  0.000E+00 dE (1.order)= 0.000E+00
 bond charge predicted
       N       E                     dE             d eps       ncg     rms          rms(c)
DAV:   1    -0.133029620785E+03   -0.19339E-03   -0.25293E-02  4248   0.296E-01    0.406E-02
RMM:   2    -0.133029741307E+03   -0.12052E-03   -0.11006E-03  5885   0.641E-02    0.349E-02
RMM:   3    -0.133029723977E+03    0.17330E-04   -0.49825E-05  2861   0.185E-02    0.364E-02
RMM:   4    -0.133029699285E+03    0.24692E-04   -0.17993E-05  2316   0.218E-02    0.151E-02
RMM:   5    -0.133029700771E+03   -0.14861E-05   -0.78174E-06  2215   0.136E-02
  27 F= -.13302970E+03 E0= -.13303005E+03  d E =-.281333E-03
quench:  g(F)=  0.000E+00 g(S)=  0.000E+00 dE (1.order)= 0.000E+00
 bond charge predicted
       N       E                     dE             d eps       ncg     rms          rms(c)
DAV:   1    -0.133029926430E+03   -0.22715E-03   -0.33287E-02  4149   0.328E-01    0.449E-02
RMM:   2    -0.133030063287E+03   -0.13686E-03   -0.13995E-03  6056   0.733E-02    0.325E-02
RMM:   3    -0.133030043894E+03    0.19394E-04   -0.53716E-05  2865   0.197E-02    0.314E-02
RMM:   4    -0.133030032456E+03    0.11438E-04   -0.12997E-05  2370   0.166E-02    0.159E-02
RMM:   5    -0.133030031362E+03    0.10935E-05   -0.90651E-06  2254   0.148E-02
  28 F= -.13303003E+03 E0= -.13303038E+03  d E =-.330591E-03
quench:  g(F)=  0.000E+00 g(S)=  0.000E+00 dE (1.order)= 0.000E+00
 bond charge predicted
       N       E                     dE             d eps       ncg     rms          rms(c)
DAV:   1    -0.133030268289E+03   -0.23583E-03   -0.41843E-02  4059   0.361E-01    0.507E-02
RMM:   2    -0.133030453650E+03   -0.18536E-03   -0.17998E-03  6147   0.822E-02    0.449E-02
RMM:   3    -0.133030424452E+03    0.29198E-04   -0.85380E-05  3258   0.251E-02    0.396E-02
RMM:   4    -0.133030395197E+03    0.29256E-04   -0.17262E-05  2400   0.192E-02    0.182E-02
RMM:   5    -0.133030395215E+03   -0.17993E-07   -0.12631E-05  2252   0.182E-02
  29 F= -.13303040E+03 E0= -.13303074E+03  d E =-.363853E-03
quench:  g(F)=  0.000E+00 g(S)=  0.000E+00 dE (1.order)= 0.000E+00
 bond charge predicted
       N       E                     dE             d eps       ncg     rms          rms(c)
DAV:   1    -0.133030632560E+03   -0.23736E-03   -0.52234E-02  4077   0.402E-01    0.542E-02
RMM:   2    -0.133030843299E+03   -0.21074E-03   -0.20967E-03  6230   0.900E-02    0.379E-02
RMM:   3    -0.133030830331E+03    0.12969E-04   -0.92802E-05  3403   0.267E-02    0.451E-02
RMM:   4    -0.133030791636E+03    0.38695E-04   -0.20556E-05  2457   0.202E-02    0.180E-02
RMM:   5    -0.133030794030E+03   -0.23944E-05   -0.16651E-05  2334   0.194E-02
  30 F= -.13303079E+03 E0= -.13303113E+03  d E =-.398816E-03
quench:  g(F)=  0.000E+00 g(S)=  0.000E+00 dE (1.order)= 0.000E+00
 bond charge predicted
       N       E                     dE             d eps       ncg     rms          rms(c)
DAV:   1    -0.133031022744E+03   -0.23111E-03   -0.54326E-02  4077   0.406E-01    0.624E-02
RMM:   2    -0.133031301694E+03   -0.27895E-03   -0.26427E-03  6170   0.971E-02    0.666E-02
RMM:   3    -0.133031233055E+03    0.68639E-04   -0.14432E-04  3991   0.308E-02    0.464E-02
RMM:   4    -0.133031192060E+03    0.40995E-04   -0.22422E-05  2496   0.184E-02    0.233E-02
RMM:   5    -0.133031191146E+03    0.91321E-06   -0.19022E-05  2325   0.219E-02
  31 F= -.13303119E+03 E0= -.13303152E+03  d E =-.397116E-03
quench:  g(F)=  0.000E+00 g(S)=  0.000E+00 dE (1.order)= 0.000E+00
 bond charge predicted
       N       E                     dE             d eps       ncg     rms          rms(c)
DAV:   1    -0.133031340734E+03   -0.14867E-03   -0.46834E-02  4203   0.380E-01    0.521E-02
RMM:   2    -0.133031544925E+03   -0.20419E-03   -0.21803E-03  5952   0.870E-02    0.349E-02
RMM:   3    -0.133031506105E+03    0.38820E-04   -0.88075E-05  3486   0.217E-02    0.279E-02
RMM:   4    -0.133031509859E+03   -0.37541E-05   -0.26561E-05  2517   0.207E-02
  32 F= -.13303151E+03 E0= -.13303184E+03  d E =-.318712E-03
quench:  g(F)=  0.000E+00 g(S)=  0.000E+00 dE (1.order)= 0.000E+00
 bond charge predicted
       N       E                     dE             d eps       ncg     rms          rms(c)
DAV:   1    -0.133031660708E+03   -0.15460E-03   -0.12637E-02  5094   0.261E-01    0.407E-02
RMM:   2    -0.133031774891E+03   -0.11418E-03   -0.94005E-04  5307   0.553E-02    0.513E-02
RMM:   3    -0.133031727771E+03    0.47121E-04   -0.57717E-05  2928   0.206E-02    0.339E-02
RMM:   4    -0.133031708240E+03    0.19530E-04   -0.17863E-05  2348   0.203E-02    0.151E-02
RMM:   5    -0.133031707943E+03    0.29710E-06   -0.10257E-05  2302   0.125E-02
  33 F= -.13303171E+03 E0= -.13303203E+03  d E =-.198084E-03
quench:  g(F)=  0.000E+00 g(S)=  0.000E+00 dE (1.order)= 0.000E+00
 bond charge predicted
       N       E                     dE             d eps       ncg     rms          rms(c)
DAV:   1    -0.133031857775E+03   -0.14953E-03   -0.10657E-02  4599   0.200E-01    0.270E-02
RMM:   2    -0.133031902526E+03   -0.44751E-04   -0.46198E-04  4682   0.433E-02    0.195E-02
RMM:   3    -0.133031895812E+03    0.67131E-05   -0.23576E-05  2427   0.158E-02
  34 F= -.13303190E+03 E0= -.13303221E+03  d E =-.187869E-03
quench:  g(F)=  0.000E+00 g(S)=  0.000E+00 dE (1.order)= 0.000E+00
 bond charge predicted
       N       E                     dE             d eps       ncg     rms          rms(c)
DAV:   1    -0.133032053797E+03   -0.15127E-03   -0.15225E-02  4284   0.236E-01    0.333E-02
RMM:   2    -0.133032124213E+03   -0.70417E-04   -0.73029E-04  5224   0.601E-02    0.272E-02
RMM:   3    -0.133032108376E+03    0.15838E-04   -0.46140E-05  2663   0.238E-02    0.201E-02
RMM:   4    -0.133032106487E+03    0.18884E-05   -0.13963E-05  2225   0.201E-02
  35 F= -.13303211E+03 E0= -.13303242E+03  d E =-.210675E-03
quench:  g(F)=  0.000E+00 g(S)=  0.000E+00 dE (1.order)= 0.000E+00
 bond charge predicted
       N       E                     dE             d eps       ncg     rms          rms(c)
DAV:   1    -0.133032298439E+03   -0.19006E-03   -0.21040E-02  4347   0.270E-01    0.356E-02
RMM:   2    -0.133032389219E+03   -0.90780E-04   -0.90004E-04  5620   0.595E-02    0.247E-02
RMM:   3    -0.133032384952E+03    0.42670E-05   -0.37644E-05  2732   0.170E-02
  36 F= -.13303238E+03 E0= -.13303271E+03  d E =-.278464E-03
quench:  g(F)=  0.000E+00 g(S)=  0.000E+00 dE (1.order)= 0.000E+00
 bond charge predicted
       N       E                     dE             d eps       ncg     rms          rms(c)
DAV:   1    -0.133032574519E+03   -0.18530E-03   -0.26081E-02  4851   0.336E-01    0.449E-02
RMM:   2    -0.133032684443E+03   -0.10992E-03   -0.11514E-03  5562   0.676E-02    0.293E-02
RMM:   3    -0.133032676035E+03    0.84075E-05   -0.79821E-05  2900   0.192E-02
  37 F= -.13303268E+03 E0= -.13303298E+03  d E =-.291083E-03
quench:  g(F)=  0.000E+00 g(S)=  0.000E+00 dE (1.order)= 0.000E+00
 bond charge predicted
       N       E                     dE             d eps       ncg     rms          rms(c)
DAV:   1    -0.133032856580E+03   -0.17214E-03   -0.32665E-02  4644   0.371E-01    0.523E-02
RMM:   2    -0.133033013115E+03   -0.15653E-03   -0.15955E-03  5924   0.800E-02    0.421E-02
RMM:   3    -0.133032976939E+03    0.36176E-04   -0.61934E-05  2964   0.192E-02    0.309E-02
RMM:   4    -0.133032975610E+03    0.13288E-05   -0.12915E-05  2365   0.149E-02
  38 F= -.13303298E+03 E0= -.13303329E+03  d E =-.299575E-03
quench:  g(F)=  0.000E+00 g(S)=  0.000E+00 dE (1.order)= 0.000E+00
 bond charge predicted
       N       E                     dE             d eps       ncg     rms          rms(c)
DAV:   1    -0.133033197682E+03   -0.22074E-03   -0.34809E-02  4860   0.387E-01    0.493E-02
RMM:   2    -0.133033405846E+03   -0.20816E-03   -0.15617E-03  5514   0.817E-02    0.503E-02
RMM:   3    -0.133033338824E+03    0.67022E-04   -0.12215E-04  4149   0.318E-02    0.440E-02
RMM:   4    -0.133033304355E+03    0.34469E-04   -0.17584E-05  2376   0.176E-02    0.183E-02
RMM:   5    -0.133033305294E+03   -0.93861E-06   -0.82372E-06  2301   0.115E-02
  39 F= -.13303331E+03 E0= -.13303361E+03  d E =-.329683E-03
quench:  g(F)=  0.000E+00 g(S)=  0.000E+00 dE (1.order)= 0.000E+00
 bond charge predicted
       N       E                     dE             d eps       ncg     rms          rms(c)
DAV:   1    -0.133033535243E+03   -0.23089E-03   -0.38094E-02  4068   0.341E-01    0.513E-02
RMM:   2    -0.133033719644E+03   -0.18440E-03   -0.17787E-03  6176   0.811E-02    0.526E-02
RMM:   3    -0.133033676563E+03    0.43081E-04   -0.83038E-05  3105   0.228E-02    0.368E-02
RMM:   4    -0.133033654770E+03    0.21793E-04   -0.20425E-05  2401   0.210E-02    0.200E-02
RMM:   5    -0.133033652132E+03    0.26383E-05   -0.12812E-05  2285   0.182E-02
  40 F= -.13303365E+03 E0= -.13303395E+03  d E =-.346838E-03
quench:  g(F)=  0.000E+00 g(S)=  0.000E+00 dE (1.order)= 0.000E+00
 bond charge predicted
       N       E                     dE             d eps       ncg     rms          rms(c)
DAV:   1    -0.133033858753E+03   -0.20398E-03   -0.39472E-02  4221   0.349E-01    0.462E-02
RMM:   2    -0.133034016161E+03   -0.15741E-03   -0.16610E-03  5869   0.789E-02    0.260E-02
RMM:   3    -0.133033989764E+03    0.26397E-04   -0.57018E-05  3109   0.199E-02    0.245E-02
RMM:   4    -0.133033989022E+03    0.74181E-06   -0.16623E-05  2391   0.178E-02
  41 F= -.13303399E+03 E0= -.13303428E+03  d E =-.336891E-03
quench:  g(F)=  0.000E+00 g(S)=  0.000E+00 dE (1.order)= 0.000E+00
 bond charge predicted
       N       E                     dE             d eps       ncg     rms          rms(c)
DAV:   1    -0.133034177173E+03   -0.18741E-03   -0.26167E-02  4752   0.312E-01    0.514E-02
RMM:   2    -0.133034359779E+03   -0.18261E-03   -0.15669E-03  5832   0.705E-02    0.612E-02
RMM:   3    -0.133034292789E+03    0.66990E-04   -0.98018E-05  3530   0.247E-02    0.419E-02
RMM:   4    -0.133034261408E+03    0.31381E-04   -0.21981E-05  2412   0.207E-02    0.190E-02
RMM:   5    -0.133034261120E+03    0.28797E-06   -0.13417E-05  2329   0.160E-02
  42 F= -.13303426E+03 E0= -.13303455E+03  d E =-.272097E-03
quench:  g(F)=  0.000E+00 g(S)=  0.000E+00 dE (1.order)= 0.000E+00
 bond charge predicted
       N       E                     dE             d eps       ncg     rms          rms(c)
DAV:   1    -0.133034423748E+03   -0.16234E-03   -0.18398E-02  4716   0.253E-01    0.337E-02
RMM:   2    -0.133034505257E+03   -0.81509E-04   -0.86262E-04  5134   0.554E-02    0.220E-02
RMM:   3    -0.133034489893E+03    0.15364E-04   -0.34275E-05  2700   0.180E-02    0.190E-02
RMM:   4    -0.133034487944E+03    0.19494E-05   -0.14536E-05  2253   0.188E-02
  43 F= -.13303449E+03 E0= -.13303477E+03  d E =-.226824E-03
quench:  g(F)=  0.000E+00 g(S)=  0.000E+00 dE (1.order)= 0.000E+00
 bond charge predicted
       N       E                     dE             d eps       ncg     rms          rms(c)
DAV:   1    -0.133034659154E+03   -0.16926E-03   -0.13565E-02  4455   0.215E-01    0.346E-02
RMM:   2    -0.133034760405E+03   -0.10125E-03   -0.71156E-04  5304   0.513E-02    0.461E-02
RMM:   3    -0.133034712588E+03    0.47818E-04   -0.47038E-05  2787   0.208E-02    0.272E-02
RMM:   4    -0.133034700567E+03    0.12021E-04   -0.15199E-05  2313   0.195E-02    0.123E-02
RMM:   5    -0.133034700646E+03   -0.78988E-07   -0.66324E-06  2226   0.116E-02
  44 F= -.13303470E+03 E0= -.13303498E+03  d E =-.212703E-03
quench:  g(F)=  0.000E+00 g(S)=  0.000E+00 dE (1.order)= 0.000E+00
 bond charge predicted
       N       E                     dE             d eps       ncg     rms          rms(c)
DAV:   1    -0.133034883077E+03   -0.18251E-03   -0.18173E-02  4104   0.241E-01    0.333E-02
RMM:   2    -0.133034955819E+03   -0.72742E-04   -0.74465E-04  5542   0.542E-02    0.225E-02
RMM:   3    -0.133034949518E+03    0.63014E-05   -0.28312E-05  2598   0.164E-02
  45 F= -.13303495E+03 E0= -.13303522E+03  d E =-.248871E-03
quench:  g(F)=  0.000E+00 g(S)=  0.000E+00 dE (1.order)= 0.000E+00
 bond charge predicted
       N       E                     dE             d eps       ncg     rms          rms(c)
DAV:   1    -0.133035119528E+03   -0.16371E-03   -0.23046E-02  4617   0.308E-01    0.436E-02
RMM:   2    -0.133035233228E+03   -0.11370E-03   -0.11824E-03  5616   0.709E-02    0.378E-02
RMM:   3    -0.133035203287E+03    0.29941E-04   -0.63556E-05  2787   0.225E-02    0.245E-02
RMM:   4    -0.133035200647E+03    0.26397E-05   -0.12324E-05  2290   0.168E-02
  46 F= -.13303520E+03 E0= -.13303547E+03  d E =-.251129E-03
quench:  g(F)=  0.000E+00 g(S)=  0.000E+00 dE (1.order)= 0.000E+00
 bond charge predicted
       N       E                     dE             d eps       ncg     rms          rms(c)
DAV:   1    -0.133035404307E+03   -0.20102E-03   -0.26930E-02  4608   0.317E-01    0.423E-02
RMM:   2    -0.133035575533E+03   -0.17123E-03   -0.11644E-03  5534   0.704E-02    0.484E-02
RMM:   3    -0.133035505055E+03    0.70478E-04   -0.91171E-05  3670   0.277E-02    0.351E-02
RMM:   4    -0.133035485720E+03    0.19335E-04   -0.14559E-05  2316   0.180E-02    0.152E-02
RMM:   5    -0.133035486833E+03   -0.11127E-05   -0.77614E-06  2296   0.122E-02
  47 F= -.13303549E+03 E0= -.13303576E+03  d E =-.286186E-03
quench:  g(F)=  0.000E+00 g(S)=  0.000E+00 dE (1.order)= 0.000E+00
 bond charge predicted
       N       E                     dE             d eps       ncg     rms          rms(c)
DAV:   1    -0.133035696936E+03   -0.21122E-03   -0.28511E-02  4131   0.295E-01    0.447E-02
RMM:   2    -0.133035832578E+03   -0.13564E-03   -0.13826E-03  5992   0.709E-02    0.429E-02
RMM:   3    -0.133035802863E+03    0.29715E-04   -0.59396E-05  2875   0.197E-02    0.310E-02
RMM:   4    -0.133035788495E+03    0.14368E-04   -0.15060E-05  2345   0.184E-02    0.173E-02
RMM:   5    -0.133035786699E+03    0.17958E-05   -0.93922E-06  2266   0.151E-02
  48 F= -.13303579E+03 E0= -.13303605E+03  d E =-.299867E-03
quench:  g(F)=  0.000E+00 g(S)=  0.000E+00 dE (1.order)= 0.000E+00
 bond charge predicted
       N       E                     dE             d eps       ncg     rms          rms(c)
DAV:   1    -0.133035987924E+03   -0.19943E-03   -0.31742E-02  4176   0.316E-01    0.423E-02
RMM:   2    -0.133036113902E+03   -0.12598E-03   -0.13220E-03  5904   0.711E-02    0.245E-02
RMM:   3    -0.133036099021E+03    0.14882E-04   -0.45193E-05  2895   0.187E-02    0.276E-02
RMM:   4    -0.133036091283E+03    0.77372E-05   -0.14252E-05  2378   0.170E-02
  49 F= -.13303609E+03 E0= -.13303635E+03  d E =-.304584E-03
quench:  g(F)=  0.000E+00 g(S)=  0.000E+00 dE (1.order)= 0.000E+00
 bond charge predicted
       N       E                     dE             d eps       ncg     rms          rms(c)
DAV:   1    -0.133036290355E+03   -0.19133E-03   -0.25668E-02  4653   0.313E-01    0.480E-02
RMM:   2    -0.133036474385E+03   -0.18403E-03   -0.14379E-03  5813   0.711E-02    0.586E-02
RMM:   3    -0.133036399799E+03    0.74586E-04   -0.94462E-05  3680   0.270E-02    0.392E-02
RMM:   4    -0.133036372419E+03    0.27380E-04   -0.18692E-05  2392   0.186E-02    0.173E-02
RMM:   5    -0.133036371755E+03    0.66459E-06   -0.87193E-06  2289   0.122E-02
  50 F= -.13303637E+03 E0= -.13303663E+03  d E =-.280471E-03
quench:  g(F)=  0.000E+00 g(S)=  0.000E+00 dE (1.order)= 0.000E+00
 bond charge predicted
       N       E                     dE             d eps       ncg     rms          rms(c)
DAV:   1    -0.133036556376E+03   -0.18396E-03   -0.23505E-02  4365   0.277E-01    0.383E-02
RMM:   2    -0.133036655431E+03   -0.99055E-04   -0.10407E-03  5628   0.623E-02    0.248E-02
RMM:   3    -0.133036638640E+03    0.16791E-04   -0.39614E-05  2810   0.173E-02    0.229E-02
RMM:   4    -0.133036636810E+03    0.18305E-05   -0.12907E-05  2360   0.160E-02
  51 F= -.13303664E+03 E0= -.13303689E+03  d E =-.265055E-03
quench:  g(F)=  0.000E+00 g(S)=  0.000E+00 dE (1.order)= 0.000E+00
 bond charge predicted
       N       E                     dE             d eps       ncg     rms          rms(c)
DAV:   1    -0.133036833367E+03   -0.19473E-03   -0.18193E-02  4734   0.275E-01    0.419E-02
RMM:   2    -0.133037018048E+03   -0.18468E-03   -0.10405E-03  5556   0.632E-02    0.653E-02
RMM:   3    -0.133036902608E+03    0.11544E-03   -0.83540E-05  3559   0.263E-02    0.309E-02
RMM:   4    -0.133036888461E+03    0.14147E-04   -0.14770E-05  2329   0.168E-02    0.147E-02
RMM:   5    -0.133036888609E+03   -0.14823E-06   -0.80080E-06  2258   0.124E-02
  52 F= -.13303689E+03 E0= -.13303713E+03  d E =-.251800E-03
quench:  g(F)=  0.000E+00 g(S)=  0.000E+00 dE (1.order)= 0.000E+00
 bond charge predicted
       N       E                     dE             d eps       ncg     rms          rms(c)
DAV:   1    -0.133037089646E+03   -0.20118E-03   -0.21520E-02  4284   0.264E-01    0.369E-02
RMM:   2    -0.133037177605E+03   -0.87959E-04   -0.88796E-04  5618   0.587E-02    0.252E-02
RMM:   3    -0.133037169118E+03    0.84874E-05   -0.34842E-05  2680   0.175E-02
  53 F= -.13303717E+03 E0= -.13303740E+03  d E =-.280508E-03
quench:  g(F)=  0.000E+00 g(S)=  0.000E+00 dE (1.order)= 0.000E+00
 bond charge predicted
       N       E                     dE             d eps       ncg     rms          rms(c)
DAV:   1    -0.133037343627E+03   -0.16602E-03   -0.23178E-02  4626   0.311E-01    0.457E-02
RMM:   2    -0.133037467378E+03   -0.12375E-03   -0.12927E-03  5516   0.744E-02    0.429E-02
RMM:   3    -0.133037428396E+03    0.38982E-04   -0.68209E-05  2946   0.257E-02    0.247E-02
RMM:   4    -0.133037424912E+03    0.34841E-05   -0.15202E-05  2273   0.193E-02
  54 F= -.13303742E+03 E0= -.13303766E+03  d E =-.255794E-03
quench:  g(F)=  0.000E+00 g(S)=  0.000E+00 dE (1.order)= 0.000E+00
 bond charge predicted
       N       E                     dE             d eps       ncg     rms          rms(c)
DAV:   1    -0.133037633527E+03   -0.20513E-03   -0.25012E-02  4212   0.277E-01    0.386E-02
RMM:   2    -0.133037736995E+03   -0.10347E-03   -0.10094E-03  5724   0.629E-02    0.259E-02
RMM:   3    -0.133037736468E+03    0.52762E-06   -0.52563E-05  2894   0.199E-02
  55 F= -.13303774E+03 E0= -.13303796E+03  d E =-.311556E-03
quench:  g(F)=  0.000E+00 g(S)=  0.000E+00 dE (1.order)= 0.000E+00
 bond charge predicted
       N       E                     dE             d eps       ncg     rms          rms(c)
DAV:   1    -0.133037892115E+03   -0.15512E-03   -0.23533E-02  4824   0.337E-01    0.480E-02
RMM:   2    -0.133038041626E+03   -0.14951E-03   -0.13901E-03  5705   0.718E-02    0.530E-02
RMM:   3    -0.133037997646E+03    0.43980E-04   -0.63901E-05  2958   0.218E-02    0.328E-02
RMM:   4    -0.133037982136E+03    0.15510E-04   -0.16479E-05  2379   0.186E-02    0.201E-02
RMM:   5    -0.133037980183E+03    0.19533E-05   -0.16354E-05  2299   0.204E-02
  56 F= -.13303798E+03 E0= -.13303821E+03  d E =-.243715E-03
quench:  g(F)=  0.000E+00 g(S)=  0.000E+00 dE (1.order)= 0.000E+00
 bond charge predicted
       N       E                     dE             d eps       ncg     rms          rms(c)
DAV:   1    -0.133038175504E+03   -0.19337E-03   -0.22903E-02  4293   0.270E-01    0.363E-02
RMM:   2    -0.133038268752E+03   -0.93248E-04   -0.98755E-04  5309   0.617E-02    0.206E-02
RMM:   3    -0.133038255485E+03    0.13266E-04   -0.37041E-05  2758   0.183E-02    0.219E-02
RMM:   4    -0.133038249938E+03    0.55476E-05   -0.12591E-05  2319   0.165E-02
  57 F= -.13303825E+03 E0= -.13303848E+03  d E =-.269755E-03
quench:  g(F)=  0.000E+00 g(S)=  0.000E+00 dE (1.order)= 0.000E+00
 bond charge predicted
       N       E                     dE             d eps       ncg     rms          rms(c)
DAV:   1    -0.133038453451E+03   -0.19797E-03   -0.20558E-02  4482   0.263E-01    0.413E-02
RMM:   2    -0.133038567278E+03   -0.11383E-03   -0.10552E-03  5686   0.596E-02    0.419E-02
RMM:   3    -0.133038539051E+03    0.28227E-04   -0.51572E-05  2837   0.185E-02    0.332E-02
RMM:   4    -0.133038519640E+03    0.19411E-04   -0.16768E-05  2340   0.205E-02    0.150E-02
RMM:   5    -0.133038519663E+03   -0.23450E-07   -0.75922E-06  2248   0.133E-02
  58 F= -.13303852E+03 E0= -.13303874E+03  d E =-.269726E-03
quench:  g(F)=  0.000E+00 g(S)=  0.000E+00 dE (1.order)= 0.000E+00
 bond charge predicted
       N       E                     dE             d eps       ncg     rms          rms(c)
DAV:   1    -0.133038726506E+03   -0.20687E-03   -0.24183E-02  4239   0.280E-01    0.386E-02
RMM:   2    -0.133038823222E+03   -0.96716E-04   -0.10020E-03  5721   0.620E-02    0.239E-02
RMM:   3    -0.133038812309E+03    0.10912E-04   -0.36276E-05  2728   0.173E-02    0.268E-02
RMM:   4    -0.133038804419E+03    0.78906E-05   -0.11800E-05  2358   0.158E-02
  59 F= -.13303880E+03 E0= -.13303902E+03  d E =-.284755E-03
quench:  g(F)=  0.000E+00 g(S)=  0.000E+00 dE (1.order)= 0.000E+00
 bond charge predicted
       N       E                     dE             d eps       ncg     rms          rms(c)
DAV:   1    -0.133039022760E+03   -0.21045E-03   -0.24906E-02  4527   0.303E-01    0.449E-02
RMM:   2    -0.133039180190E+03   -0.15743E-03   -0.12572E-03  5824   0.669E-02    0.505E-02
RMM:   3    -0.133039126326E+03    0.53864E-04   -0.75249E-05  3265   0.236E-02    0.370E-02
RMM:   4    -0.133039101834E+03    0.24492E-04   -0.19357E-05  2358   0.211E-02    0.163E-02
RMM:   5    -0.133039101925E+03   -0.90979E-07   -0.81006E-06  2257   0.134E-02
  60 F= -.13303910E+03 E0= -.13303931E+03  d E =-.297506E-03
quench:  g(F)=  0.000E+00 g(S)=  0.000E+00 dE (1.order)= 0.000E+00
 bond charge predicted
       N       E                     dE             d eps       ncg     rms          rms(c)
DAV:   1    -0.133039327008E+03   -0.22517E-03   -0.29915E-02  4185   0.309E-01    0.431E-02
RMM:   2    -0.133039447263E+03   -0.12026E-03   -0.12296E-03  5963   0.687E-02    0.277E-02
RMM:   3    -0.133039433250E+03    0.14014E-04   -0.45937E-05  2845   0.185E-02    0.299E-02
RMM:   4    -0.133039423813E+03    0.94365E-05   -0.14175E-05  2379   0.169E-02
  61 F= -.13303942E+03 E0= -.13303963E+03  d E =-.321888E-03
quench:  g(F)=  0.000E+00 g(S)=  0.000E+00 dE (1.order)= 0.000E+00
 bond charge predicted
       N       E                     dE             d eps       ncg     rms          rms(c)
DAV:   1    -0.133039649385E+03   -0.21614E-03   -0.28759E-02  4572   0.327E-01    0.498E-02
RMM:   2    -0.133039838119E+03   -0.18873E-03   -0.15127E-03  5916   0.725E-02    0.571E-02
RMM:   3    -0.133039771320E+03    0.66799E-04   -0.93946E-05  3562   0.251E-02    0.404E-02
RMM:   4    -0.133039742020E+03    0.29299E-04   -0.20897E-05  2395   0.208E-02    0.182E-02
RMM:   5    -0.133039742109E+03   -0.88694E-07   -0.10126E-05  2287   0.148E-02
  62 F= -.13303974E+03 E0= -.13303994E+03  d E =-.318296E-03
quench:  g(F)=  0.000E+00 g(S)=  0.000E+00 dE (1.order)= 0.000E+00
 bond charge predicted
       N       E                     dE             d eps       ncg     rms          rms(c)
DAV:   1    -0.133039961593E+03   -0.21957E-03   -0.30883E-02  4320   0.315E-01    0.438E-02
RMM:   2    -0.133040088389E+03   -0.12680E-03   -0.13089E-03  5888   0.699E-02    0.277E-02
RMM:   3    -0.133040070825E+03    0.17564E-04   -0.48486E-05  2947   0.188E-02    0.290E-02
RMM:   4    -0.133040063831E+03    0.69940E-05   -0.15146E-05  2398   0.168E-02
  63 F= -.13304006E+03 E0= -.13304026E+03  d E =-.321722E-03
quench:  g(F)=  0.000E+00 g(S)=  0.000E+00 dE (1.order)= 0.000E+00
 bond charge predicted
       N       E                     dE             d eps       ncg     rms          rms(c)
DAV:   1    -0.133040279861E+03   -0.20904E-03   -0.24699E-02  4734   0.315E-01    0.483E-02
RMM:   2    -0.133040476878E+03   -0.19702E-03   -0.14013E-03  5778   0.706E-02    0.629E-02
RMM:   3    -0.133040384216E+03    0.92662E-04   -0.99407E-05  3752   0.273E-02    0.379E-02
RMM:   4    -0.133040359538E+03    0.24678E-04   -0.18539E-05  2389   0.184E-02    0.173E-02
RMM:   5    -0.133040359198E+03    0.33941E-06   -0.91131E-06  2283   0.130E-02
  64 F= -.13304036E+03 E0= -.13304055E+03  d E =-.295367E-03
quench:  g(F)=  0.000E+00 g(S)=  0.000E+00 dE (1.order)= 0.000E+00
 bond charge predicted
       N       E                     dE             d eps       ncg     rms          rms(c)
DAV:   1    -0.133040565535E+03   -0.20600E-03   -0.24988E-02  4356   0.285E-01    0.398E-02
RMM:   2    -0.133040667942E+03   -0.10241E-03   -0.10608E-03  5704   0.632E-02    0.251E-02
RMM:   3    -0.133040653066E+03    0.14877E-04   -0.42292E-05  2790   0.175E-02    0.255E-02
RMM:   4    -0.133040648868E+03    0.41975E-05   -0.12935E-05  2367   0.159E-02
  65 F= -.13304065E+03 E0= -.13304083E+03  d E =-.289670E-03
quench:  g(F)=  0.000E+00 g(S)=  0.000E+00 dE (1.order)= 0.000E+00
 bond charge predicted
       N       E                     dE             d eps       ncg     rms          rms(c)
DAV:   1    -0.133040859219E+03   -0.20615E-03   -0.21732E-02  4716   0.295E-01    0.441E-02
RMM:   2    -0.133041030238E+03   -0.17102E-03   -0.11780E-03  5684   0.654E-02    0.578E-02
RMM:   3    -0.133040947536E+03    0.82702E-04   -0.81917E-05  3500   0.254E-02    0.346E-02
RMM:   4    -0.133040927639E+03    0.19897E-04   -0.17381E-05  2365   0.188E-02    0.157E-02
RMM:   5    -0.133040927552E+03    0.86955E-07   -0.77387E-06  2261   0.123E-02
  66 F= -.13304093E+03 E0= -.13304110E+03  d E =-.278684E-03
quench:  g(F)=  0.000E+00 g(S)=  0.000E+00 dE (1.order)= 0.000E+00
 bond charge predicted
       N       E                     dE             d eps       ncg     rms          rms(c)
DAV:   1    -0.133041140685E+03   -0.21305E-03   -0.25075E-02  4176   0.283E-01    0.397E-02
RMM:   2    -0.133041242619E+03   -0.10193E-03   -0.10396E-03  5807   0.633E-02    0.259E-02
RMM:   3    -0.133041230465E+03    0.12154E-04   -0.38960E-05  2750   0.175E-02    0.277E-02
RMM:   4    -0.133041222546E+03    0.79198E-05   -0.12562E-05  2363   0.161E-02
  67 F= -.13304122E+03 E0= -.13304140E+03  d E =-.294994E-03
quench:  g(F)=  0.000E+00 g(S)=  0.000E+00 dE (1.order)= 0.000E+00
 bond charge predicted
       N       E                     dE             d eps       ncg     rms          rms(c)
DAV:   1    -0.133041441290E+03   -0.21082E-03   -0.24999E-02  4554   0.305E-01    0.460E-02
RMM:   2    -0.133041602712E+03   -0.16142E-03   -0.12862E-03  5840   0.672E-02    0.525E-02
RMM:   3    -0.133041545962E+03    0.56750E-04   -0.78671E-05  3286   0.236E-02    0.372E-02
RMM:   4    -0.133041521292E+03    0.24670E-04   -0.20254E-05  2367   0.213E-02    0.168E-02
RMM:   5    -0.133041521347E+03   -0.55239E-07   -0.89596E-06  2267   0.141E-02
  68 F= -.13304152E+03 E0= -.13304169E+03  d E =-.298801E-03
quench:  g(F)=  0.000E+00 g(S)=  0.000E+00 dE (1.order)= 0.000E+00
 bond charge predicted
       N       E                     dE             d eps       ncg     rms          rms(c)
DAV:   1    -0.133041741317E+03   -0.22003E-03   -0.29404E-02  4212   0.306E-01    0.425E-02
RMM:   2    -0.133041858929E+03   -0.11761E-03   -0.12092E-03  5907   0.679E-02    0.263E-02
RMM:   3    -0.133041845130E+03    0.13799E-04   -0.43922E-05  2848   0.183E-02    0.289E-02
RMM:   4    -0.133041836549E+03    0.85811E-05   -0.13980E-05  2385   0.167E-02
  69 F= -.13304184E+03 E0= -.13304200E+03  d E =-.315202E-03
quench:  g(F)=  0.000E+00 g(S)=  0.000E+00 dE (1.order)= 0.000E+00
 bond charge predicted
       N       E                     dE             d eps       ncg     rms          rms(c)
DAV:   1    -0.133042053552E+03   -0.20842E-03   -0.27466E-02  4608   0.322E-01    0.486E-02
RMM:   2    -0.133042237331E+03   -0.18378E-03   -0.14608E-03  5883   0.714E-02    0.561E-02
RMM:   3    -0.133042170079E+03    0.67253E-04   -0.91913E-05  3590   0.257E-02    0.395E-02
RMM:   4    -0.133042141823E+03    0.28255E-04   -0.19712E-05  2385   0.200E-02    0.177E-02
RMM:   5    -0.133042141710E+03    0.11284E-06   -0.90812E-06  2279   0.135E-02
  70 F= -.13304214E+03 E0= -.13304230E+03  d E =-.305161E-03
quench:  g(F)=  0.000E+00 g(S)=  0.000E+00 dE (1.order)= 0.000E+00
 bond charge predicted
       N       E                     dE             d eps       ncg     rms          rms(c)
DAV:   1    -0.133042347877E+03   -0.20605E-03   -0.29231E-02  4284   0.307E-01    0.423E-02
RMM:   2    -0.133042466747E+03   -0.11887E-03   -0.12330E-03  5864   0.682E-02    0.259E-02
RMM:   3    -0.133042449261E+03    0.17485E-04   -0.46360E-05  2883   0.179E-02    0.264E-02
RMM:   4    -0.133042444844E+03    0.44175E-05   -0.13929E-05  2380   0.163E-02
  71 F= -.13304244E+03 E0= -.13304260E+03  d E =-.303133E-03
quench:  g(F)=  0.000E+00 g(S)=  0.000E+00 dE (1.order)= 0.000E+00
 bond charge predicted
       N       E                     dE             d eps       ncg     rms          rms(c)
DAV:   1    -0.133042649576E+03   -0.20031E-03   -0.23768E-02  4725   0.310E-01    0.471E-02
RMM:   2    -0.133042845260E+03   -0.19568E-03   -0.13458E-03  5758   0.696E-02    0.627E-02
RMM:   3    -0.133042747922E+03    0.97338E-04   -0.97320E-05  3755   0.274E-02    0.367E-02
RMM:   4    -0.133042725224E+03    0.22697E-04   -0.17469E-05  2380   0.179E-02    0.168E-02
RMM:   5    -0.133042724994E+03    0.22993E-06   -0.87770E-06  2277   0.127E-02
  72 F= -.13304272E+03 E0= -.13304287E+03  d E =-.280151E-03
quench:  g(F)=  0.000E+00 g(S)=  0.000E+00 dE (1.order)= 0.000E+00
 bond charge predicted
       N       E                     dE             d eps       ncg     rms          rms(c)
DAV:   1    -0.133042921675E+03   -0.19645E-03   -0.24575E-02  4311   0.282E-01    0.392E-02
RMM:   2    -0.133043022813E+03   -0.10114E-03   -0.10441E-03  5711   0.630E-02    0.247E-02
RMM:   3    -0.133043008732E+03    0.14081E-04   -0.40373E-05  2782   0.177E-02    0.257E-02
RMM:   4    -0.133043003827E+03    0.49050E-05   -0.12595E-05  2362   0.159E-02
  73 F= -.13304300E+03 E0= -.13304315E+03  d E =-.278833E-03
quench:  g(F)=  0.000E+00 g(S)=  0.000E+00 dE (1.order)= 0.000E+00
 bond charge predicted
       N       E                     dE             d eps       ncg     rms          rms(c)
DAV:   1    -0.133043205625E+03   -0.19689E-03   -0.21711E-02  4707   0.295E-01    0.438E-02
RMM:   2    -0.133043370114E+03   -0.16449E-03   -0.11734E-03  5700   0.652E-02    0.556E-02
RMM:   3    -0.133043295051E+03    0.75063E-04   -0.79442E-05  3437   0.251E-02    0.346E-02
RMM:   4    -0.133043274754E+03    0.20297E-04   -0.17447E-05  2356   0.192E-02    0.157E-02
RMM:   5    -0.133043274677E+03    0.77016E-07   -0.74622E-06  2256   0.122E-02
  74 F= -.13304327E+03 E0= -.13304341E+03  d E =-.270850E-03
quench:  g(F)=  0.000E+00 g(S)=  0.000E+00 dE (1.order)= 0.000E+00
 bond charge predicted
       N       E                     dE             d eps       ncg     rms          rms(c)
DAV:   1    -0.133043480604E+03   -0.20585E-03   -0.25364E-02  4167   0.285E-01    0.399E-02
RMM:   2    -0.133043582734E+03   -0.10213E-03   -0.10453E-03  5839   0.635E-02    0.255E-02
RMM:   3    -0.133043570781E+03    0.11952E-04   -0.38568E-05  2742   0.175E-02    0.274E-02
RMM:   4    -0.133043563161E+03    0.76199E-05   -0.12495E-05  2365   0.162E-02
  75 F= -.13304356E+03 E0= -.13304370E+03  d E =-.288484E-03
quench:  g(F)=  0.000E+00 g(S)=  0.000E+00 dE (1.order)= 0.000E+00
 bond charge predicted
       N       E                     dE             d eps       ncg     rms          rms(c)
DAV:   1    -0.133043774754E+03   -0.20397E-03   -0.25296E-02  4563   0.308E-01    0.461E-02
RMM:   2    -0.133043935309E+03   -0.16056E-03   -0.13068E-03  5848   0.678E-02    0.510E-02
RMM:   3    -0.133043881613E+03    0.53696E-04   -0.77803E-05  3302   0.236E-02    0.375E-02
RMM:   4    -0.133043855997E+03    0.25616E-04   -0.19800E-05  2364   0.212E-02    0.168E-02
RMM:   5    -0.133043856183E+03   -0.18573E-06   -0.86485E-06  2265   0.137E-02
  76 F= -.13304386E+03 E0= -.13304398E+03  d E =-.293021E-03
quench:  g(F)=  0.000E+00 g(S)=  0.000E+00 dE (1.order)= 0.000E+00
 bond charge predicted
       N       E                     dE             d eps       ncg     rms          rms(c)
DAV:   1    -0.133044068381E+03   -0.21238E-03   -0.29537E-02  4185   0.307E-01    0.428E-02
RMM:   2    -0.133044186603E+03   -0.11822E-03   -0.12195E-03  5945   0.685E-02    0.261E-02
RMM:   3    -0.133044172169E+03    0.14434E-04   -0.44260E-05  2853   0.183E-02    0.284E-02
RMM:   4    -0.133044164576E+03    0.75933E-05   -0.14034E-05  2382   0.167E-02
  77 F= -.13304416E+03 E0= -.13304429E+03  d E =-.308393E-03
quench:  g(F)=  0.000E+00 g(S)=  0.000E+00 dE (1.order)= 0.000E+00
 bond charge predicted
       N       E                     dE             d eps       ncg     rms          rms(c)
DAV:   1    -0.133044375140E+03   -0.20297E-03   -0.26881E-02  4626   0.321E-01    0.488E-02
RMM:   2    -0.133044560828E+03   -0.18569E-03   -0.14544E-03  5871   0.715E-02    0.571E-02
RMM:   3    -0.133044489784E+03    0.71043E-04   -0.94263E-05  3645   0.262E-02    0.393E-02
RMM:   4    -0.133044461691E+03    0.28093E-04   -0.19341E-05  2385   0.197E-02    0.177E-02
RMM:   5    -0.133044461643E+03    0.48727E-07   -0.92974E-06  2280   0.135E-02
  78 F= -.13304446E+03 E0= -.13304458E+03  d E =-.297067E-03
quench:  g(F)=  0.000E+00 g(S)=  0.000E+00 dE (1.order)= 0.000E+00
 bond charge predicted
       N       E                     dE             d eps       ncg     rms          rms(c)
DAV:   1    -0.133044667300E+03   -0.20561E-03   -0.28266E-02  4293   0.302E-01    0.421E-02
RMM:   2    -0.133044782595E+03   -0.11529E-03   -0.11948E-03  5843   0.672E-02    0.262E-02
RMM:   3    -0.133044766260E+03    0.16335E-04   -0.46067E-05  2868   0.182E-02    0.267E-02
RMM:   4    -0.133044761406E+03    0.48542E-05   -0.14286E-05  2383   0.166E-02
  79 F= -.13304476E+03 E0= -.13304488E+03  d E =-.299763E-03
quench:  g(F)=  0.000E+00 g(S)=  0.000E+00 dE (1.order)= 0.000E+00
 bond charge predicted
       N       E                     dE             d eps       ncg     rms          rms(c)
DAV:   1    -0.133044969842E+03   -0.20358E-03   -0.23098E-02  4734   0.307E-01    0.465E-02
RMM:   2    -0.133045154188E+03   -0.18435E-03   -0.12937E-03  5750   0.685E-02    0.601E-02
RMM:   3    -0.133045066132E+03    0.88056E-04   -0.92612E-05  3671   0.269E-02    0.363E-02
RMM:   4    -0.133045043392E+03    0.22740E-04   -0.17544E-05  2374   0.183E-02    0.165E-02
RMM:   5    -0.133045043201E+03    0.19086E-06   -0.80603E-06  2269   0.123E-02
  80 F= -.13304504E+03 E0= -.13304515E+03  d E =-.281795E-03
quench:  g(F)=  0.000E+00 g(S)=  0.000E+00 dE (1.order)= 0.000E+00
 bond charge predicted
       N       E                     dE             d eps       ncg     rms          rms(c)
DAV:   1    -0.133045250495E+03   -0.20710E-03   -0.24944E-02  4275   0.283E-01    0.399E-02
RMM:   2    -0.133045351082E+03   -0.10059E-03   -0.10390E-03  5741   0.629E-02    0.248E-02
RMM:   3    -0.133045337580E+03    0.13501E-04   -0.37851E-05  2760   0.174E-02    0.259E-02
RMM:   4    -0.133045332346E+03    0.52343E-05   -0.12501E-05  2364   0.159E-02
  81 F= -.13304533E+03 E0= -.13304544E+03  d E =-.289145E-03
quench:  g(F)=  0.000E+00 g(S)=  0.000E+00 dE (1.order)= 0.000E+00
 bond charge predicted
       N       E                     dE             d eps       ncg     rms          rms(c)
DAV:   1    -0.133045546360E+03   -0.20878E-03   -0.23272E-02  4644   0.302E-01    0.453E-02
RMM:   2    -0.133045711339E+03   -0.16498E-03   -0.12318E-03  5766   0.665E-02    0.544E-02
RMM:   3    -0.133045643068E+03    0.68271E-04   -0.81823E-05  3465   0.250E-02    0.362E-02
RMM:   4    -0.133045619724E+03    0.23344E-04   -0.18409E-05  2367   0.198E-02    0.163E-02
RMM:   5    -0.133045619765E+03   -0.41378E-07   -0.79309E-06  2266   0.126E-02
  82 F= -.13304562E+03 E0= -.13304572E+03  d E =-.287419E-03
quench:  g(F)=  0.000E+00 g(S)=  0.000E+00 dE (1.order)= 0.000E+00
 bond charge predicted
       N       E                     dE             d eps       ncg     rms          rms(c)
DAV:   1    -0.133045836474E+03   -0.21675E-03   -0.27712E-02  4158   0.297E-01    0.416E-02
RMM:   2    -0.133045946561E+03   -0.11009E-03   -0.11334E-03  5886   0.662E-02    0.257E-02
RMM:   3    -0.133045933376E+03    0.13185E-04   -0.41424E-05  2784   0.179E-02    0.278E-02
RMM:   4    -0.133045925873E+03    0.75038E-05   -0.13079E-05  2372   0.164E-02
  83 F= -.13304593E+03 E0= -.13304602E+03  d E =-.306108E-03
quench:  g(F)=  0.000E+00 g(S)=  0.000E+00 dE (1.order)= 0.000E+00
 bond charge predicted
       N       E                     dE             d eps       ncg     rms          rms(c)
DAV:   1    -0.133046141974E+03   -0.20860E-03   -0.27004E-02  4554   0.318E-01    0.483E-02
RMM:   2    -0.133046316240E+03   -0.17427E-03   -0.14206E-03  5898   0.707E-02    0.534E-02
RMM:   3    -0.133046257481E+03    0.58759E-04   -0.88099E-05  3496   0.249E-02    0.392E-02
RMM:   4    -0.133046228952E+03    0.28529E-04   -0.20172E-05  2390   0.206E-02    0.175E-02
RMM:   5    -0.133046229108E+03   -0.15672E-06   -0.88390E-06  2271   0.137E-02
  84 F= -.13304623E+03 E0= -.13304632E+03  d E =-.303236E-03
quench:  g(F)=  0.000E+00 g(S)=  0.000E+00 dE (1.order)= 0.000E+00
 bond charge predicted
       N       E                     dE             d eps       ncg     rms          rms(c)
DAV:   1    -0.133046442825E+03   -0.21387E-03   -0.30101E-02  4230   0.310E-01    0.434E-02
RMM:   2    -0.133046563813E+03   -0.12099E-03   -0.12501E-03  5915   0.688E-02    0.270E-02
RMM:   3    -0.133046547983E+03    0.15830E-04   -0.45939E-05  2900   0.186E-02    0.281E-02
RMM:   4    -0.133046541463E+03    0.65198E-05   -0.14738E-05  2384   0.169E-02
  85 F= -.13304654E+03 E0= -.13304663E+03  d E =-.312355E-03
quench:  g(F)=  0.000E+00 g(S)=  0.000E+00 dE (1.order)= 0.000E+00
 bond charge predicted
       N       E                     dE             d eps       ncg     rms          rms(c)
DAV:   1    -0.133046754070E+03   -0.20609E-03   -0.25058E-02  4716   0.316E-01    0.481E-02
RMM:   2    -0.133046940202E+03   -0.18613E-03   -0.13904E-03  5811   0.702E-02    0.590E-02
RMM:   3    -0.133046860292E+03    0.79910E-04   -0.96445E-05  3704   0.271E-02    0.381E-02
RMM:   4    -0.133046834348E+03    0.25944E-04   -0.18880E-05  2380   0.190E-02    0.173E-02
RMM:   5    -0.133046834189E+03    0.15837E-06   -0.91330E-06  2285   0.128E-02
  86 F= -.13304683E+03 E0= -.13304691E+03  d E =-.292726E-03
quench:  g(F)=  0.000E+00 g(S)=  0.000E+00 dE (1.order)= 0.000E+00
 bond charge predicted
       N       E                     dE             d eps       ncg     rms          rms(c)
DAV:   1    -0.133047038727E+03   -0.20438E-03   -0.25796E-02  4302   0.288E-01    0.401E-02
RMM:   2    -0.133047143218E+03   -0.10449E-03   -0.10854E-03  5742   0.643E-02    0.246E-02
RMM:   3    -0.133047128496E+03    0.14722E-04   -0.42526E-05  2802   0.176E-02    0.250E-02
RMM:   4    -0.133047124652E+03    0.38449E-05   -0.12958E-05  2364   0.160E-02
  87 F= -.13304712E+03 E0= -.13304720E+03  d E =-.290462E-03
quench:  g(F)=  0.000E+00 g(S)=  0.000E+00 dE (1.order)= 0.000E+00
 bond charge predicted
       N       E                     dE             d eps       ncg     rms          rms(c)
DAV:   1    -0.133047331682E+03   -0.20319E-03   -0.22018E-02  4725   0.298E-01    0.448E-02
RMM:   2    -0.133047504347E+03   -0.17267E-03   -0.12065E-03  5709   0.664E-02    0.576E-02
RMM:   3    -0.133047421940E+03    0.82408E-04   -0.85516E-05  3560   0.261E-02    0.348E-02
RMM:   4    -0.133047401056E+03    0.20883E-04   -0.17288E-05  2365   0.186E-02    0.159E-02
RMM:   5    -0.133047400973E+03    0.82800E-07   -0.75339E-06  2265   0.121E-02
  88 F= -.13304740E+03 E0= -.13304747E+03  d E =-.276322E-03
quench:  g(F)=  0.000E+00 g(S)=  0.000E+00 dE (1.order)= 0.000E+00
 bond charge predicted
       N       E                     dE             d eps       ncg     rms          rms(c)
DAV:   1    -0.133047609583E+03   -0.20853E-03   -0.25077E-02  4185   0.283E-01    0.399E-02
RMM:   2    -0.133047710330E+03   -0.10075E-03   -0.10340E-03  5805   0.632E-02    0.253E-02
RMM:   3    -0.133047698258E+03    0.12071E-04   -0.38315E-05  2746   0.176E-02    0.269E-02
RMM:   4    -0.133047691084E+03    0.71738E-05   -0.12713E-05  2364   0.163E-02
  89 F= -.13304769E+03 E0= -.13304776E+03  d E =-.290111E-03
quench:  g(F)=  0.000E+00 g(S)=  0.000E+00 dE (1.order)= 0.000E+00
 bond charge predicted
       N       E                     dE             d eps       ncg     rms          rms(c)
DAV:   1    -0.133047905241E+03   -0.20698E-03   -0.24541E-02  4572   0.304E-01    0.458E-02
RMM:   2    -0.133048062741E+03   -0.15750E-03   -0.12698E-03  5830   0.668E-02    0.509E-02
RMM:   3    -0.133048008413E+03    0.54328E-04   -0.76986E-05  3312   0.236E-02    0.369E-02
RMM:   4    -0.133047983391E+03    0.25022E-04   -0.19594E-05  2367   0.211E-02    0.166E-02
RMM:   5    -0.133047983446E+03   -0.54933E-07   -0.82887E-06  2261   0.135E-02
  90 F= -.13304798E+03 E0= -.13304804E+03  d E =-.292362E-03
quench:  g(F)=  0.000E+00 g(S)=  0.000E+00 dE (1.order)= 0.000E+00
 bond charge predicted
       N       E                     dE             d eps       ncg     rms          rms(c)
DAV:   1    -0.133048197166E+03   -0.21377E-03   -0.28799E-02  4167   0.302E-01    0.425E-02
RMM:   2    -0.133048311266E+03   -0.11410E-03   -0.11767E-03  5933   0.673E-02    0.262E-02
RMM:   3    -0.133048298084E+03    0.13181E-04   -0.43532E-05  2827   0.183E-02    0.282E-02
RMM:   4    -0.133048290010E+03    0.80748E-05   -0.13953E-05  2376   0.169E-02
  91 F= -.13304829E+03 E0= -.13304835E+03  d E =-.306563E-03
quench:  g(F)=  0.000E+00 g(S)=  0.000E+00 dE (1.order)= 0.000E+00
 bond charge predicted
       N       E                     dE             d eps       ncg     rms          rms(c)
DAV:   1    -0.133048495682E+03   -0.19760E-03   -0.26268E-02  4626   0.315E-01    0.486E-02
RMM:   2    -0.133048670040E+03   -0.17436E-03   -0.14193E-03  5865   0.702E-02    0.545E-02
RMM:   3    -0.133048608876E+03    0.61165E-04   -0.90433E-05  3551   0.254E-02    0.391E-02
RMM:   4    -0.133048580311E+03    0.28565E-04   -0.20086E-05  2387   0.204E-02    0.177E-02
RMM:   5    -0.133048580140E+03    0.17118E-06   -0.92950E-06  2279   0.137E-02
  92 F= -.13304858E+03 E0= -.13304863E+03  d E =-.290130E-03
quench:  g(F)=  0.000E+00 g(S)=  0.000E+00 dE (1.order)= 0.000E+00
 bond charge predicted
       N       E                     dE             d eps       ncg     rms          rms(c)
DAV:   1    -0.133048780309E+03   -0.20000E-03   -0.27486E-02  4302   0.296E-01    0.417E-02
RMM:   2    -0.133048891759E+03   -0.11145E-03   -0.11610E-03  5817   0.662E-02    0.253E-02
RMM:   3    -0.133048876208E+03    0.15551E-04   -0.45756E-05  2874   0.179E-02    0.258E-02
RMM:   4    -0.133048871863E+03    0.43451E-05   -0.14174E-05  2380   0.165E-02
  93 F= -.13304887E+03 E0= -.13304892E+03  d E =-.291724E-03
quench:  g(F)=  0.000E+00 g(S)=  0.000E+00 dE (1.order)= 0.000E+00
 bond charge predicted
       N       E                     dE             d eps       ncg     rms          rms(c)
DAV:   1    -0.133049071151E+03   -0.19494E-03   -0.21684E-02  4788   0.299E-01    0.456E-02
RMM:   2    -0.133049247523E+03   -0.17637E-03   -0.12364E-03  5695   0.668E-02    0.589E-02
RMM:   3    -0.133049161747E+03    0.85776E-04   -0.88987E-05  3639   0.266E-02    0.353E-02
RMM:   4    -0.133049139960E+03    0.21787E-04   -0.17374E-05  2366   0.184E-02    0.163E-02
RMM:   5    -0.133049139739E+03    0.22099E-06   -0.83342E-06  2272   0.123E-02
  94 F= -.13304914E+03 E0= -.13304918E+03  d E =-.267875E-03
quench:  g(F)=  0.000E+00 g(S)=  0.000E+00 dE (1.order)= 0.000E+00
 bond charge predicted
       N       E                     dE             d eps       ncg     rms          rms(c)
DAV:   1    -0.133049337708E+03   -0.19775E-03   -0.23203E-02  4257   0.273E-01    0.389E-02
RMM:   2    -0.133049432678E+03   -0.94970E-04   -0.97544E-04  5730   0.616E-02    0.249E-02
RMM:   3    -0.133049421405E+03    0.11273E-04   -0.40797E-05  2746   0.176E-02    0.260E-02
RMM:   4    -0.133049414934E+03    0.64707E-05   -0.12617E-05  2363   0.162E-02
  95 F= -.13304941E+03 E0= -.13304945E+03  d E =-.275196E-03
quench:  g(F)=  0.000E+00 g(S)=  0.000E+00 dE (1.order)= 0.000E+00
 bond charge predicted
       N       E                     dE             d eps       ncg     rms          rms(c)
DAV:   1    -0.133049618460E+03   -0.19705E-03   -0.22166E-02  4617   0.292E-01    0.439E-02
RMM:   2    -0.133049765816E+03   -0.14736E-03   -0.11626E-03  5753   0.643E-02    0.497E-02
RMM:   3    -0.133049712153E+03    0.53663E-04   -0.71925E-05  3230   0.231E-02    0.350E-02
RMM:   4    -0.133049689802E+03    0.22351E-04   -0.18709E-05  2346   0.210E-02    0.159E-02
RMM:   5    -0.133049689830E+03   -0.27678E-07   -0.78418E-06  2253   0.132E-02
  96 F= -.13304969E+03 E0= -.13304972E+03  d E =-.274895E-03
quench:  g(F)=  0.000E+00 g(S)=  0.000E+00 dE (1.order)= 0.000E+00
 bond charge predicted
       N       E                     dE             d eps       ncg     rms          rms(c)
DAV:   1    -0.133049900442E+03   -0.21064E-03   -0.26650E-02  4158   0.291E-01    0.415E-02
RMM:   2    -0.133050007075E+03   -0.10663E-03   -0.10950E-03  5899   0.653E-02    0.259E-02
RMM:   3    -0.133049995712E+03    0.11363E-04   -0.41813E-05  2784   0.181E-02    0.282E-02
RMM:   4    -0.133049986390E+03    0.93223E-05   -0.13671E-05  2374   0.171E-02
  97 F= -.13304999E+03 E0= -.13305001E+03  d E =-.296560E-03
quench:  g(F)=  0.000E+00 g(S)=  0.000E+00 dE (1.order)= 0.000E+00
 bond charge predicted
       N       E                     dE             d eps       ncg     rms          rms(c)
DAV:   1    -0.133050200792E+03   -0.20508E-03   -0.26598E-02  4536   0.313E-01    0.480E-02
RMM:   2    -0.133050364167E+03   -0.16338E-03   -0.13793E-03  5920   0.694E-02    0.509E-02
RMM:   3    -0.133050313884E+03    0.50283E-04   -0.81515E-05  3339   0.237E-02    0.385E-02
RMM:   4    -0.133050285268E+03    0.28615E-04   -0.21058E-05  2374   0.218E-02    0.175E-02
RMM:   5    -0.133050285894E+03   -0.62573E-06   -0.94482E-06  2247   0.145E-02
  98 F= -.13305029E+03 E0= -.13305030E+03  d E =-.299504E-03
quench:  g(F)=  0.000E+00 g(S)=  0.000E+00 dE (1.order)= 0.000E+00
 bond charge predicted
       N       E                     dE             d eps       ncg     rms          rms(c)
DAV:   1    -0.133050496063E+03   -0.21079E-03   -0.30100E-02  4221   0.309E-01    0.437E-02
RMM:   2    -0.133050617049E+03   -0.12099E-03   -0.12579E-03  5962   0.696E-02    0.260E-02
RMM:   3    -0.133050601975E+03    0.15073E-04   -0.46428E-05  2918   0.186E-02    0.278E-02
RMM:   4    -0.133050595052E+03    0.69234E-05   -0.14847E-05  2386   0.171E-02
  99 F= -.13305060E+03 E0= -.13305061E+03  d E =-.309158E-03
quench:  g(F)=  0.000E+00 g(S)=  0.000E+00 dE (1.order)= 0.000E+00
 bond charge predicted
       N       E                     dE             d eps       ncg     rms          rms(c)
DAV:   1    -0.133050801908E+03   -0.19993E-03   -0.25289E-02  4707   0.315E-01    0.490E-02
RMM:   2    -0.133050985626E+03   -0.18372E-03   -0.14234E-03  5827   0.708E-02    0.578E-02
RMM:   3    -0.133050911379E+03    0.74247E-04   -0.98065E-05  3724   0.269E-02    0.387E-02
RMM:   4    -0.133050882887E+03    0.28492E-04   -0.19213E-05  2384   0.193E-02    0.176E-02
RMM:   5    -0.133050883217E+03   -0.32969E-06   -0.90106E-06  2252   0.132E-02
 100 F= -.13305088E+03 E0= -.13305089E+03  d E =-.288165E-03
quench:  g(F)=  0.000E+00 g(S)=  0.000E+00 dE (1.order)= 0.000E+00
 bond charge predicted
       N       E                     dE             d eps       ncg     rms          rms(c)
DAV:   1    -0.133051080504E+03   -0.19762E-03   -0.25617E-02  4302   0.286E-01    0.408E-02
RMM:   2    -0.133051185619E+03   -0.10512E-03   -0.10932E-03  5786   0.645E-02    0.253E-02
RMM:   3    -0.133051171136E+03    0.14483E-04   -0.44500E-05  2829   0.179E-02    0.255E-02
RMM:   4    -0.133051166680E+03    0.44566E-05   -0.14042E-05  2376   0.167E-02
 101 F= -.13305117E+03 E0= -.13305117E+03  d E =-.283463E-03
quench:  g(F)=  0.000E+00 g(S)=  0.000E+00 dE (1.order)= 0.000E+00
 bond charge predicted
       N       E                     dE             d eps       ncg     rms          rms(c)
DAV:   1    -0.133051368593E+03   -0.19746E-03   -0.20783E-02  4779   0.293E-01    0.444E-02
RMM:   2    -0.133051532411E+03   -0.16382E-03   -0.11640E-03  5687   0.650E-02    0.560E-02
RMM:   3    -0.133051455315E+03    0.77096E-04   -0.82290E-05  3508   0.258E-02    0.344E-02
RMM:   4    -0.133051433749E+03    0.21566E-04   -0.17607E-05  2347   0.192E-02    0.158E-02
RMM:   5    -0.133051434328E+03   -0.57893E-06   -0.80075E-06  2234   0.123E-02
 102 F= -.13305143E+03 E0= -.13305143E+03  d E =-.267649E-03
quench:  g(F)=  0.000E+00 g(S)=  0.000E+00 dE (1.order)= 0.000E+00
 bond charge predicted
       N       E                     dE             d eps       ncg     rms          rms(c)
DAV:   1    -0.133051643286E+03   -0.20954E-03   -0.23769E-02  4203   0.275E-01    0.394E-02
RMM:   2    -0.133051738795E+03   -0.95509E-04   -0.97985E-04  5797   0.620E-02    0.250E-02
RMM:   3    -0.133051728531E+03    0.10263E-04   -0.40212E-05  2731   0.176E-02    0.267E-02
RMM:   4    -0.133051720650E+03    0.78812E-05   -0.12846E-05  2361   0.166E-02
 103 F= -.13305172E+03 E0= -.13305171E+03  d E =-.286322E-03
quench:  g(F)=  0.000E+00 g(S)=  0.000E+00 dE (1.order)= 0.000E+00
 bond charge predicted
       N       E                     dE             d eps       ncg     rms          rms(c)
DAV:   1    -0.133051939582E+03   -0.21105E-03   -0.24182E-02  4536   0.300E-01    0.455E-02
RMM:   2    -0.133052085999E+03   -0.14642E-03   -0.12321E-03  5840   0.660E-02    0.475E-02
RMM:   3    -0.133052041958E+03    0.44041E-04   -0.72689E-05  3197   0.226E-02    0.366E-02
RMM:   4    -0.133052016027E+03    0.25931E-04   -0.19925E-05  2355   0.218E-02    0.165E-02
RMM:   5    -0.133052016827E+03   -0.79995E-06   -0.82627E-06  2228   0.139E-02
 104 F= -.13305202E+03 E0= -.13305200E+03  d E =-.296176E-03
quench:  g(F)=  0.000E+00 g(S)=  0.000E+00 dE (1.order)= 0.000E+00
 bond charge predicted
       N       E                     dE             d eps       ncg     rms          rms(c)
DAV:   1    -0.133052249214E+03   -0.23319E-03   -0.29907E-02  4122   0.307E-01    0.439E-02
RMM:   2    -0.133052367002E+03   -0.11779E-03   -0.12067E-03  5992   0.683E-02    0.277E-02
RMM:   3    -0.133052354536E+03    0.12466E-04   -0.46861E-05  2854   0.189E-02    0.298E-02
RMM:   4    -0.133052343810E+03    0.10726E-04   -0.14813E-05  2382   0.177E-02    0.147E-02
RMM:   5    -0.133052343015E+03    0.79555E-06   -0.11399E-05  2257   0.163E-02
 105 F= -.13305234E+03 E0= -.13305232E+03  d E =-.326188E-03
quench:  g(F)=  0.000E+00 g(S)=  0.000E+00 dE (1.order)= 0.000E+00
 bond charge predicted
       N       E                     dE             d eps       ncg     rms          rms(c)
DAV:   1    -0.133052582296E+03   -0.23849E-03   -0.30089E-02  4167   0.300E-01    0.494E-02
RMM:   2    -0.133052740175E+03   -0.15788E-03   -0.15152E-03  5953   0.740E-02    0.515E-02
RMM:   3    -0.133052697863E+03    0.42311E-04   -0.82694E-05  3247   0.254E-02    0.346E-02
RMM:   4    -0.133052673893E+03    0.23971E-04   -0.17533E-05  2391   0.193E-02    0.183E-02
RMM:   5    -0.133052672917E+03    0.97519E-06   -0.13394E-05  2265   0.183E-02
 106 F= -.13305267E+03 E0= -.13305264E+03  d E =-.329903E-03
quench:  g(F)=  0.000E+00 g(S)=  0.000E+00 dE (1.order)= 0.000E+00
 bond charge predicted
       N       E                     dE             d eps       ncg     rms          rms(c)
DAV:   1    -0.133052897130E+03   -0.22324E-03   -0.33489E-02  4185   0.320E-01    0.453E-02
RMM:   2    -0.133053031274E+03   -0.13414E-03   -0.13789E-03  5952   0.726E-02    0.275E-02
RMM:   3    -0.133053022194E+03    0.90797E-05   -0.55553E-05  3012   0.210E-02
 107 F= -.13305302E+03 E0= -.13305298E+03  d E =-.349276E-03
quench:  g(F)=  0.000E+00 g(S)=  0.000E+00 dE (1.order)= 0.000E+00
 bond charge predicted
       N       E                     dE             d eps       ncg     rms          rms(c)
DAV:   1    -0.133053180146E+03   -0.14887E-03   -0.26280E-02  4860   0.352E-01    0.521E-02
RMM:   2    -0.133053335077E+03   -0.15493E-03   -0.16732E-03  5745   0.788E-02    0.481E-02
RMM:   3    -0.133053285409E+03    0.49668E-04   -0.73013E-05  3036   0.230E-02    0.267E-02
RMM:   4    -0.133053282350E+03    0.30582E-05   -0.16644E-05  2338   0.188E-02
 108 F= -.13305328E+03 E0= -.13305324E+03  d E =-.260157E-03
quench:  g(F)=  0.000E+00 g(S)=  0.000E+00 dE (1.order)= 0.000E+00
 bond charge predicted
       N       E                     dE             d eps       ncg     rms          rms(c)
DAV:   1    -0.133053473293E+03   -0.18788E-03   -0.20619E-02  4761   0.276E-01    0.384E-02
RMM:   2    -0.133053617456E+03   -0.14416E-03   -0.96904E-04  5198   0.657E-02    0.438E-02
RMM:   3    -0.133053555035E+03    0.62421E-04   -0.76802E-05  3397   0.263E-02    0.298E-02
RMM:   4    -0.133053540015E+03    0.15020E-04   -0.16208E-05  2345   0.185E-02    0.126E-02
RMM:   5    -0.133053540220E+03   -0.20556E-06   -0.87461E-06  2275   0.129E-02
 109 F= -.13305354E+03 E0= -.13305350E+03  d E =-.257870E-03
quench:  g(F)=  0.000E+00 g(S)=  0.000E+00 dE (1.order)= 0.000E+00
 bond charge predicted
       N       E                     dE             d eps       ncg     rms          rms(c)
DAV:   1    -0.133053741567E+03   -0.20155E-03   -0.17094E-02  4113   0.224E-01    0.379E-02
RMM:   2    -0.133053826619E+03   -0.85053E-04   -0.87424E-04  5542   0.566E-02    0.368E-02
RMM:   3    -0.133053805959E+03    0.20660E-04   -0.43145E-05  2653   0.183E-02    0.250E-02
RMM:   4    -0.133053795948E+03    0.10011E-04   -0.15082E-05  2305   0.181E-02    0.145E-02
RMM:   5    -0.133053794627E+03    0.13208E-05   -0.77761E-06  2259   0.131E-02
 110 F= -.13305379E+03 E0= -.13305374E+03  d E =-.254407E-03
quench:  g(F)=  0.000E+00 g(S)=  0.000E+00 dE (1.order)= 0.000E+00
 bond charge predicted
       N       E                     dE             d eps       ncg     rms          rms(c)
DAV:   1    -0.133054004765E+03   -0.20882E-03   -0.22109E-02  4203   0.264E-01    0.374E-02
RMM:   2    -0.133054092626E+03   -0.87861E-04   -0.91199E-04  5726   0.607E-02    0.221E-02
RMM:   3    -0.133054084760E+03    0.78663E-05   -0.33789E-05  2675   0.172E-02
 111 F= -.13305408E+03 E0= -.13305402E+03  d E =-.290133E-03
quench:  g(F)=  0.000E+00 g(S)=  0.000E+00 dE (1.order)= 0.000E+00
 bond charge predicted
       N       E                     dE             d eps       ncg     rms          rms(c)
DAV:   1    -0.133054281318E+03   -0.18869E-03   -0.26550E-02  4590   0.329E-01    0.484E-02
RMM:   2    -0.133054412745E+03   -0.13143E-03   -0.14061E-03  5780   0.752E-02    0.386E-02
RMM:   3    -0.133054376131E+03    0.36615E-04   -0.58491E-05  2890   0.219E-02    0.247E-02
RMM:   4    -0.133054373017E+03    0.31138E-05   -0.15710E-05  2281   0.197E-02
 112 F= -.13305437E+03 E0= -.13305431E+03  d E =-.288257E-03
quench:  g(F)=  0.000E+00 g(S)=  0.000E+00 dE (1.order)= 0.000E+00
 bond charge predicted
       N       E                     dE             d eps       ncg     rms          rms(c)
DAV:   1    -0.133054604395E+03   -0.22826E-03   -0.31271E-02  4194   0.309E-01    0.447E-02
RMM:   2    -0.133054736141E+03   -0.13175E-03   -0.12610E-03  5970   0.708E-02    0.303E-02
RMM:   3    -0.133054733922E+03    0.22191E-05   -0.70367E-05  3164   0.226E-02
 113 F= -.13305473E+03 E0= -.13305466E+03  d E =-.360905E-03
quench:  g(F)=  0.000E+00 g(S)=  0.000E+00 dE (1.order)= 0.000E+00
 bond charge predicted
       N       E                     dE             d eps       ncg     rms          rms(c)
DAV:   1    -0.133054884066E+03   -0.14792E-03   -0.30173E-02  4869   0.388E-01    0.563E-02
RMM:   2    -0.133055073711E+03   -0.18964E-03   -0.18261E-03  5847   0.814E-02    0.587E-02
RMM:   3    -0.133055019665E+03    0.54046E-04   -0.89935E-05  3229   0.248E-02    0.365E-02
RMM:   4    -0.133054999590E+03    0.20075E-04   -0.20303E-05  2421   0.199E-02    0.234E-02
RMM:   5    -0.133054995950E+03    0.36408E-05   -0.21156E-05  2346   0.235E-02
 114 F= -.13305500E+03 E0= -.13305492E+03  d E =-.262027E-03
quench:  g(F)=  0.000E+00 g(S)=  0.000E+00 dE (1.order)= 0.000E+00
 bond charge predicted
       N       E                     dE             d eps       ncg     rms          rms(c)
DAV:   1    -0.133055198955E+03   -0.19936E-03   -0.25995E-02  4410   0.287E-01    0.398E-02
RMM:   2    -0.133055305817E+03   -0.10686E-03   -0.11446E-03  5373   0.655E-02    0.230E-02
RMM:   3    -0.133055286660E+03    0.19157E-04   -0.45797E-05  2924   0.191E-02    0.195E-02
RMM:   4    -0.133055287857E+03   -0.11973E-05   -0.16326E-05  2346   0.188E-02
 115 F= -.13305529E+03 E0= -.13305522E+03  d E =-.291908E-03
quench:  g(F)=  0.000E+00 g(S)=  0.000E+00 dE (1.order)= 0.000E+00
 bond charge predicted
       N       E                     dE             d eps       ncg     rms          rms(c)
DAV:   1    -0.133055485418E+03   -0.19876E-03   -0.18870E-02  4824   0.268E-01    0.431E-02
RMM:   2    -0.133055596573E+03   -0.11115E-03   -0.10595E-03  5657   0.587E-02    0.428E-02
RMM:   3    -0.133055567028E+03    0.29545E-04   -0.54408E-05  2875   0.188E-02    0.328E-02
RMM:   4    -0.133055547714E+03    0.19314E-04   -0.17533E-05  2342   0.210E-02    0.155E-02
RMM:   5    -0.133055547686E+03    0.28129E-07   -0.85040E-06  2267   0.134E-02
 116 F= -.13305555E+03 E0= -.13305547E+03  d E =-.259828E-03
quench:  g(F)=  0.000E+00 g(S)=  0.000E+00 dE (1.order)= 0.000E+00
 bond charge predicted
       N       E                     dE             d eps       ncg     rms          rms(c)
DAV:   1    -0.133055749271E+03   -0.20156E-03   -0.21661E-02  4212   0.267E-01    0.375E-02
RMM:   2    -0.133055836336E+03   -0.87065E-04   -0.90998E-04  5663   0.599E-02    0.219E-02
RMM:   3    -0.133055826772E+03    0.95647E-05   -0.33451E-05  2686   0.169E-02
 117 F= -.13305583E+03 E0= -.13305573E+03  d E =-.279086E-03
quench:  g(F)=  0.000E+00 g(S)=  0.000E+00 dE (1.order)= 0.000E+00
 bond charge predicted
       N       E                     dE             d eps       ncg     rms          rms(c)
DAV:   1    -0.133056011155E+03   -0.17482E-03   -0.23754E-02  4545   0.308E-01    0.460E-02
RMM:   2    -0.133056133511E+03   -0.12236E-03   -0.13034E-03  5667   0.736E-02    0.373E-02
RMM:   3    -0.133056099165E+03    0.34347E-04   -0.58558E-05  2910   0.239E-02    0.242E-02
RMM:   4    -0.133056097341E+03    0.18239E-05   -0.19504E-05  2280   0.229E-02
 118 F= -.13305610E+03 E0= -.13305600E+03  d E =-.270569E-03
quench:  g(F)=  0.000E+00 g(S)=  0.000E+00 dE (1.order)= 0.000E+00
 bond charge predicted
       N       E                     dE             d eps       ncg     rms          rms(c)
DAV:   1    -0.133056316643E+03   -0.21748E-03   -0.28829E-02  4635   0.328E-01    0.425E-02
RMM:   2    -0.133056462772E+03   -0.14613E-03   -0.12556E-03  5714   0.700E-02    0.372E-02
RMM:   3    -0.133056434111E+03    0.28661E-04   -0.75296E-05  3279   0.233E-02    0.344E-02
RMM:   4    -0.133056408768E+03    0.25344E-04   -0.22235E-05  2368   0.234E-02    0.154E-02
RMM:   5    -0.133056409979E+03   -0.12109E-05   -0.10262E-05  2251   0.147E-02
 119 F= -.13305641E+03 E0= -.13305631E+03  d E =-.312638E-03
quench:  g(F)=  0.000E+00 g(S)=  0.000E+00 dE (1.order)= 0.000E+00
 bond charge predicted
       N       E                     dE             d eps       ncg     rms          rms(c)
DAV:   1    -0.133056650672E+03   -0.24190E-03   -0.30737E-02  4203   0.311E-01    0.487E-02
RMM:   2    -0.133056810203E+03   -0.15953E-03   -0.15298E-03  6127   0.739E-02    0.474E-02
[...]
RMM:   6    -0.133246680110E+03    0.11192E-04   -0.50821E-05  3179   0.321E-02    0.177E-02
RMM:   7    -0.133246675941E+03    0.41689E-05   -0.18876E-05  2273   0.235E-02
 470 F= -.13324668E+03 E0= -.13324576E+03  d E =-.174378E-02
quench:  g(F)=  0.000E+00 g(S)=  0.000E+00 dE (1.order)= 0.000E+00
 bond charge predicted
       N       E                     dE             d eps       ncg     rms          rms(c)
DAV:   1    -0.133246986634E+03   -0.30652E-03   -0.70987E-01  4032   0.128E+00    0.196E-01
RMM:   2    -0.133248911828E+03   -0.19252E-02   -0.20701E-02  6630   0.249E-01    0.102E-01
RMM:   3    -0.133248686246E+03    0.22558E-03   -0.77447E-04  4670   0.656E-02    0.725E-02
RMM:   4    -0.133248748465E+03   -0.62220E-04   -0.24603E-04  4293   0.588E-02    0.665E-02
RMM:   5    -0.133248626379E+03    0.12209E-03   -0.15119E-04  4077   0.519E-02    0.319E-02
RMM:   6    -0.133248612380E+03    0.13998E-04   -0.79319E-05  3563   0.395E-02    0.230E-02
RMM:   7    -0.133248605401E+03    0.69791E-05   -0.25764E-05  2453   0.261E-02
 471 F= -.13324861E+03 E0= -.13324771E+03  d E =-.192946E-02
quench:  g(F)=  0.000E+00 g(S)=  0.000E+00 dE (1.order)= 0.000E+00
 bond charge predicted
       N       E                     dE             d eps       ncg     rms          rms(c)
DAV:   1    -0.133248745310E+03   -0.13293E-03   -0.78648E-01  4032   0.133E+00    0.229E-01
RMM:   2    -0.133251135964E+03   -0.23907E-02   -0.27853E-02  6637   0.268E-01    0.153E-01
RMM:   3    -0.133250605614E+03    0.53035E-03   -0.11018E-03  4726   0.657E-02    0.886E-02
RMM:   4    -0.133250753525E+03   -0.14791E-03   -0.31072E-04  4193   0.667E-02    0.864E-02
RMM:   5    -0.133250533627E+03    0.21990E-03   -0.21235E-04  4068   0.658E-02    0.341E-02
RMM:   6    -0.133250512961E+03    0.20667E-04   -0.63136E-05  3369   0.352E-02    0.196E-02
RMM:   7    -0.133250507717E+03    0.52439E-05   -0.21370E-05  2377   0.247E-02
 472 F= -.13325051E+03 E0= -.13324963E+03  d E =-.190232E-02
quench:  g(F)=  0.000E+00 g(S)=  0.000E+00 dE (1.order)= 0.000E+00
 bond charge predicted
       N       E                     dE             d eps       ncg     rms          rms(c)
DAV:   1    -0.133249729558E+03    0.78340E-03   -0.76826E-01  4122   0.131E+00    0.206E-01
RMM:   2    -0.133252040942E+03   -0.23114E-02   -0.24953E-02  6511   0.261E-01    0.130E-01
RMM:   3    -0.133251695212E+03    0.34573E-03   -0.12743E-03  5497   0.681E-02    0.732E-02
RMM:   4    -0.133251698192E+03   -0.29792E-05   -0.33698E-04  4369   0.639E-02    0.652E-02
RMM:   5    -0.133251616333E+03    0.81858E-04   -0.20732E-04  4067   0.620E-02    0.438E-02
RMM:   6    -0.133251557761E+03    0.58572E-04   -0.76827E-05  3625   0.353E-02    0.176E-02
RMM:   7    -0.133251556331E+03    0.14304E-05   -0.21966E-05  2361   0.225E-02
 473 F= -.13325156E+03 E0= -.13325071E+03  d E =-.104861E-02
quench:  g(F)=  0.000E+00 g(S)=  0.000E+00 dE (1.order)= 0.000E+00
 bond charge predicted
       N       E                     dE             d eps       ncg     rms          rms(c)
DAV:   1    -0.133252795673E+03   -0.12379E-02   -0.17132E-01  4149   0.558E-01    0.141E-01
RMM:   2    -0.133253532321E+03   -0.73665E-03   -0.97475E-03  6108   0.153E-01    0.120E-01
RMM:   3    -0.133253278589E+03    0.25373E-03   -0.50005E-04  4383   0.488E-02    0.635E-02
RMM:   4    -0.133253369530E+03   -0.90941E-04   -0.26539E-04  4232   0.565E-02    0.622E-02
RMM:   5    -0.133253238037E+03    0.13149E-03   -0.14012E-04  3995   0.506E-02    0.220E-02
RMM:   6    -0.133253227660E+03    0.10377E-04   -0.34373E-05  2747   0.269E-02    0.172E-02
RMM:   7    -0.133253223734E+03    0.39257E-05   -0.13022E-05  2233   0.201E-02
 474 F= -.13325322E+03 E0= -.13325237E+03  d E =-.166740E-02
quench:  g(F)=  0.000E+00 g(S)=  0.000E+00 dE (1.order)= 0.000E+00
 bond charge predicted
       N       E                     dE             d eps       ncg     rms          rms(c)
DAV:   1    -0.133253798292E+03   -0.57063E-03   -0.12355E-01  4203   0.533E-01    0.804E-02
RMM:   2    -0.133254135327E+03   -0.33703E-03   -0.35051E-03  6565   0.101E-01    0.411E-02
RMM:   3    -0.133254097864E+03    0.37463E-04   -0.11948E-04  3408   0.250E-02    0.289E-02
RMM:   4    -0.133254111466E+03   -0.13601E-04   -0.54082E-05  3375   0.320E-02    0.298E-02
RMM:   5    -0.133254086205E+03    0.25261E-04   -0.31039E-05  2502   0.265E-02    0.113E-02
RMM:   6    -0.133254084576E+03    0.16289E-05   -0.11123E-05  2271   0.164E-02
 475 F= -.13325408E+03 E0= -.13325324E+03  d E =-.860841E-03
quench:  g(F)=  0.000E+00 g(S)=  0.000E+00 dE (1.order)= 0.000E+00
 bond charge predicted
       N       E                     dE             d eps       ncg     rms          rms(c)
DAV:   1    -0.133254751065E+03   -0.66486E-03   -0.18269E-01  4149   0.650E-01    0.105E-01
RMM:   2    -0.133255290413E+03   -0.53935E-03   -0.60044E-03  6357   0.139E-01    0.634E-02
RMM:   3    -0.133255191873E+03    0.98540E-04   -0.22613E-04  3910   0.362E-02    0.392E-02
RMM:   4    -0.133255199777E+03   -0.79048E-05   -0.60839E-05  3494   0.335E-02
 476 F= -.13325520E+03 E0= -.13325434E+03  d E =-.111520E-02
quench:  g(F)=  0.000E+00 g(S)=  0.000E+00 dE (1.order)= 0.000E+00
 bond charge predicted
       N       E                     dE             d eps       ncg     rms          rms(c)
DAV:   1    -0.133255811537E+03   -0.61966E-03   -0.27944E-01  4455   0.913E-01    0.133E-01
RMM:   2    -0.133256794064E+03   -0.98253E-03   -0.97469E-03  6060   0.188E-01    0.799E-02
RMM:   3    -0.133256753137E+03    0.40927E-04   -0.57778E-04  4640   0.636E-02    0.849E-02
RMM:   4    -0.133256541753E+03    0.21138E-03   -0.16280E-04  4084   0.557E-02    0.433E-02
RMM:   5    -0.133256521183E+03    0.20570E-04   -0.55200E-05  3013   0.304E-02    0.202E-02
RMM:   6    -0.133256522218E+03   -0.10350E-05   -0.49729E-05  3289   0.344E-02
 477 F= -.13325652E+03 E0= -.13325570E+03  d E =-.132244E-02
quench:  g(F)=  0.000E+00 g(S)=  0.000E+00 dE (1.order)= 0.000E+00
 bond charge predicted
       N       E                     dE             d eps       ncg     rms          rms(c)
DAV:   1    -0.133257283914E+03   -0.76273E-03   -0.39180E-01  4068   0.959E-01    0.152E-01
RMM:   2    -0.133258461693E+03   -0.11778E-02   -0.12966E-02  5898   0.212E-01    0.889E-02
RMM:   3    -0.133258244751E+03    0.21694E-03   -0.52254E-04  4511   0.649E-02    0.579E-02
RMM:   4    -0.133258235974E+03    0.87772E-05   -0.14350E-04  4093   0.520E-02    0.442E-02
RMM:   5    -0.133258224372E+03    0.11602E-04   -0.96936E-05  3945   0.444E-02    0.275E-02
RMM:   6    -0.133258215428E+03    0.89435E-05   -0.50433E-05  3253   0.312E-02
 478 F= -.13325822E+03 E0= -.13325739E+03  d E =-.169321E-02
quench:  g(F)=  0.000E+00 g(S)=  0.000E+00 dE (1.order)= 0.000E+00
 bond charge predicted
       N       E                     dE             d eps       ncg     rms          rms(c)
DAV:   1    -0.133258884035E+03   -0.65966E-03   -0.53655E-01  4032   0.114E+00    0.174E-01
RMM:   2    -0.133260500638E+03   -0.16166E-02   -0.17523E-02  5795   0.253E-01    0.962E-02
RMM:   3    -0.133260222111E+03    0.27853E-03   -0.71589E-04  4522   0.805E-02    0.659E-02
RMM:   4    -0.133260198164E+03    0.23946E-04   -0.20602E-04  4141   0.622E-02    0.480E-02
RMM:   5    -0.133260181502E+03    0.16662E-04   -0.14244E-04  4019   0.536E-02    0.257E-02
RMM:   6    -0.133260185159E+03   -0.36570E-05   -0.39779E-05  2754   0.253E-02
 479 F= -.13326019E+03 E0= -.13325941E+03  d E =-.196973E-02
quench:  g(F)=  0.000E+00 g(S)=  0.000E+00 dE (1.order)= 0.000E+00
 bond charge predicted
       N       E                     dE             d eps       ncg     rms          rms(c)
DAV:   1    -0.133260794765E+03   -0.61326E-03   -0.67941E-01  4032   0.127E+00    0.202E-01
RMM:   2    -0.133262872730E+03   -0.20780E-02   -0.23180E-02  6234   0.277E-01    0.123E-01
RMM:   3    -0.133262506055E+03    0.36667E-03   -0.92131E-04  4640   0.776E-02    0.797E-02
RMM:   4    -0.133262581054E+03   -0.74999E-04   -0.26327E-04  4216   0.653E-02    0.771E-02
RMM:   5    -0.133262421127E+03    0.15993E-03   -0.14448E-04  4015   0.525E-02    0.290E-02
RMM:   6    -0.133262411799E+03    0.93281E-05   -0.55512E-05  3133   0.311E-02
 480 F= -.13326241E+03 E0= -.13326164E+03  d E =-.222664E-02
quench:  g(F)=  0.000E+00 g(S)=  0.000E+00 dE (1.order)= 0.000E+00
 bond charge predicted
       N       E                     dE             d eps       ncg     rms          rms(c)
DAV:   1    -0.133262908564E+03   -0.48744E-03   -0.87110E-01  4032   0.142E+00    0.216E-01
RMM:   2    -0.133265371924E+03   -0.24634E-02   -0.26340E-02  6113   0.302E-01    0.113E-01
RMM:   3    -0.133265076266E+03    0.29566E-03   -0.11141E-03  4549   0.983E-02    0.843E-02
RMM:   4    -0.133265089028E+03   -0.12762E-04   -0.38991E-04  4218   0.832E-02    0.689E-02
RMM:   5    -0.133265025638E+03    0.63390E-04   -0.22187E-04  4203   0.598E-02    0.456E-02
RMM:   6    -0.133264975876E+03    0.49763E-04   -0.12471E-04  3981   0.498E-02    0.213E-02
RMM:   7    -0.133264969671E+03    0.62045E-05   -0.26445E-05  2491   0.237E-02
 481 F= -.13326497E+03 E0= -.13326423E+03  d E =-.255787E-02
quench:  g(F)=  0.000E+00 g(S)=  0.000E+00 dE (1.order)= 0.000E+00
 bond charge predicted
       N       E                     dE             d eps       ncg     rms          rms(c)
DAV:   1    -0.133265170237E+03   -0.19436E-03   -0.83331E-01  4122   0.135E+00    0.252E-01
RMM:   2    -0.133267955258E+03   -0.27850E-02   -0.33904E-02  6366   0.292E-01    0.184E-01
RMM:   3    -0.133267206030E+03    0.74923E-03   -0.14721E-03  4920   0.747E-02    0.101E-01
RMM:   4    -0.133267371740E+03   -0.16571E-03   -0.43099E-04  4269   0.729E-02    0.901E-02
RMM:   5    -0.133267127878E+03    0.24386E-03   -0.29240E-04  4089   0.754E-02    0.413E-02
RMM:   6    -0.133267089168E+03    0.38709E-04   -0.88581E-05  3783   0.426E-02    0.262E-02
RMM:   7    -0.133267079932E+03    0.92356E-05   -0.28945E-05  2576   0.287E-02
 482 F= -.13326708E+03 E0= -.13326636E+03  d E =-.211026E-02
quench:  g(F)=  0.000E+00 g(S)=  0.000E+00 dE (1.order)= 0.000E+00
 bond charge predicted
       N       E                     dE             d eps       ncg     rms          rms(c)
DAV:   1    -0.133267461235E+03   -0.37207E-03   -0.54566E-01  4176   0.108E+00    0.186E-01
RMM:   2    -0.133269260598E+03   -0.17994E-02   -0.20148E-02  6484   0.226E-01    0.133E-01
RMM:   3    -0.133268901763E+03    0.35883E-03   -0.10760E-03  5540   0.589E-02    0.704E-02
RMM:   4    -0.133268821421E+03    0.80342E-04   -0.26447E-04  4327   0.538E-02    0.490E-02
RMM:   5    -0.133268816340E+03    0.50815E-05   -0.19265E-04  4041   0.614E-02    0.411E-02
RMM:   6    -0.133268766011E+03    0.50329E-04   -0.60609E-05  3241   0.317E-02    0.161E-02
RMM:   7    -0.133268763657E+03    0.23539E-05   -0.17410E-05  2321   0.205E-02
 483 F= -.13326876E+03 E0= -.13326807E+03  d E =-.168372E-02
quench:  g(F)=  0.000E+00 g(S)=  0.000E+00 dE (1.order)= 0.000E+00
 bond charge predicted
       N       E                     dE             d eps       ncg     rms          rms(c)
DAV:   1    -0.133269979514E+03   -0.12135E-02   -0.13120E-01  4176   0.510E-01    0.116E-01
RMM:   2    -0.133270521512E+03   -0.54200E-03   -0.68771E-03  6083   0.131E-01    0.949E-02
RMM:   3    -0.133270346827E+03    0.17469E-03   -0.32302E-04  4008   0.366E-02    0.505E-02
RMM:   4    -0.133270408321E+03   -0.61494E-04   -0.15099E-04  4087   0.454E-02    0.507E-02
RMM:   5    -0.133270321474E+03    0.86847E-04   -0.84086E-05  3816   0.400E-02    0.176E-02
RMM:   6    -0.133270315604E+03    0.58700E-05   -0.23512E-05  2433   0.231E-02
 484 F= -.13327032E+03 E0= -.13326963E+03  d E =-.155195E-02
quench:  g(F)=  0.000E+00 g(S)=  0.000E+00 dE (1.order)= 0.000E+00
 bond charge predicted
       N       E                     dE             d eps       ncg     rms          rms(c)
DAV:   1    -0.133271137957E+03   -0.81648E-03   -0.17114E-01  4185   0.639E-01    0.982E-02
RMM:   2    -0.133271644750E+03   -0.50679E-03   -0.54552E-03  5824   0.138E-01    0.545E-02
RMM:   3    -0.133271559530E+03    0.85219E-04   -0.21731E-04  4294   0.459E-02    0.381E-02
RMM:   4    -0.133271551454E+03    0.80758E-05   -0.70952E-05  3637   0.388E-02
 485 F= -.13327155E+03 E0= -.13327087E+03  d E =-.123585E-02
quench:  g(F)=  0.000E+00 g(S)=  0.000E+00 dE (1.order)= 0.000E+00
 bond charge predicted
       N       E                     dE             d eps       ncg     rms          rms(c)
DAV:   1    -0.133272432379E+03   -0.87285E-03   -0.27336E-01  4158   0.851E-01    0.131E-01
RMM:   2    -0.133273364607E+03   -0.93223E-03   -0.95889E-03  6178   0.186E-01    0.794E-02
RMM:   3    -0.133273297651E+03    0.66955E-04   -0.51834E-04  4608   0.595E-02    0.763E-02
RMM:   4    -0.133273153227E+03    0.14442E-03   -0.14744E-04  4069   0.525E-02    0.437E-02
RMM:   5    -0.133273122196E+03    0.31031E-04   -0.44835E-05  2723   0.280E-02    0.181E-02
RMM:   6    -0.133273123377E+03   -0.11813E-05   -0.40926E-05  2931   0.312E-02
 486 F= -.13327312E+03 E0= -.13327246E+03  d E =-.157192E-02
quench:  g(F)=  0.000E+00 g(S)=  0.000E+00 dE (1.order)= 0.000E+00
 bond charge predicted
       N       E                     dE             d eps       ncg     rms          rms(c)
DAV:   1    -0.133274170278E+03   -0.10481E-02   -0.41134E-01  4032   0.982E-01    0.153E-01
RMM:   2    -0.133275400163E+03   -0.12299E-02   -0.13393E-02  6109   0.215E-01    0.855E-02
RMM:   3    -0.133275193807E+03    0.20636E-03   -0.52276E-04  4572   0.612E-02    0.563E-02
RMM:   4    -0.133275184424E+03    0.93829E-05   -0.14674E-04  4050   0.507E-02    0.445E-02
RMM:   5    -0.133275172361E+03    0.12063E-04   -0.11021E-04  3901   0.478E-02    0.284E-02
RMM:   6    -0.133275163668E+03    0.86925E-05   -0.49610E-05  3254   0.313E-02
 487 F= -.13327516E+03 E0= -.13327451E+03  d E =-.204029E-02
quench:  g(F)=  0.000E+00 g(S)=  0.000E+00 dE (1.order)= 0.000E+00
 bond charge predicted
       N       E                     dE             d eps       ncg     rms          rms(c)
DAV:   1    -0.133276208983E+03   -0.10366E-02   -0.57273E-01  4041   0.117E+00    0.182E-01
RMM:   2    -0.133278000525E+03   -0.17915E-02   -0.19705E-02  5860   0.265E-01    0.104E-01
RMM:   3    -0.133277657705E+03    0.34282E-03   -0.78086E-04  4639   0.742E-02    0.659E-02
RMM:   4    -0.133277630342E+03    0.27363E-04   -0.16495E-04  4105   0.520E-02    0.440E-02
RMM:   5    -0.133277617008E+03    0.13334E-04   -0.16133E-04  4005   0.582E-02    0.279E-02
RMM:   6    -0.133277611653E+03    0.53550E-05   -0.43137E-05  2859   0.297E-02
 488 F= -.13327761E+03 E0= -.13327700E+03  d E =-.244798E-02
quench:  g(F)=  0.000E+00 g(S)=  0.000E+00 dE (1.order)= 0.000E+00
 bond charge predicted
       N       E                     dE             d eps       ncg     rms          rms(c)
DAV:   1    -0.133278716084E+03   -0.10991E-02   -0.77296E-01  4032   0.134E+00    0.208E-01
RMM:   2    -0.133280962331E+03   -0.22462E-02   -0.24616E-02  6349   0.283E-01    0.114E-01
RMM:   3    -0.133280623064E+03    0.33927E-03   -0.91195E-04  4771   0.714E-02    0.746E-02
RMM:   4    -0.133280688716E+03   -0.65652E-04   -0.23878E-04  4302   0.589E-02    0.665E-02
RMM:   5    -0.133280586019E+03    0.10270E-03   -0.16846E-04  4049   0.556E-02    0.353E-02
RMM:   6    -0.133280553199E+03    0.32820E-04   -0.52688E-05  2971   0.297E-02    0.161E-02
RMM:   7    -0.133280550300E+03    0.28986E-05   -0.20847E-05  2282   0.240E-02
 489 F= -.13328055E+03 E0= -.13327996E+03  d E =-.293865E-02
quench:  g(F)=  0.000E+00 g(S)=  0.000E+00 dE (1.order)= 0.000E+00
 bond charge predicted
       N       E                     dE             d eps       ncg     rms          rms(c)
DAV:   1    -0.133281663517E+03   -0.11103E-02   -0.98637E-01  4032   0.150E+00    0.240E-01
RMM:   2    -0.133284502023E+03   -0.28385E-02   -0.31836E-02  6611   0.301E-01    0.138E-01
RMM:   3    -0.133284026404E+03    0.47562E-03   -0.11624E-03  4791   0.676E-02    0.864E-02
RMM:   4    -0.133284088697E+03   -0.62294E-04   -0.25467E-04  4260   0.584E-02    0.723E-02
RMM:   5    -0.133284005274E+03    0.83423E-04   -0.21937E-04  4058   0.663E-02    0.439E-02
RMM:   6    -0.133283954302E+03    0.50972E-04   -0.88404E-05  3797   0.414E-02    0.225E-02
RMM:   7    -0.133283947037E+03    0.72656E-05   -0.27329E-05  2451   0.273E-02
 490 F= -.13328395E+03 E0= -.13328338E+03  d E =-.339674E-02
quench:  g(F)=  0.000E+00 g(S)=  0.000E+00 dE (1.order)= 0.000E+00
 bond charge predicted
       N       E                     dE             d eps       ncg     rms          rms(c)
DAV:   1    -0.133284865738E+03   -0.91144E-03   -0.12661E+00  4032   0.171E+00    0.263E-01
RMM:   2    -0.133288402618E+03   -0.35369E-02   -0.38653E-02  6323   0.345E-01    0.136E-01
RMM:   3    -0.133287917370E+03    0.48525E-03   -0.14443E-03  4717   0.902E-02    0.919E-02
RMM:   4    -0.133287964846E+03   -0.47476E-04   -0.41085E-04  4287   0.792E-02    0.713E-02
RMM:   5    -0.133287917213E+03    0.47633E-04   -0.28127E-04  4117   0.726E-02    0.501E-02
RMM:   6    -0.133287845412E+03    0.71802E-04   -0.13675E-04  3986   0.499E-02    0.308E-02
RMM:   7    -0.133287831436E+03    0.13976E-04   -0.43725E-05  2935   0.323E-02    0.765E-03
RMM:   8    -0.133287832321E+03   -0.88518E-06   -0.10595E-05  2294   0.106E-02
 491 F= -.13328783E+03 E0= -.13328731E+03  d E =-.388528E-02
quench:  g(F)=  0.000E+00 g(S)=  0.000E+00 dE (1.order)= 0.000E+00
 bond charge predicted
       N       E                     dE             d eps       ncg     rms          rms(c)
DAV:   1    -0.133288288040E+03   -0.45660E-03   -0.13746E+00  4086   0.176E+00    0.306E-01
RMM:   2    -0.133292777618E+03   -0.44896E-02   -0.53101E-02  6101   0.382E-01    0.207E-01
RMM:   3    -0.133291644741E+03    0.11329E-02   -0.20878E-03  4864   0.926E-02    0.116E-01
RMM:   4    -0.133291581419E+03    0.63322E-04   -0.39899E-04  4225   0.740E-02    0.666E-02
RMM:   5    -0.133291569278E+03    0.12141E-04   -0.46171E-04  4096   0.101E-01    0.555E-02
RMM:   6    -0.133291525016E+03    0.44262E-04   -0.12548E-04  3976   0.564E-02    0.871E-03
RMM:   7    -0.133291527100E+03   -0.20847E-05   -0.11310E-05  2374   0.118E-02
 492 F= -.13329153E+03 E0= -.13329103E+03  d E =-.369478E-02
quench:  g(F)=  0.000E+00 g(S)=  0.000E+00 dE (1.order)= 0.000E+00
 bond charge predicted
       N       E                     dE             d eps       ncg     rms          rms(c)
DAV:   1    -0.133290871438E+03    0.65358E-03   -0.12343E+00  4122   0.165E+00    0.268E-01
RMM:   2    -0.133294851530E+03   -0.39801E-02   -0.44093E-02  6264   0.356E-01    0.177E-01
RMM:   3    -0.133294121018E+03    0.73051E-03   -0.22481E-03  5566   0.917E-02    0.958E-02
RMM:   4    -0.133293975751E+03    0.14527E-03   -0.46939E-04  4373   0.741E-02    0.580E-02
RMM:   5    -0.133293928286E+03    0.47465E-04   -0.33600E-04  4132   0.817E-02    0.389E-02
RMM:   6    -0.133293912548E+03    0.15738E-04   -0.12082E-04  3929   0.446E-02    0.117E-02
RMM:   7    -0.133293918337E+03   -0.57891E-05   -0.22744E-05  2429   0.170E-02
 493 F= -.13329392E+03 E0= -.13329346E+03  d E =-.239124E-02
quench:  g(F)=  0.000E+00 g(S)=  0.000E+00 dE (1.order)= 0.000E+00
 bond charge predicted
       N       E                     dE             d eps       ncg     rms          rms(c)
DAV:   1    -0.133296269971E+03   -0.23574E-02   -0.26529E-01  4131   0.712E-01    0.173E-01
RMM:   2    -0.133297478699E+03   -0.12087E-02   -0.15716E-02  6015   0.198E-01    0.146E-01
RMM:   3    -0.133297070317E+03    0.40838E-03   -0.78240E-04  4916   0.520E-02    0.767E-02
RMM:   4    -0.133297138630E+03   -0.68313E-04   -0.35451E-04  4260   0.607E-02    0.630E-02
RMM:   5    -0.133297022220E+03    0.11641E-03   -0.16992E-04  4035   0.568E-02    0.281E-02
RMM:   6    -0.133296998997E+03    0.23223E-04   -0.47781E-05  3144   0.319E-02    0.206E-02
