 vasp.5.4.4.18Apr17-6-g9f103f2a35 (build Feb 06 2024 13:54:16) complex          
  
 POSCAR found type information on POSCAR  Cu Rh Cu N  O 
 05/POSCAR found :  5 types and      40 ions
 scaLAPACK will be used

 ----------------------------------------------------------------------------- 
|                                                                             |
|  ADVICE TO THIS USER RUNNING 'VASP/VAMP'   (HEAR YOUR MASTER'S VOICE ...):  |
|                                                                             |
|      You enforced a specific xc-type in the INCAR file,                     |
|      a different type was found on the POTCAR file                          |
|          I HOPE YOU KNOW, WHAT YOU ARE  DOING                               |
|                                                                             |
 ----------------------------------------------------------------------------- 

 LDA part: xc-table for Pade appr. of Perdew
 POSCAR found type information on POSCAR  Cu Rh Cu N  O 
 00/POSCAR found :  5 types and      40 ions
 POSCAR found type information on POSCAR  Cu Rh Cu N  O 
 06/POSCAR found :  5 types and      40 ions
 Jacobian:    19.9537150754471     
 POSCAR, INCAR and KPOINTS ok, starting setup
 FFT: planning ...
 WAVECAR not read
 entering main loop
       N       E                     dE             d eps       ncg     rms          rms(c)
  Solvation turned off during non-self-consistent phase (first NELMDL steps)
DAV:   1     0.449472509014E+04    0.44947E+04   -0.18309E+05 12240   0.211E+03
DAV:   2     0.689265646279E+03   -0.38055E+04   -0.36726E+04 12384   0.494E+02
DAV:   3    -0.214829370011E+02   -0.71075E+03   -0.65682E+03 13851   0.245E+02
DAV:   4    -0.152937248786E+03   -0.13145E+03   -0.11564E+03 21204   0.994E+01
DAV:   5    -0.167858334644E+03   -0.14921E+02   -0.14361E+02 18999   0.339E+01    0.464E+01
 Begin Solvation calculations
  rms_SCF =    8.71124841296377      tol =   0.871124841296377     
 Begin minimization
 Creating dielectric and ionic cavities
  area:      140.917478384349     
  volume:    639.655248742083     
  Acav:     7.398167615178307E-002
  Solving linear dielectric/ionic screening model
        iter                  A_solv                     rms
   LPB:       -0.394872267412082E+03   0.286070292535822E+03
   LPB:    0  -0.128916285144932E+02   0.583596373090001E+02  -0.514126E+01   0.000000E+00   0.289023E+02  -0.148594E+03
   LPB:    1  -0.200454944071259E+01   0.740957990080879E+01   0.953781E-02   0.000000E+00   0.692243E+02   0.836175E-14
   LPB:    2  -0.646851950226335E+00   0.106206717038821E+01   0.140114E-01   0.848906E-01   0.298123E+03   0.138186E-13
   LPB:    3  -0.413843148523483E+00   0.135972002992724E+01   0.255083E-01   0.942690E-01   0.565678E+03   0.117647E-13
   LPB:    4  -0.342507852606332E+00   0.106800678922711E+01   0.244860E-01   0.318930E+00   0.725845E+02   0.111340E-13
   LPB:    5  -0.305646792923710E+00   0.659736811130880E+00   0.231808E-01   0.545825E+00   0.403923E+03   0.848485E-14
  Finished solving LPB equations
  A_corr:   -0.231665116771927     
 End minimization
 Ecorr=   2057.20902293283     
 A_corr= -0.231665116771927     
 Ecorr_band=  -2057.44068804960     
 End Solvation calculations
RMM:   6    -0.174295419346E+03   -0.64371E+01   -0.38205E+02 12453   0.971E+01    0.431E+01
 Begin Solvation calculations
  rms_SCF =    8.71124841296377      tol =   0.871124841296377     
 Begin minimization
 Creating dielectric and ionic cavities
  area:      153.171407696744     
  volume:    651.223326610703     
  Acav:     8.041498904079082E-002
  Solving linear dielectric/ionic screening model
        iter                  A_solv                     rms
   LPB:       -0.365243531829504E+02   0.117489210266818E+03
   LPB:    0  -0.354910904464378E+02   0.116050227765074E+03   0.269940E+00   0.000000E+00   0.283599E+02   0.765549E+01
   LPB:    1  -0.320138683581395E+01   0.105892606570876E+02   0.875583E-02   0.000000E+00   0.624811E+02   0.128597E-15
   LPB:    2  -0.705274793528162E+00   0.198982698801730E+01   0.150997E-01   0.448258E-01   0.130423E+03   0.491938E-14
   LPB:    3  -0.398050896651760E+00   0.967807444462031E+00   0.230581E-01   0.806002E-01   0.163000E+03   0.519273E-14
   LPB:    4  -0.318463091232282E+00   0.101308418801150E+01   0.239003E-01   0.249926E+00   0.279393E+03   0.949912E-14
   LPB:    5  -0.284912396891407E+00   0.602549629857185E+00   0.236500E-01   0.426018E+00   0.951204E+02   0.117596E-13
  Finished solving LPB equations
  A_corr:   -0.204497407850616     
 End minimization
 Ecorr=   1949.68439621963     
 A_corr= -0.204497407850616     
 Ecorr_band=  -1949.88889362748     
 End Solvation calculations
RMM:   7    -0.167158731898E+03    0.71367E+01   -0.12295E+02 12724   0.482E+01    0.363E+01
 Begin Solvation calculations
  rms_SCF =    8.71124841296377      tol =   0.871124841296377     
 Begin minimization
 Creating dielectric and ionic cavities
  area:      170.010256836850     
  volume:    650.754955065873     
  Acav:     8.925538483934632E-002
  Solving linear dielectric/ionic screening model
        iter                  A_solv                     rms
   LPB:       -0.117311220072883E+02   0.662964238812446E+02
   LPB:    0  -0.117294664653832E+02   0.662885083929040E+02  -0.108010E-01   0.000000E+00   0.283819E+02  -0.306553E+00
   LPB:    1  -0.116015107401242E+01   0.610368743231898E+01   0.879361E-02   0.000000E+00   0.622073E+02  -0.172927E-16
   LPB:    2  -0.302178621041733E+00   0.844298732272484E+00   0.151237E-01   0.471993E-01   0.133702E+03  -0.988396E-15
   LPB:    3  -0.194404105573614E+00   0.352933070517960E+00   0.229813E-01   0.826659E-01   0.315430E+03  -0.505386E-14
   LPB:    4  -0.172300100711182E+00   0.193403639379565E+00   0.249559E-01   0.188868E+00   0.325804E+03  -0.562331E-14
  Finished solving LPB equations
  A_corr:   -8.304471587183519E-002
 End minimization
 Ecorr=   1939.69384974724     
 A_corr= -8.304471587183519E-002
 Ecorr_band=  -1939.77689446311     
 End Solvation calculations
RMM:   8    -0.147076762805E+03    0.20082E+02   -0.82763E+00 12545   0.121E+01    0.241E+01
 Begin Solvation calculations
  rms_SCF =    6.18971964401580      tol =   0.618971964401580     
 Begin minimization
 Creating dielectric and ionic cavities
  area:      144.920007026513     
  volume:    650.838382699226     
  Acav:     7.608300368891935E-002
  Solving linear dielectric/ionic screening model
        iter                  A_solv                     rms
   LPB:       -0.950349692932067E+00   0.170674431558096E+02
   LPB:    0  -0.945619488650828E+00   0.169562750880054E+02  -0.182585E-01   0.000000E+00   0.283780E+02  -0.518138E+00
   LPB:    1  -0.250906032718081E+00   0.167257768578545E+01   0.880164E-02   0.000000E+00   0.619272E+02   0.432459E-16
   LPB:    2  -0.184209787331976E+00   0.312493637719236E+00   0.165266E-01   0.511298E-01   0.108654E+03   0.314088E-14
   LPB:    3  -0.172890529610905E+00   0.232571509037519E+00   0.229837E-01   0.122034E+00   0.235149E+03   0.486777E-14
   LPB:    4  -0.168653862897458E+00   0.166339829769414E+00   0.321692E-01   0.267416E+00   0.591248E+02   0.613969E-14
  Finished solving LPB equations
  A_corr:   -9.257085920853875E-002
 End minimization
 Ecorr=   1917.61855518165     
 A_corr= -9.257085920853875E-002
 Ecorr_band=  -1917.71112604086     
 End Solvation calculations
RMM:   9    -0.143238022767E+03    0.38387E+01   -0.49749E+00 12555   0.926E+00    0.156E+01
 Begin Solvation calculations
  rms_SCF =    6.18971964401580      tol =   0.618971964401580     
 Begin minimization
 Creating dielectric and ionic cavities
  area:      137.456350357627     
  volume:    654.560773976090     
  Acav:     7.216458393775411E-002
  Solving linear dielectric/ionic screening model
        iter                  A_solv                     rms
   LPB:       -0.160325099939056E+01   0.220910689780616E+02
   LPB:    0  -0.141926905866926E+01   0.209546057940021E+02   0.114222E+00   0.000000E+00   0.282035E+02   0.322147E+01
   LPB:    1  -0.325331262447876E+00   0.199153348956833E+01   0.888196E-02   0.000000E+00   0.630642E+02   0.646295E-16
   LPB:    2  -0.216396971231511E+00   0.427801268112431E+00   0.166932E-01   0.529835E-01   0.132199E+03   0.131087E-14
   LPB:    3  -0.196375489766234E+00   0.232401898235853E+00   0.231388E-01   0.132596E+00   0.273911E+03   0.125819E-14
   LPB:    4  -0.189492814382520E+00   0.411823003402751E+00   0.271045E-01   0.293468E+00   0.448006E+03   0.383040E-16
  Finished solving LPB equations
  A_corr:   -0.117328230444766     
 End minimization
 Ecorr=   1869.83606552815     
 A_corr= -0.117328230444766     
 Ecorr_band=  -1869.95339375859     
 End Solvation calculations
RMM:  10    -0.139104595887E+03    0.41334E+01   -0.74965E+00 12632   0.751E+00    0.773E+00
 Begin Solvation calculations
  rms_SCF =    2.08286978156188      tol =   0.208286978156188     
 Begin minimization
 Creating dielectric and ionic cavities
  area:      134.034759679676     
  volume:    650.425621798732     
  Acav:     7.036824883182995E-002
  Solving linear dielectric/ionic screening model
        iter                  A_solv                     rms
   LPB:       -0.509017702939090E+00   0.941323353255672E+01
   LPB:    0  -0.468437141926155E+00   0.813852387922608E+01  -0.534608E-01   0.000000E+00   0.283973E+02  -0.151814E+01
   LPB:    1  -0.256850786945163E+00   0.112869617860213E+01   0.989348E-02   0.000000E+00   0.605672E+02   0.571474E-16
   LPB:    2  -0.229508894646084E+00   0.266278475793408E+00   0.144768E-01   0.883115E-01   0.178183E+03  -0.518763E-15
   LPB:    3  -0.221704598280145E+00   0.463362098271427E+00   0.278387E-01   0.148433E+00   0.280811E+03  -0.177612E-14
   LPB:    4  -0.216838204124959E+00   0.285701145002258E+00   0.252183E-01   0.688345E+00   0.406889E+02  -0.205023E-14
   LPB:    5  -0.212513786396315E+00   0.156190859907422E+00   0.334036E-01   0.670878E+00   0.134967E+03  -0.371065E-14
  Finished solving LPB equations
  A_corr:   -0.142145537564485     
 End minimization
 Ecorr=   1851.55382319385     
 A_corr= -0.142145537564485     
 Ecorr_band=  -1851.69596873142     
 End Solvation calculations
RMM:  11    -0.138294058270E+03    0.81054E+00   -0.10427E+00 12606   0.371E+00    0.473E+00
 Begin Solvation calculations
  rms_SCF =   0.833783625421945      tol =   8.337836254219451E-002
 Begin minimization
 Creating dielectric and ionic cavities
  area:      128.387801766595     
  volume:    647.790990951035     
  Acav:     6.740359592746213E-002
  Solving linear dielectric/ionic screening model
        iter                  A_solv                     rms
   LPB:       -0.279107219523311E+00   0.195519964356010E+01
   LPB:    0  -0.276875295857310E+00   0.140652763877164E+01  -0.125105E-01   0.000000E+00   0.285209E+02  -0.356809E+00
   LPB:    1  -0.241545168665279E+00   0.652524395763595E+00   0.159006E-01   0.000000E+00   0.988226E+02   0.522075E-17
   LPB:    2  -0.236744359528572E+00   0.286507973612008E+00   0.154489E-01   0.139857E+00   0.135199E+03   0.170500E-14
   LPB:    3  -0.233869095909303E+00   0.231005914574720E+00   0.273410E-01   0.338413E+00   0.981094E+02   0.378214E-14
   LPB:    4  -0.231599437392687E+00   0.356575097588533E+00   0.280432E-01   0.769608E+00   0.453750E+02   0.148978E-14
   LPB:    5  -0.229221987384069E+00   0.170479362357695E+00   0.272712E-01   0.107715E+01   0.109938E+03   0.931773E-15
   LPB:    6  -0.227351715259211E+00   0.659061719830555E-01   0.369174E-01   0.581120E+00   0.463149E+02   0.129414E-14
  Finished solving LPB equations
  A_corr:   -0.159948119331749     
 End minimization
 Ecorr=   1827.23967446154     
 A_corr= -0.159948119331749     
 Ecorr_band=  -1827.39962258087     
 End Solvation calculations
RMM:  12    -0.138184140124E+03    0.10992E+00   -0.57984E-01 12598   0.308E+00    0.331E+00
 Begin Solvation calculations
  rms_SCF =   0.799420916892097      tol =   7.994209168920968E-002
 Begin minimization
 Creating dielectric and ionic cavities
  area:      125.953487835247     
  volume:    644.166976548114     
  Acav:     6.612558111350464E-002
  Solving linear dielectric/ionic screening model
        iter                  A_solv                     rms
   LPB:       -0.344118603737412E+00   0.381252712104078E+01
   LPB:    0  -0.335020022745189E+00   0.301461835016770E+01  -0.251844E-01   0.000000E+00   0.286908E+02  -0.722558E+00
   LPB:    1  -0.273865508051174E+00   0.109290415902621E+01   0.122179E-01   0.000000E+00   0.781959E+02  -0.124957E-16
   LPB:    2  -0.263342192053439E+00   0.220095356823047E+00   0.136526E-01   0.153996E+00   0.165051E+03   0.108840E-13
   LPB:    3  -0.260525620201402E+00   0.194386969250068E+00   0.212325E-01   0.172100E+00   0.265881E+03   0.128738E-13
   LPB:    4  -0.259368801211454E+00   0.176068647573373E+00   0.249874E-01   0.349000E+00   0.569393E+02   0.134185E-13
   LPB:    5  -0.258104190125196E+00   0.130052389609890E+00   0.343102E-01   0.796140E+00   0.185154E+03   0.112905E-13
   LPB:    6  -0.256851900002103E+00   0.548080671872358E-01   0.406485E-01   0.835845E+00   0.444591E+02   0.859180E-14
  Finished solving LPB equations
  A_corr:   -0.190726318888598     
 End minimization
 Ecorr=   1812.90044367913     
 A_corr= -0.190726318888598     
 Ecorr_band=  -1813.09116999802     
 End Solvation calculations
RMM:  13    -0.138206557733E+03   -0.22418E-01   -0.35293E-01 12633   0.217E+00    0.250E+00
 Begin Solvation calculations
  rms_SCF =   0.510586499951417      tol =   5.105864999514168E-002
 Begin minimization
 Creating dielectric and ionic cavities
  area:      125.695983312033     
  volume:    642.343404404951     
  Acav:     6.599039123881753E-002
  Solving linear dielectric/ionic screening model
        iter                  A_solv                     rms
   LPB:       -0.322164399882468E+00   0.186339911419361E+01
   LPB:    0  -0.322009810431297E+00   0.191126650554827E+01   0.327784E-02   0.000000E+00   0.287762E+02   0.943239E-01
   LPB:    1  -0.292873256343075E+00   0.899595940812481E+00   0.124957E-01   0.000000E+00   0.953390E+02   0.390716E-17
   LPB:    2  -0.286892990937707E+00   0.167379029180680E+00   0.139537E-01   0.183803E+00   0.127139E+03  -0.576145E-15
   LPB:    3  -0.285072511998334E+00   0.923120677311906E-01   0.228333E-01   0.186032E+00   0.174321E+03  -0.114765E-14
   LPB:    4  -0.284027797965446E+00   0.114895674378882E+00   0.375826E-01   0.348653E+00   0.768744E+02  -0.108947E-14
   LPB:    5  -0.283106798508114E+00   0.162841909964271E+00   0.320761E-01   0.103292E+01   0.181118E+03  -0.102243E-14
   LPB:    6  -0.282299164957642E+00   0.905467145762468E-01   0.303251E-01   0.927543E+00   0.345651E+02  -0.586485E-15
   LPB:    7  -0.281705224801612E+00   0.397378759474426E-01   0.313171E-01   0.712115E+00   0.154987E+03  -0.152262E-17
  Finished solving LPB equations
  A_corr:   -0.215714833562794     
 End minimization
 Ecorr=   1792.77429145277     
 A_corr= -0.215714833562794     
 Ecorr_band=  -1792.99000628633     
 End Solvation calculations
RMM:  14    -0.138151625294E+03    0.54932E-01   -0.69461E-02 12678   0.945E-01    0.188E+00
 Begin Solvation calculations
  rms_SCF =   0.423175048722764      tol =   4.231750487227636E-002
 Begin minimization
 Creating dielectric and ionic cavities
  area:      126.057570868815     
  volume:    640.158485298177     
  Acav:     6.618022470612789E-002
  Solving linear dielectric/ionic screening model
        iter                  A_solv                     rms
   LPB:       -0.370151572204618E+00   0.135564215097537E+01
   LPB:    0  -0.369865998921786E+00   0.149552043285585E+01   0.444718E-02   0.000000E+00   0.288787E+02   0.128429E+00
   LPB:    1  -0.328968936774750E+00   0.106854604593118E+01   0.156565E-01   0.000000E+00   0.114686E+03  -0.474549E-17
   LPB:    2  -0.322122472625527E+00   0.271121826631134E+00   0.136504E-01   0.192010E+00   0.833136E+02  -0.401946E-14
   LPB:    3  -0.319710136120606E+00   0.135274472080381E+00   0.197212E-01   0.243885E+00   0.221266E+03  -0.485935E-14
   LPB:    4  -0.318715421903471E+00   0.143600707984828E+00   0.267943E-01   0.303494E+00   0.823420E+02  -0.532075E-14
   LPB:    5  -0.317972344661727E+00   0.136607174398314E+00   0.273404E-01   0.732104E+00   0.227016E+03  -0.543373E-14
   LPB:    6  -0.317232826068241E+00   0.567033915202675E-01   0.363682E-01   0.748167E+00   0.448039E+02  -0.619561E-14
   LPB:    7  -0.316647783497469E+00   0.308552581743852E-01   0.366759E-01   0.784475E+00   0.109249E+03  -0.764785E-14
  Finished solving LPB equations
  A_corr:   -0.250467558791341     
 End minimization
 Ecorr=   1769.13412653959     
 A_corr= -0.250467558791341     
 Ecorr_band=  -1769.38459409838     
 End Solvation calculations
RMM:  15    -0.138112990995E+03    0.38634E-01   -0.93823E-02 12519   0.114E+00    0.136E+00
 Begin Solvation calculations
  rms_SCF =   0.423175048722764      tol =   4.231750487227636E-002
 Begin minimization
 Creating dielectric and ionic cavities
  area:      125.616858497746     
  volume:    639.318277481170     
  Acav:     6.594885071131683E-002
  Solving linear dielectric/ionic screening model
        iter                  A_solv                     rms
   LPB:       -0.338977459439345E+00   0.633953435604038E+00
   LPB:    0  -0.338976773696155E+00   0.625580194287098E+00  -0.217777E-03   0.000000E+00   0.289181E+02  -0.629768E-02
   LPB:    1  -0.333324831114400E+00   0.421464206086656E+00   0.151573E-01   0.000000E+00   0.904443E+02   0.260349E-18
   LPB:    2  -0.332132758583723E+00   0.101602782788842E+00   0.142013E-01   0.225111E+00   0.894371E+02  -0.126231E-14
   LPB:    3  -0.331728520069357E+00   0.783312082345033E-01   0.209162E-01   0.230240E+00   0.262844E+03  -0.133127E-14
   LPB:    4  -0.331496168279715E+00   0.875735029962397E-01   0.288862E-01   0.416198E+00   0.545901E+02  -0.132543E-14
   LPB:    5  -0.331139480082138E+00   0.772842010285499E-01   0.392144E-01   0.113080E+01   0.128390E+03  -0.141380E-14
   LPB:    6  -0.330720319816689E+00   0.338296524088725E-01   0.412545E-01   0.111703E+01   0.351336E+02  -0.211435E-14
  Finished solving LPB equations
  A_corr:   -0.264771469105372     
 End minimization
 Ecorr=   1757.87131373484     
 A_corr= -0.264771469105372     
 Ecorr_band=  -1758.13608520395     
 End Solvation calculations
RMM:  16    -0.138099845642E+03    0.13145E-01   -0.30582E-02 12720   0.680E-01    0.925E-01
 Begin Solvation calculations
  rms_SCF =   0.423175048722764      tol =   4.231750487227636E-002
 Begin minimization
 Creating dielectric and ionic cavities
  area:      125.287802245060     
  volume:    639.170857077745     
  Acav:     6.577609617865636E-002
  Solving linear dielectric/ionic screening model
        iter                  A_solv                     rms
   LPB:       -0.335144558454689E+00   0.218218011655335E+00
   LPB:    0  -0.335126197747223E+00   0.235677725126128E+00   0.112674E-02   0.000000E+00   0.289250E+02   0.325909E-01
   LPB:    1  -0.334312978494123E+00   0.895510270625438E-01   0.176967E-01   0.000000E+00   0.828655E+02  -0.123426E-17
   LPB:    2  -0.334190103357909E+00   0.510338093082769E-01   0.141594E-01   0.188844E+00   0.231110E+03  -0.522053E-15
   LPB:    3  -0.334143383497144E+00   0.281427685481514E-01   0.197038E-01   0.273233E+00   0.130248E+03  -0.607658E-15
   LPB:    4  -0.334056226436059E+00   0.414328367477718E-01   0.618114E-01   0.594679E+00   0.646944E+02  -0.594168E-15
  Finished solving LPB equations
  A_corr:   -0.268280130257403     
 End minimization
 Ecorr=   1754.75183185974     
 A_corr= -0.268280130257403     
 Ecorr_band=  -1755.02011199000     
 End Solvation calculations
RMM:  17    -0.138098341228E+03    0.15044E-02   -0.58883E-03 13748   0.232E-01    0.762E-01
 Begin Solvation calculations
  rms_SCF =   0.423175048722764      tol =   4.231750487227636E-002
 Begin minimization
 Creating dielectric and ionic cavities
  area:      125.046230058126     
  volume:    638.952587241167     
  Acav:     6.564927078051609E-002
  Solving linear dielectric/ionic screening model
        iter                  A_solv                     rms
   LPB:       -0.347849871347003E+00   0.845962302691399E+00
   LPB:    0  -0.347748225936357E+00   0.867280666112534E+00   0.265061E-02   0.000000E+00   0.289352E+02   0.766959E-01
   LPB:    1  -0.342108113983554E+00   0.301461122951115E+00   0.159292E-01   0.000000E+00   0.569188E+02   0.538979E-17
   LPB:    2  -0.341290502429375E+00   0.979106496625375E-01   0.124414E-01   0.185602E+00   0.190908E+03   0.683318E-16
   LPB:    3  -0.340965793503772E+00   0.339549914410453E-01   0.231813E-01   0.213147E+00   0.146090E+03   0.980260E-16
   LPB:    4  -0.340786761928998E+00   0.438909064004760E-01   0.330531E-01   0.386689E+00   0.998390E+02  -0.193107E-15
   LPB:    5  -0.340666642214868E+00   0.625026452733689E-01   0.304583E-01   0.728101E+00   0.143793E+03  -0.240475E-15
   LPB:    6  -0.340553377444061E+00   0.327045655263578E-01   0.308612E-01   0.930622E+00   0.478596E+02  -0.373456E-15
  Finished solving LPB equations
  A_corr:   -0.274904106663545     
 End minimization
 Ecorr=   1747.92135272367     
 A_corr= -0.274904106663545     
 Ecorr_band=  -1748.19625683034     
 End Solvation calculations
RMM:  18    -0.138096057520E+03    0.22837E-02   -0.65744E-03 12559   0.244E-01    0.379E-01
 Begin Solvation calculations
  rms_SCF =   0.423175048722764      tol =   4.231750487227636E-002
 Begin minimization
 Creating dielectric and ionic cavities
  area:      125.289465643166     
  volume:    638.512714339494     
  Acav:     6.577696946266190E-002
  Solving linear dielectric/ionic screening model
        iter                  A_solv                     rms
   LPB:       -0.362442638248060E+00   0.961709281339357E+00
   LPB:    0  -0.362411757480084E+00   0.983461330591412E+00   0.146046E-02   0.000000E+00   0.289558E+02   0.422890E-01
   LPB:    1  -0.353130348690196E+00   0.325422303993763E+00   0.170144E-01   0.000000E+00   0.619669E+02   0.151826E-17
   LPB:    2  -0.351907030474466E+00   0.150045253888016E+00   0.132130E-01   0.169723E+00   0.208404E+03   0.100969E-15
   LPB:    3  -0.351484739558698E+00   0.546345380498451E-01   0.190435E-01   0.239512E+00   0.129181E+03   0.611695E-16
   LPB:    4  -0.351254601234999E+00   0.679992366875303E-01   0.302558E-01   0.343017E+00   0.998287E+02   0.450457E-15
   LPB:    5  -0.351073125831333E+00   0.741768212011949E-01   0.301196E-01   0.792116E+00   0.106472E+03   0.803303E-15
   LPB:    6  -0.350895368217835E+00   0.311866109167910E-01   0.316241E-01   0.932912E+00   0.489441E+02   0.154631E-14
  Finished solving LPB equations
  A_corr:   -0.285118398755173     
 End minimization
 Ecorr=   1739.81520779481     
 A_corr= -0.285118398755173     
 Ecorr_band=  -1740.10032619356     
 End Solvation calculations
RMM:  19    -0.138096664709E+03   -0.60719E-03   -0.56349E-03 12638   0.204E-01    0.204E-01
 Begin Solvation calculations
  rms_SCF =   0.285178538482867      tol =   2.851785384828665E-002
 Begin minimization
 Creating dielectric and ionic cavities
  area:      125.660961944296     
  volume:    637.993555660238     
  Acav:     6.597200502075513E-002
  Solving linear dielectric/ionic screening model
        iter                  A_solv                     rms
   LPB:       -0.367607157452035E+00   0.649633546355790E+00
   LPB:    0  -0.367510511032682E+00   0.562062653226090E+00  -0.258260E-02   0.000000E+00   0.289802E+02  -0.748442E-01
   LPB:    1  -0.362275224605856E+00   0.172133981464102E+00   0.176929E-01   0.000000E+00   0.867681E+02   0.122365E-17
   LPB:    2  -0.361608129702954E+00   0.949651399152452E-01   0.160233E-01   0.140700E+00   0.147524E+03  -0.549192E-15
   LPB:    3  -0.361396382175168E+00   0.526258511348122E-01   0.227922E-01   0.223149E+00   0.804988E+02  -0.192037E-14
   LPB:    4  -0.361223622538662E+00   0.612181925567120E-01   0.351681E-01   0.528763E+00   0.108437E+03  -0.300718E-14
   LPB:    5  -0.361071776450202E+00   0.959737697535654E-01   0.293387E-01   0.105359E+01   0.108323E+03  -0.393179E-14
   LPB:    6  -0.360928997998118E+00   0.442177457840437E-01   0.232154E-01   0.118829E+01   0.452315E+02  -0.482227E-14
   LPB:    7  -0.360813194251702E+00   0.134041261629657E-01   0.332700E-01   0.565957E+00   0.168711E+03  -0.573133E-14
  Finished solving LPB equations
  A_corr:   -0.294841189230947     
 End minimization
 Ecorr=   1733.30849244853     
 A_corr= -0.294841189230947     
 Ecorr_band=  -1733.60333363776     
 End Solvation calculations
RMM:  20    -0.138097229536E+03   -0.56483E-03   -0.15303E-03 13743   0.102E-01    0.188E-01
 Begin Solvation calculations
  rms_SCF =   0.285178538482867      tol =   2.851785384828665E-002
 Begin minimization
 Creating dielectric and ionic cavities
  area:      125.887195696638     
  volume:    637.713533485075     
  Acav:     6.609077774073505E-002
  Solving linear dielectric/ionic screening model
        iter                  A_solv                     rms
   LPB:       -0.369580650139335E+00   0.513644104320857E+00
   LPB:    0  -0.369463128801305E+00   0.415503277408606E+00  -0.284724E-02   0.000000E+00   0.289933E+02  -0.825510E-01
   LPB:    1  -0.367251480016472E+00   0.118510849498185E+00   0.169051E-01   0.000000E+00   0.745141E+02  -0.860295E-18
   LPB:    2  -0.366962334431575E+00   0.561697382908772E-01   0.154183E-01   0.143345E+00   0.164290E+03  -0.772659E-15
   LPB:    3  -0.366883201102114E+00   0.175257726528110E-01   0.211289E-01   0.199711E+00   0.956313E+02  -0.854725E-15
   LPB:    4  -0.366843863565651E+00   0.324775231583455E-01   0.337456E-01   0.311248E+00   0.275870E+03  -0.941490E-15
   LPB:    5  -0.366806175750884E+00   0.551716156184913E-01   0.322281E-01   0.100318E+01   0.593419E+02  -0.104264E-14
   LPB:    6  -0.366753320760319E+00   0.260728180563350E-01   0.286961E-01   0.157506E+01   0.551632E+02  -0.116627E-14
  Finished solving LPB equations
  A_corr:   -0.300662543019584     
 End minimization
 Ecorr=   1730.35003481405     
 A_corr= -0.300662543019584     
 Ecorr_band=  -1730.65069735707     
 End Solvation calculations
RMM:  21    -0.138097548043E+03   -0.31851E-03   -0.60502E-04 12349   0.697E-02    0.147E-01
 Begin Solvation calculations
  rms_SCF =   0.258422350595013      tol =   2.584223505950132E-002
 Begin minimization
 Creating dielectric and ionic cavities
  area:      126.480962006245     
  volume:    637.191343672441     
  Acav:     6.640250505327866E-002
  Solving linear dielectric/ionic screening model
        iter                  A_solv                     rms
   LPB:       -0.404334663025842E+00   0.149524156323468E+01
   LPB:    0  -0.403270679775246E+00   0.121730886054522E+01  -0.856348E-02   0.000000E+00   0.290178E+02  -0.248493E+00
   LPB:    1  -0.386089771809701E+00   0.303328983576898E+00   0.166506E-01   0.000000E+00   0.716176E+02   0.215349E-16
   LPB:    2  -0.383956731997183E+00   0.153517621551070E+00   0.155284E-01   0.133123E+00   0.174600E+03   0.552193E-15
   LPB:    3  -0.383398926252377E+00   0.591606488600171E-01   0.209044E-01   0.194256E+00   0.867511E+02   0.174434E-14
   LPB:    4  -0.383139889276877E+00   0.774800607983882E-01   0.278733E-01   0.348279E+00   0.275515E+03   0.105532E-14
   LPB:    5  -0.382998386163063E+00   0.915167976522695E-01   0.240732E-01   0.632498E+00   0.759602E+02   0.403084E-15
   LPB:    6  -0.382879960820688E+00   0.353991276574760E-01   0.227890E-01   0.884069E+00   0.102099E+03  -0.118113E-16
   LPB:    7  -0.382775669699706E+00   0.131750549837261E-01   0.349046E-01   0.574970E+00   0.143610E+03  -0.673716E-15
  Finished solving LPB equations
  A_corr:   -0.316373164646427     
 End minimization
 Ecorr=   1724.13674756766     
 A_corr= -0.316373164646427     
 Ecorr_band=  -1724.45312073231     
 End Solvation calculations
RMM:  22    -0.138099170458E+03   -0.16224E-02   -0.22178E-03 12390   0.890E-02    0.106E-01
 Begin Solvation calculations
  rms_SCF =   0.176113353531279      tol =   1.761133535312787E-002
 Begin minimization
 Creating dielectric and ionic cavities
  area:      126.730032895566     
  volume:    637.128398345370     
  Acav:     6.653326727017216E-002
  Solving linear dielectric/ionic screening model
        iter                  A_solv                     rms
   LPB:       -0.394624223391800E+00   0.691118023848957E+00
   LPB:    0  -0.394479530738501E+00   0.598694941119653E+00  -0.315780E-02   0.000000E+00   0.290207E+02  -0.916415E-01
   LPB:    1  -0.390606249007523E+00   0.128243709708272E+00   0.164604E-01   0.000000E+00   0.695863E+02   0.170475E-17
   LPB:    2  -0.390156315869837E+00   0.789545170601409E-01   0.162854E-01   0.117411E+00   0.167188E+03  -0.184683E-14
   LPB:    3  -0.390028514322420E+00   0.302073913788578E-01   0.207790E-01   0.222619E+00   0.756149E+02  -0.223315E-14
   LPB:    4  -0.389944509387304E+00   0.208756248674744E-01   0.370821E-01   0.368323E+00   0.170067E+03  -0.213197E-14
   LPB:    5  -0.389843696546489E+00   0.273894248961343E-01   0.479509E-01   0.928066E+00   0.626829E+02  -0.187335E-14
   LPB:    6  -0.389761551901997E+00   0.516370676122483E-01   0.336575E-01   0.116085E+01   0.858693E+02  -0.154434E-14
   LPB:    7  -0.389719402599698E+00   0.410468058026128E-01   0.195057E-01   0.885382E+00   0.738083E+02  -0.127483E-14
   LPB:    8  -0.389687637935101E+00   0.110761902469586E-01   0.236313E-01   0.622056E+00   0.218385E+03  -0.114378E-14
  Finished solving LPB equations
  A_corr:   -0.323154370664929     
 End minimization
 Ecorr=   1719.56470860202     
 A_corr= -0.323154370664929     
 Ecorr_band=  -1719.88786297269     
 End Solvation calculations
RMM:  23    -0.138099875628E+03   -0.70517E-03   -0.45348E-04 12287   0.599E-02    0.102E-01
 Begin Solvation calculations
  rms_SCF =   0.176113353531279      tol =   1.761133535312787E-002
 Begin minimization
 Creating dielectric and ionic cavities
  area:      126.986174349044     
  volume:    637.131347628182     
  Acav:     6.666774153324827E-002
  Solving linear dielectric/ionic screening model
        iter                  A_solv                     rms
   LPB:       -0.404910323874047E+00   0.105829351343107E+01
   LPB:    0  -0.404618215255559E+00   0.956609252131236E+00  -0.448677E-02   0.000000E+00   0.290206E+02  -0.130209E+00
   LPB:    1  -0.398264234699850E+00   0.228884385478377E+00   0.152196E-01   0.000000E+00   0.557116E+02   0.882818E-17
   LPB:    2  -0.397516574502282E+00   0.110405474203316E+00   0.134281E-01   0.133366E+00   0.231633E+03  -0.517166E-15
   LPB:    3  -0.397316809905808E+00   0.436612325626769E-01   0.170285E-01   0.210695E+00   0.122924E+03  -0.134122E-15
   LPB:    4  -0.397249533779862E+00   0.394758632962463E-01   0.214625E-01   0.267201E+00   0.123906E+03  -0.238901E-15
   LPB:    5  -0.397215337141019E+00   0.254802019471398E-01   0.241333E-01   0.452050E+00   0.108949E+03  -0.175995E-15
   LPB:    6  -0.397186045380727E+00   0.111372316940080E-01   0.339103E-01   0.609604E+00   0.879400E+02  -0.147092E-15
  Finished solving LPB equations
  A_corr:   -0.330518303847478     
 End minimization
 Ecorr=   1716.69476813801     
 A_corr= -0.330518303847478     
 Ecorr_band=  -1717.02528644186     
 End Solvation calculations
RMM:  24    -0.138100397118E+03   -0.52149E-03   -0.78413E-04 12252   0.518E-02    0.706E-02
 Begin Solvation calculations
  rms_SCF =   0.120388953065339      tol =   1.203889530653389E-002
 Begin minimization
 Creating dielectric and ionic cavities
  area:      127.089331623955     
  volume:    637.202313194169     
  Acav:     6.672189910257649E-002
  Solving linear dielectric/ionic screening model
        iter                  A_solv                     rms
   LPB:       -0.403867960547645E+00   0.681742987868940E+00
   LPB:    0  -0.403694857281169E+00   0.601886939693370E+00  -0.345414E-02   0.000000E+00   0.290173E+02  -0.100230E+00
   LPB:    1  -0.401287477150101E+00   0.113382414482134E+00   0.145692E-01   0.000000E+00   0.582844E+02  -0.355118E-17
   LPB:    2  -0.401043786541786E+00   0.720379294391711E-01   0.141057E-01   0.104553E+00   0.238002E+03  -0.968187E-16
   LPB:    3  -0.400978398775878E+00   0.276043933805034E-01   0.164790E-01   0.229678E+00   0.889709E+02  -0.156580E-15
   LPB:    4  -0.400941142671865E+00   0.340596656164548E-01   0.289828E-01   0.323960E+00   0.870026E+02  -0.247013E-15
   LPB:    5  -0.400906252057906E+00   0.300761807391238E-01   0.311534E-01   0.871255E+00   0.805438E+02  -0.199682E-15
   LPB:    6  -0.400871335847707E+00   0.133916068075372E-01   0.324055E-01   0.962069E+00   0.592500E+02  -0.539175E-15
   LPB:    7  -0.400844322249857E+00   0.610451577333482E-02   0.343498E-01   0.729876E+00   0.150876E+03  -0.131116E-14
  Finished solving LPB equations
  A_corr:   -0.334122423147281     
 End minimization
 Ecorr=   1714.53170591030     
 A_corr= -0.334122423147281     
 Ecorr_band=  -1714.86582833345     
 End Solvation calculations
RMM:  25    -0.138100881483E+03   -0.48436E-03   -0.16816E-04 12035   0.386E-02    0.747E-02
 Begin Solvation calculations
  rms_SCF =   0.120388953065339      tol =   1.203889530653389E-002
 Begin minimization
 Creating dielectric and ionic cavities
  area:      127.155728545755     
  volume:    637.275134764947     
  Acav:     6.675675748652123E-002
  Solving linear dielectric/ionic screening model
        iter                  A_solv                     rms
   LPB:       -0.407280360884932E+00   0.855455475107877E+00
   LPB:    0  -0.407015121423278E+00   0.768433487541104E+00  -0.427594E-02   0.000000E+00   0.290139E+02  -0.124061E+00
   LPB:    1  -0.404140466762301E+00   0.159364418888992E+00   0.131025E-01   0.000000E+00   0.539138E+02   0.111552E-17
   LPB:    2  -0.403823384690801E+00   0.606651596398270E-01   0.122705E-01   0.117782E+00   0.226674E+03  -0.260155E-14
   LPB:    3  -0.403751111375541E+00   0.217076579639251E-01   0.173755E-01   0.160964E+00   0.132165E+03  -0.284476E-14
   LPB:    4  -0.403732539207090E+00   0.198626020763434E-01   0.223690E-01   0.199607E+00   0.992482E+02  -0.293331E-14
   LPB:    5  -0.403720971856172E+00   0.154812877194982E-01   0.281007E-01   0.495794E+00   0.111259E+03  -0.302731E-14
   LPB:    6  -0.403707387260181E+00   0.846543966554543E-02   0.393125E-01   0.839457E+00   0.661658E+02  -0.306285E-14
  Finished solving LPB equations
  A_corr:   -0.336950629773660     
 End minimization
 Ecorr=   1713.48357029832     
 A_corr= -0.336950629773660     
 Ecorr_band=  -1713.82052092810     
 End Solvation calculations
RMM:  26    -0.138101099495E+03   -0.21801E-03   -0.25062E-04 12282   0.401E-02    0.583E-02
 Begin Solvation calculations
  rms_SCF =   0.110243331268215      tol =   1.102433312682149E-002
 Begin minimization
 Creating dielectric and ionic cavities
  area:      127.177405534385     
  volume:    637.386454286633     
  Acav:     6.676813790555189E-002
  Solving linear dielectric/ionic screening model
        iter                  A_solv                     rms
   LPB:       -0.408302188840683E+00   0.847681781618233E+00
   LPB:    0  -0.408151245109173E+00   0.798159740702672E+00  -0.322596E-02   0.000000E+00   0.290086E+02  -0.935807E-01
   LPB:    1  -0.405554069743211E+00   0.150816378678964E+00   0.119803E-01   0.000000E+00   0.550956E+02   0.352898E-17
   LPB:    2  -0.405276809164233E+00   0.481818602210636E-01   0.117786E-01   0.108583E+00   0.219386E+03  -0.149432E-14
   LPB:    3  -0.405223626367660E+00   0.150448366155575E-01   0.182515E-01   0.123788E+00   0.126558E+03  -0.165153E-14
   LPB:    4  -0.405207631062848E+00   0.167187885815031E-01   0.276972E-01   0.198191E+00   0.893550E+02  -0.160233E-14
   LPB:    5  -0.405195388194485E+00   0.176818229317359E-01   0.322962E-01   0.656410E+00   0.978616E+02  -0.155245E-14
   LPB:    6  -0.405183427444599E+00   0.100379028005906E-01   0.317991E-01   0.992229E+00   0.577449E+02  -0.150675E-14
  Finished solving LPB equations
  A_corr:   -0.338415289539047     
 End minimization
 Ecorr=   1712.42440663006     
 A_corr= -0.338415289539047     
 Ecorr_band=  -1712.76282191960     
 End Solvation calculations
RMM:  27    -0.138101266101E+03   -0.16661E-03   -0.10358E-04 11230   0.214E-02    0.454E-02
 Begin Solvation calculations
  rms_SCF =   5.554157116799030E-002 tol =   5.554157116799030E-003
 Begin minimization
 Creating dielectric and ionic cavities
  area:      127.165321455155     
  volume:    637.427443714003     
  Acav:     6.676179376395629E-002
  Solving linear dielectric/ionic screening model
        iter                  A_solv                     rms
   LPB:       -0.405263504976056E+00   0.263642190426552E+00
   LPB:    0  -0.405259708872865E+00   0.259392304153767E+00  -0.511605E-03   0.000000E+00   0.290067E+02  -0.148400E-01
   LPB:    1  -0.405016700495830E+00   0.410220573316818E-01   0.106488E-01   0.000000E+00   0.629270E+02   0.873170E-19
   LPB:    2  -0.404994203719599E+00   0.102796822424028E-01   0.115957E-01   0.850159E-01   0.243695E+03  -0.218420E-16
   LPB:    3  -0.404989755063055E+00   0.362856436828162E-02   0.227345E-01   0.100860E+00   0.147985E+03  -0.225103E-16
   LPB:    4  -0.404984640166547E+00   0.635230726874756E-02   0.638600E-01   0.409322E+00   0.123088E+03  -0.377026E-16
   LPB:    5  -0.404974617296615E+00   0.973797242611505E-02   0.554028E-01   0.225867E+01   0.806584E+02   0.189651E-16
   LPB:    6  -0.404969186540651E+00   0.968038020611103E-02   0.272613E-01   0.110117E+01   0.560828E+02   0.100478E-15
   LPB:    7  -0.404966603675589E+00   0.536953429579227E-02   0.222810E-01   0.581905E+00   0.127013E+03   0.174553E-15
  Finished solving LPB equations
  A_corr:   -0.338204809911633     
 End minimization
 Ecorr=   1711.84281931050     
 A_corr= -0.338204809911633     
 Ecorr_band=  -1712.18102412041     
 End Solvation calculations
RMM:  28    -0.138101306862E+03   -0.40761E-04   -0.50244E-05  8822   0.218E-02    0.303E-02
 Begin Solvation calculations
  rms_SCF =   5.554157116799030E-002 tol =   5.554157116799030E-003
 Begin minimization
 Creating dielectric and ionic cavities
  area:      127.172590454660     
  volume:    637.467655079879     
  Acav:     6.676560998869649E-002
  Solving linear dielectric/ionic screening model
        iter                  A_solv                     rms
   LPB:       -0.406862257073163E+00   0.580672617041465E+00
   LPB:    0  -0.406813977020302E+00   0.555072630433465E+00  -0.182458E-02   0.000000E+00   0.290048E+02  -0.529217E-01
   LPB:    1  -0.405756878053074E+00   0.918594707839318E-01   0.109668E-01   0.000000E+00   0.554355E+02   0.296696E-17
   LPB:    2  -0.405639479532133E+00   0.252514946842357E-01   0.120240E-01   0.101292E+00   0.209342E+03  -0.813448E-15
   LPB:    3  -0.405619943313110E+00   0.910818021243256E-02   0.192189E-01   0.104112E+00   0.139852E+03  -0.940104E-15
   LPB:    4  -0.405615532925785E+00   0.807272628394436E-02   0.229087E-01   0.189394E+00   0.112896E+03  -0.934404E-15
   LPB:    5  -0.405613802492950E+00   0.506038428436459E-02   0.229610E-01   0.391460E+00   0.144419E+03  -0.849401E-15
  Finished solving LPB equations
  A_corr:   -0.338848192504254     
 End minimization
 Ecorr=   1711.36166195959     
 A_corr= -0.338848192504254     
 Ecorr_band=  -1711.70051015210     
 End Solvation calculations
RMM:  29    -0.138101313711E+03   -0.68485E-05   -0.46032E-05  8113   0.153E-02
 Begin Solvation calculations
  rms_SCF =   5.554157116799030E-002 tol =   5.554157116799030E-003
 Begin minimization
 Creating dielectric and ionic cavities
  area:      127.156372133772     
  volume:    637.449983099561     
  Acav:     6.675709537023015E-002
  Solving linear dielectric/ionic screening model
        iter                  A_solv                     rms
   LPB:       -0.405009704189575E+00   0.406138059869471E-01
   LPB:    0  -0.405008745405037E+00   0.360306131337961E-01   0.257119E-03   0.000000E+00   0.290057E+02   0.745791E-02
   LPB:    1  -0.404977751667209E+00   0.218620194407855E-01   0.164843E-01   0.000000E+00   0.173833E+03   0.191281E-18
   LPB:    2  -0.404973968247186E+00   0.106174310348412E-01   0.137606E-01   0.146233E+00   0.631146E+02  -0.177878E-16
   LPB:    3  -0.404972787503901E+00   0.210577584485503E-02   0.165274E-01   0.259838E+00   0.198934E+03  -0.189730E-16
   LPB:    4  -0.404972268113269E+00   0.101205449813621E-02   0.300152E-01   0.242216E+00   0.874765E+03  -0.165324E-16
  Finished solving LPB equations
  A_corr:   -0.338215172743039     
 End minimization
 Ecorr=   1711.41516349853     
 A_corr= -0.338215172743039     
 Ecorr_band=  -1711.75337867127     
 End Solvation calculations
   1 F= -.13810131E+03 E0= -.13809927E+03  d E =-.138101E+03
quench:  g(F)=  0.000E+00 g(S)=  0.000E+00 dE (1.order)= 0.000E+00
 bond charge predicted
       N       E                     dE             d eps       ncg     rms          rms(c)
 Begin Solvation calculations
  rms_SCF =   5.554157116799030E-002 tol =   5.554157116799030E-003
 Begin minimization
 Creating dielectric and ionic cavities
  area:      127.274930457139     
  volume:    637.466141146671     
  Acav:     6.681933848999819E-002
  Solving linear dielectric/ionic screening model
        iter                  A_solv                     rms
   LPB:       -0.409096896737089E+00   0.627559190200524E-02
   LPB:    0  -0.409096896722277E+00   0.628281741625764E-02   0.101061E-05   0.000000E+00   0.290049E+02   0.293125E-04
   LPB:    1  -0.405838640963347E+00   0.280524217092738E-02   0.162820E-01   0.000000E+00   0.606799E+06  -0.989697E-21
   LPB:    2  -0.405431091469303E+00   0.361160342510734E-02   0.275026E-01   0.740505E-01   0.119020E+06  -0.664502E-17
   LPB:    3  -0.405298791293733E+00   0.594888234232653E-02   0.323091E-01   0.276331E+00   0.171572E+05  -0.133316E-16
   LPB:    4  -0.405245066881145E+00   0.152510101434094E-01   0.341240E-01   0.384482E+00   0.317089E+04  -0.801899E-16
   LPB:    5  -0.405222557329862E+00   0.287937553151445E-01   0.294892E-01   0.484833E+00   0.244851E+03  -0.937543E-16
   LPB:    6  -0.405211042400704E+00   0.178940073192030E-01   0.191526E-01   0.787643E+00   0.161125E+03  -0.863203E-16
   LPB:    7  -0.405201521472464E+00   0.133696127704314E-01   0.280310E-01   0.564946E+00   0.353791E+03  -0.190229E-15
   LPB:    8  -0.405196085454883E+00   0.134352623057358E-01   0.251745E-01   0.635739E+00   0.137104E+03  -0.302968E-15
   LPB:    9  -0.405191431464586E+00   0.497144789267920E-02   0.268725E-01   0.802042E+00   0.277552E+03  -0.429244E-15
  Finished solving LPB equations
  A_corr:   -0.338372092974588     
 End minimization
 Ecorr=   1711.32242840106     
 A_corr= -0.338372092974588     
 Ecorr_band=  -1711.66080049403     
 End Solvation calculations
DAV:   1    -0.138103421337E+03   -0.21145E-02   -0.33161E-01 12816   0.103E+00    0.174E-01
 Begin Solvation calculations
  rms_SCF =   3.945047743511319E-002 tol =   3.945047743511319E-003
 Begin minimization
 Creating dielectric and ionic cavities
  area:      127.215185315666     
  volume:    637.350524641009     
  Acav:     6.678797229072458E-002
  Solving linear dielectric/ionic screening model
        iter                  A_solv                     rms
   LPB:       -0.407461839516209E+00   0.269694924531994E+00
   LPB:    0  -0.407367637660800E+00   0.183083037867995E+00  -0.254841E-02   0.000000E+00   0.290103E+02  -0.739300E-01
   LPB:    1  -0.407108393747327E+00   0.725271649210539E-01   0.128982E-01   0.000000E+00   0.827056E+02  -0.493542E-17
   LPB:    2  -0.407061631146539E+00   0.148213710518481E-01   0.134383E-01   0.173132E+00   0.199324E+03   0.632845E-16
   LPB:    3  -0.407045913207708E+00   0.136115837208334E-01   0.236774E-01   0.190768E+00   0.455919E+03   0.771533E-16
   LPB:    4  -0.407040274966851E+00   0.119043995828378E-01   0.215147E-01   0.394773E+00   0.114488E+03   0.851819E-16
   LPB:    5  -0.407036419027495E+00   0.515067046127120E-02   0.265139E-01   0.554943E+00   0.217087E+03   0.166155E-15
   LPB:    6  -0.407033795606519E+00   0.187344039457554E-02   0.376568E-01   0.479036E+00   0.298842E+03   0.245656E-15
  Finished solving LPB equations
  A_corr:   -0.340245823315794     
 End minimization
 Ecorr=   1711.40586600002     
 A_corr= -0.340245823315794     
 Ecorr_band=  -1711.74611182333     
 End Solvation calculations
RMM:   2    -0.138105543859E+03   -0.21225E-02   -0.24322E-02 18931   0.304E-01    0.154E-01
 Begin Solvation calculations
  rms_SCF =   1.504793173341505E-002 tol =   1.504793173341505E-003
 Begin minimization
 Creating dielectric and ionic cavities
  area:      127.209483816998     
  volume:    637.361298107394     
  Acav:     6.678497900392404E-002
  Solving linear dielectric/ionic screening model
        iter                  A_solv                     rms
   LPB:       -0.407659339857766E+00   0.501469267679105E-01
   LPB:    0  -0.407655616367520E+00   0.297768645833255E-01  -0.506661E-03   0.000000E+00   0.290098E+02  -0.146981E-01
   LPB:    1  -0.407637694279155E+00   0.170340573065660E-01   0.163151E-01   0.000000E+00   0.122657E+03   0.697449E-19
   LPB:    2  -0.407635214084553E+00   0.743296193868645E-02   0.148292E-01   0.152255E+00   0.108219E+03   0.492383E-16
   LPB:    3  -0.407633989714454E+00   0.249993583867611E-02   0.203325E-01   0.360041E+00   0.285979E+03   0.545982E-16
   LPB:    4  -0.407632761577093E+00   0.539542373811072E-02   0.460890E-01   0.442516E+00   0.133173E+03   0.604617E-16
   LPB:    5  -0.407631557851250E+00   0.604993007178429E-02   0.304177E-01   0.148509E+01   0.204676E+03   0.777597E-16
   LPB:    6  -0.407630294227010E+00   0.273928975195424E-02   0.321464E-01   0.993309E+00   0.875196E+02   0.699288E-16
   LPB:    7  -0.407629349493718E+00   0.110447898680238E-02   0.381136E-01   0.630584E+00   0.911019E+03   0.448551E-16
  Finished solving LPB equations
  A_corr:   -0.340844370489794     
 End minimization
 Ecorr=   1711.20476927731     
 A_corr= -0.340844370489794     
 Ecorr_band=  -1711.54561364780     
 End Solvation calculations
RMM:   3    -0.138105033047E+03    0.51081E-03   -0.14583E-03 17694   0.777E-02    0.947E-02
 Begin Solvation calculations
  rms_SCF =   1.504793173341505E-002 tol =   1.504793173341505E-003
 Begin minimization
 Creating dielectric and ionic cavities
  area:      127.200374680673     
  volume:    637.344226281214     
  Acav:     6.678019670735318E-002
  Solving linear dielectric/ionic screening model
        iter                  A_solv                     rms
   LPB:       -0.408702984294089E+00   0.987741420194899E-01
   LPB:    0  -0.408684779848351E+00   0.474563313340923E-01  -0.112028E-02   0.000000E+00   0.290106E+02  -0.324999E-01
   LPB:    1  -0.408630734914703E+00   0.238223646919736E-01   0.162156E-01   0.000000E+00   0.134016E+03   0.140822E-17
   LPB:    2  -0.408623935855819E+00   0.134918276650155E-01   0.131947E-01   0.154607E+00   0.180475E+03  -0.202068E-16
   LPB:    3  -0.408621355160443E+00   0.570597804281933E-02   0.199283E-01   0.251313E+00   0.124426E+03   0.999713E-17
   LPB:    4  -0.408620582123673E+00   0.407014211430568E-02   0.217927E-01   0.273919E+00   0.127609E+03   0.158412E-16
   LPB:    5  -0.408620119602097E+00   0.225052326714994E-02   0.240337E-01   0.542529E+00   0.259129E+03   0.328411E-16
   LPB:    6  -0.408619713231178E+00   0.101921595462211E-02   0.386938E-01   0.545721E+00   0.158270E+03   0.121883E-16
  Finished solving LPB equations
  A_corr:   -0.341839516523824     
 End minimization
 Ecorr=   1711.15594155458     
 A_corr= -0.341839516523824     
 Ecorr_band=  -1711.49778107110     
 End Solvation calculations
RMM:   4    -0.138105056334E+03   -0.23287E-04   -0.52960E-04 14526   0.539E-02    0.110E-01
 Begin Solvation calculations
  rms_SCF =   1.504793173341505E-002 tol =   1.504793173341505E-003
 Begin minimization
 Creating dielectric and ionic cavities
  area:      127.195222782727     
  volume:    637.333257861450     
  Acav:     6.677749196093183E-002
  Solving linear dielectric/ionic screening model
        iter                  A_solv                     rms
   LPB:       -0.410352353585375E+00   0.282038208896617E+00
   LPB:    0  -0.410319504028747E+00   0.255455389796005E+00  -0.150486E-02   0.000000E+00   0.290111E+02  -0.436578E-01
   LPB:    1  -0.410096320859340E+00   0.424062126157431E-01   0.987707E-02   0.000000E+00   0.682299E+02   0.257480E-17
   LPB:    2  -0.410063298999496E+00   0.678076526287762E-02   0.142429E-01   0.102606E+00   0.233111E+03   0.121282E-15
   LPB:    3  -0.410056953278388E+00   0.632786827149087E-02   0.251021E-01   0.109035E+00   0.516057E+03   0.759152E-16
   LPB:    4  -0.410055059213776E+00   0.617738936271361E-02   0.244553E-01   0.306374E+00   0.105517E+03   0.591988E-16
   LPB:    5  -0.410053933059874E+00   0.380279081722383E-02   0.246539E-01   0.589780E+00   0.235907E+03   0.793613E-17
   LPB:    6  -0.410053123548140E+00   0.159177234582530E-02   0.324734E-01   0.545737E+00   0.137099E+03  -0.494763E-16
   LPB:    7  -0.410052532883338E+00   0.110282059624483E-02   0.367258E-01   0.645169E+00   0.388354E+03  -0.652229E-16
  Finished solving LPB equations
  A_corr:   -0.343275040922406     
 End minimization
 Ecorr=   1711.03154678489     
 A_corr= -0.343275040922406     
 Ecorr_band=  -1711.37482182581     
 End Solvation calculations
RMM:   5    -0.138104960622E+03    0.95712E-04   -0.19229E-04 12671   0.403E-02    0.591E-02
 Begin Solvation calculations
  rms_SCF =   1.504793173341505E-002 tol =   1.504793173341505E-003
 Begin minimization
 Creating dielectric and ionic cavities
  area:      127.188624369362     
  volume:    637.345964659218     
  Acav:     6.677402779391506E-002
  Solving linear dielectric/ionic screening model
        iter                  A_solv                     rms
   LPB:       -0.411019536198782E+00   0.189367729192487E+00
   LPB:    0  -0.411009073598226E+00   0.175681845479565E+00  -0.849292E-03   0.000000E+00   0.290105E+02  -0.246384E-01
   LPB:    1  -0.410913127206003E+00   0.305495622519019E-01   0.977673E-02   0.000000E+00   0.632579E+02  -0.500889E-18
   LPB:    2  -0.410892138741416E+00   0.463781875214497E-02   0.170610E-01   0.125355E+00   0.129059E+03  -0.986209E-16
   LPB:    3  -0.410889234377199E+00   0.358825256860076E-02   0.236513E-01   0.998204E-01   0.350799E+03  -0.109235E-15
   LPB:    4  -0.410888246077313E+00   0.297201764312746E-02   0.251709E-01   0.319737E+00   0.140423E+03  -0.110720E-15
   LPB:    5  -0.410887655109420E+00   0.365565148825106E-02   0.301301E-01   0.499545E+00   0.227762E+03  -0.105359E-15
   LPB:    6  -0.410887204166551E+00   0.246035631025793E-02   0.291790E-01   0.787930E+00   0.764027E+02  -0.102209E-15
   LPB:    7  -0.410886741629849E+00   0.117551390384105E-02   0.366909E-01   0.815711E+00   0.247402E+03  -0.136842E-15
  Finished solving LPB equations
  A_corr:   -0.344112713835934     
 End minimization
 Ecorr=   1710.77109851894     
 A_corr= -0.344112713835934     
 Ecorr_band=  -1711.11521123278     
 End Solvation calculations
RMM:   6    -0.138104912773E+03    0.47849E-04   -0.14833E-04 12220   0.495E-02    0.430E-02
 Begin Solvation calculations
  rms_SCF =   1.504793173341505E-002 tol =   1.504793173341505E-003
 Begin minimization
 Creating dielectric and ionic cavities
  area:      127.196402792307     
  volume:    637.368935964894     
  Acav:     6.677811146596094E-002
  Solving linear dielectric/ionic screening model
        iter                  A_solv                     rms
   LPB:       -0.411952981649170E+00   0.130418449458095E+00
   LPB:    0  -0.411942543004716E+00   0.108603788303259E+00  -0.848335E-03   0.000000E+00   0.290095E+02  -0.246097E-01
   LPB:    1  -0.411888394195426E+00   0.297394224455717E-01   0.107248E-01   0.000000E+00   0.735535E+02  -0.134248E-17
   LPB:    2  -0.411879324437182E+00   0.431465960615947E-02   0.136694E-01   0.131416E+00   0.142695E+03   0.109116E-15
   LPB:    3  -0.411877452326233E+00   0.355070719982576E-02   0.238181E-01   0.118461E+00   0.289909E+03   0.129104E-15
   LPB:    4  -0.411876891719308E+00   0.326487350481419E-02   0.253430E-01   0.281434E+00   0.772458E+02   0.130868E-15
   LPB:    5  -0.411876500496344E+00   0.274950275893006E-02   0.278617E-01   0.634771E+00   0.256582E+03   0.174422E-15
   LPB:    6  -0.411876094575103E+00   0.127221422449758E-02   0.370023E-01   0.781261E+00   0.729494E+02   0.184918E-15
  Finished solving LPB equations
  A_corr:   -0.345097983109143     
 End minimization
 Ecorr=   1710.51718461339     
 A_corr= -0.345097983109143     
 Ecorr_band=  -1710.86228259650     
 End Solvation calculations
RMM:   7    -0.138104883372E+03    0.29401E-04   -0.52632E-05  9938   0.341E-02    0.153E-02
 Begin Solvation calculations
  rms_SCF =   8.309742838429224E-003 tol =   8.309742838429224E-004
 Begin minimization
 Creating dielectric and ionic cavities
  area:      127.202744614449     
  volume:    637.379287765507     
  Acav:     6.678144092258556E-002
  Solving linear dielectric/ionic screening model
        iter                  A_solv                     rms
   LPB:       -0.412220629902935E+00   0.366321389299155E-01
   LPB:    0  -0.412218934291854E+00   0.221484165157418E-01  -0.341910E-03   0.000000E+00   0.290090E+02  -0.991846E-02
   LPB:    1  -0.412214212310332E+00   0.116740395016860E-01   0.133309E-01   0.000000E+00   0.795589E+02  -0.778381E-18
   LPB:    2  -0.412213447090985E+00   0.208259003152697E-02   0.128674E-01   0.167893E+00   0.795616E+02  -0.121947E-17
   LPB:    3  -0.412213199806288E+00   0.152097972752374E-02   0.228484E-01   0.181989E+00   0.228306E+03  -0.467882E-17
   LPB:    4  -0.412212940438317E+00   0.280794934540129E-02   0.487583E-01   0.491503E+00   0.441898E+02  -0.536761E-17
   LPB:    5  -0.412212545891086E+00   0.297609195639928E-02   0.393646E-01   0.188419E+01   0.115837E+03  -0.472221E-16
   LPB:    6  -0.412212102492580E+00   0.166959921171118E-02   0.328385E-01   0.134716E+01   0.414959E+02  -0.107485E-15
   LPB:    7  -0.412211773902965E+00   0.907501783809738E-03   0.355601E-01   0.684353E+00   0.201644E+03  -0.192277E-15
   LPB:    8  -0.412211471920308E+00   0.612611837304660E-03   0.440196E-01   0.742412E+00   0.361975E+03  -0.280444E-15
  Finished solving LPB equations
  A_corr:   -0.345430030997722     
 End minimization
 Ecorr=   1710.23541749437     
 A_corr= -0.345430030997722     
 Ecorr_band=  -1710.58084752537     
 End Solvation calculations
RMM:   8    -0.138104884374E+03   -0.10020E-05   -0.14503E-05  6929   0.191E-02
 Begin Solvation calculations
  rms_SCF =   8.309742838429224E-003 tol =   8.309742838429224E-004
 Begin minimization
 Creating dielectric and ionic cavities
  area:      127.216445271124     
  volume:    637.403488372468     
  Acav:     6.678863376734002E-002
  Solving linear dielectric/ionic screening model
        iter                  A_solv                     rms
   LPB:       -0.413079184364000E+00   0.852915330631076E-01
   LPB:    0  -0.413068967228157E+00   0.442372597863091E-01  -0.839309E-03   0.000000E+00   0.290078E+02  -0.243465E-01
   LPB:    1  -0.413042293428483E+00   0.119949352752002E-01   0.165757E-01   0.000000E+00   0.615571E+02  -0.346596E-18
   LPB:    2  -0.413039495829105E+00   0.590004834020087E-02   0.165007E-01   0.105359E+00   0.160705E+03   0.183924E-15
   LPB:    3  -0.413038724354055E+00   0.166281345886129E-02   0.199169E-01   0.228464E+00   0.935552E+02   0.204059E-15
   LPB:    4  -0.413038456256810E+00   0.659423707988053E-03   0.246041E-01   0.281309E+00   0.390071E+03   0.178526E-15
  Finished solving LPB equations
  A_corr:   -0.346249822489470     
 End minimization
 Ecorr=   1710.04247429761     
 A_corr= -0.346249822489470     
 Ecorr_band=  -1710.38872412010     
 End Solvation calculations
   2 F= -.13810488E+03 E0= -.13810282E+03  d E =-.357066E-02
quench:  g(F)=  0.000E+00 g(S)=  0.000E+00 dE (1.order)= 0.000E+00
 bond charge predicted
       N       E                     dE             d eps       ncg     rms          rms(c)
 Begin Solvation calculations
  rms_SCF =   8.309742838429224E-003 tol =   8.309742838429224E-004
 Begin minimization
 Creating dielectric and ionic cavities
  area:      127.285893072315     
  volume:    637.357721139016     
  Acav:     6.682509386296535E-002
  Solving linear dielectric/ionic screening model
        iter                  A_solv                     rms
   LPB:       -0.415194942004144E+00   0.454727643062061E-02
   LPB:    0  -0.415194941587315E+00   0.465883070552184E-02  -0.536068E-05   0.000000E+00   0.290100E+02  -0.155513E-03
   LPB:    1  -0.413752239914938E+00   0.182457192285077E-02   0.159202E-01   0.000000E+00   0.436813E+06  -0.210674E-21
   LPB:    2  -0.413595538524633E+00   0.208070326502300E-02   0.267997E-01   0.645229E-01   0.121028E+06  -0.360472E-17
   LPB:    3  -0.413546712273735E+00   0.391184498138372E-02   0.322333E-01   0.259063E+00   0.226781E+05  -0.477153E-17
   LPB:    4  -0.413526401122276E+00   0.113796686134578E-01   0.346596E-01   0.386868E+00   0.252245E+04   0.125873E-17
   LPB:    5  -0.413517991997361E+00   0.219748800493647E-01   0.277066E-01   0.517912E+00   0.223074E+03   0.202532E-16
   LPB:    6  -0.413513038881561E+00   0.905051844905840E-02   0.179714E-01   0.908094E+00   0.173987E+03   0.288690E-16
   LPB:    7  -0.413508561321872E+00   0.167560917457350E-02   0.336987E-01   0.482092E+00   0.743638E+03   0.358501E-16
   LPB:    8  -0.413505638459146E+00   0.793671897078040E-03   0.405497E-01   0.542492E+00   0.244003E+04   0.360952E-16
  Finished solving LPB equations
  A_corr:   -0.346680544596181     
 End minimization
 Ecorr=   1709.91624404656     
 A_corr= -0.346680544596181     
 Ecorr_band=  -1710.26292459115     
 End Solvation calculations
DAV:   1    -0.138105624844E+03   -0.74147E-03   -0.12430E-01 12753   0.778E-01    0.883E-02
 Begin Solvation calculations
  rms_SCF =   8.309742838429224E-003 tol =   8.309742838429224E-004
 Begin minimization
 Creating dielectric and ionic cavities
  area:      127.243417679195     
  volume:    637.357759217655     
  Acav:     6.680279428157718E-002
  Solving linear dielectric/ionic screening model
        iter                  A_solv                     rms
   LPB:       -0.414297147164359E+00   0.986367154910235E-01
   LPB:    0  -0.414291144855227E+00   0.823601238702270E-01  -0.643281E-03   0.000000E+00   0.290100E+02  -0.186616E-01
   LPB:    1  -0.414261178193463E+00   0.225416999217845E-01   0.106893E-01   0.000000E+00   0.714142E+02  -0.310849E-18
   LPB:    2  -0.414253469669961E+00   0.541115408443222E-02   0.168208E-01   0.163469E+00   0.164938E+03  -0.167598E-15
   LPB:    3  -0.414251042722468E+00   0.506956375121634E-02   0.257545E-01   0.205629E+00   0.329898E+03  -0.211164E-15
   LPB:    4  -0.414249820129570E+00   0.523411691563261E-02   0.287618E-01   0.451084E+00   0.958685E+02  -0.219462E-15
   LPB:    5  -0.414248933246102E+00   0.347543368507848E-02   0.275090E-01   0.758449E+00   0.283212E+03  -0.233387E-15
   LPB:    6  -0.414248113358952E+00   0.155099276215732E-02   0.350993E-01   0.724542E+00   0.202647E+03  -0.259164E-15
   LPB:    7  -0.414247405255681E+00   0.104783305340815E-02   0.391400E-01   0.774498E+00   0.369144E+03  -0.282955E-15
   LPB:    8  -0.414246801786327E+00   0.742092500427012E-03   0.403576E-01   0.826523E+00   0.366145E+03  -0.305953E-15
  Finished solving LPB equations
  A_corr:   -0.347444007504750     
 End minimization
 Ecorr=   1709.67041435000     
 A_corr= -0.347444007504750     
 Ecorr_band=  -1710.01785835750     
 End Solvation calculations
RMM:   2    -0.138106347338E+03   -0.72249E-03   -0.79646E-03 17403   0.219E-01    0.587E-02
 Begin Solvation calculations
  rms_SCF =   8.309742838429224E-003 tol =   8.309742838429224E-004
 Begin minimization
 Creating dielectric and ionic cavities
  area:      127.240125035640     
  volume:    637.369364267810     
  Acav:     6.680106564371099E-002
  Solving linear dielectric/ionic screening model
        iter                  A_solv                     rms
   LPB:       -0.414491247709202E+00   0.100282801487616E+00
   LPB:    0  -0.414490414934164E+00   0.980661002059260E-01  -0.239612E-03   0.000000E+00   0.290094E+02  -0.695102E-02
   LPB:    1  -0.414466374784633E+00   0.124424689270482E-01   0.923727E-02   0.000000E+00   0.579129E+02  -0.490731E-19
   LPB:    2  -0.414462620241298E+00   0.212307888132826E-02   0.166607E-01   0.865906E-01   0.110080E+03   0.561660E-17
   LPB:    3  -0.414461908380106E+00   0.102407594539952E-02   0.246075E-01   0.128370E+00   0.263417E+03   0.392865E-18
   LPB:    4  -0.414461629298817E+00   0.129027402574298E-02   0.320781E-01   0.300743E+00   0.214023E+03  -0.321796E-17
   LPB:    5  -0.414461443593200E+00   0.192132163874607E-02   0.350849E-01   0.608390E+00   0.232509E+03  -0.522114E-17
   LPB:    6  -0.414461259996674E+00   0.199546107722176E-02   0.357347E-01   0.970665E+00   0.932998E+02  -0.673901E-18
   LPB:    7  -0.414461070001014E+00   0.136365518108298E-02   0.329459E-01   0.112245E+01   0.264460E+03   0.463455E-16
   LPB:    8  -0.414460839765128E+00   0.715907355408554E-03   0.411189E-01   0.970933E+00   0.196340E+03   0.104815E-15
  Finished solving LPB equations
  A_corr:   -0.347659774121417     
 End minimization
 Ecorr=   1709.52969798786     
 A_corr= -0.347659774121417     
 Ecorr_band=  -1709.87735776199     
 End Solvation calculations
RMM:   3    -0.138106186797E+03    0.16054E-03   -0.38143E-04 14769   0.527E-02    0.474E-02
 Begin Solvation calculations
  rms_SCF =   8.309742838429224E-003 tol =   8.309742838429224E-004
 Begin minimization
 Creating dielectric and ionic cavities
  area:      127.245612339477     
  volume:    637.374715307479     
  Acav:     6.680394647822531E-002
  Solving linear dielectric/ionic screening model
        iter                  A_solv                     rms
   LPB:       -0.414700230870795E+00   0.982176301840809E-01
   LPB:    0  -0.414699732714385E+00   0.968866808224570E-01  -0.185323E-03   0.000000E+00   0.290092E+02  -0.537608E-02
   LPB:    1  -0.414677035222452E+00   0.841381249624393E-02   0.857148E-02   0.000000E+00   0.654137E+02   0.386851E-18
   LPB:    2  -0.414675155503857E+00   0.176058381254216E-02   0.160857E-01   0.441298E-01   0.131818E+03   0.543576E-17
   LPB:    3  -0.414674780894187E+00   0.166708923761093E-02   0.265585E-01   0.120704E+00   0.291378E+03  -0.795164E-17
   LPB:    4  -0.414674598833560E+00   0.169120055133100E-02   0.315204E-01   0.409496E+00   0.119665E+03  -0.102254E-16
   LPB:    5  -0.414674479367233E+00   0.132920856036318E-02   0.271507E-01   0.761799E+00   0.280548E+03   0.485391E-17
   LPB:    6  -0.414674382243913E+00   0.874363929169417E-03   0.313335E-01   0.704449E+00   0.167243E+03  -0.774092E-17
   LPB:    7  -0.414674283523144E+00   0.585282069400171E-03   0.393724E-01   0.808914E+00   0.662639E+03  -0.114378E-16
  Finished solving LPB equations
  A_corr:   -0.347870337044919     
 End minimization
 Ecorr=   1709.48704503636     
 A_corr= -0.347870337044919     
 Ecorr_band=  -1709.83491537340     
 End Solvation calculations
RMM:   4    -0.138106188148E+03   -0.13505E-05   -0.80265E-05 10871   0.308E-02
 Begin Solvation calculations
  rms_SCF =   8.309742838429224E-003 tol =   8.309742838429224E-004
 Begin minimization
 Creating dielectric and ionic cavities
  area:      127.247727203523     
  volume:    637.385499159337     
  Acav:     6.680505678184959E-002
  Solving linear dielectric/ionic screening model
        iter                  A_solv                     rms
   LPB:       -0.414922276324255E+00   0.828910933050841E-01
   LPB:    0  -0.414921551097389E+00   0.802877219187708E-01  -0.223608E-03   0.000000E+00   0.290087E+02  -0.648658E-02
   LPB:    1  -0.414903832515556E+00   0.114982938261571E-01   0.964329E-02   0.000000E+00   0.579053E+02   0.386557E-18
   LPB:    2  -0.414900589381456E+00   0.215605836490256E-02   0.163676E-01   0.107839E+00   0.132772E+03   0.382710E-16
   LPB:    3  -0.414899968738168E+00   0.131101077416176E-02   0.232632E-01   0.134646E+00   0.341950E+03   0.402189E-16
   LPB:    4  -0.414899746338385E+00   0.148899789404568E-02   0.289450E-01   0.287997E+00   0.158523E+03   0.405363E-16
   LPB:    5  -0.414899628748737E+00   0.160416084142029E-02   0.287542E-01   0.532240E+00   0.175126E+03   0.294143E-16
   LPB:    6  -0.414899538364387E+00   0.106405497541225E-02   0.297332E-01   0.743333E+00   0.105427E+03   0.305442E-16
   LPB:    7  -0.414899447036035E+00   0.614691733634227E-03   0.355666E-01   0.844718E+00   0.331503E+03   0.408717E-16
  Finished solving LPB equations
  A_corr:   -0.348094390254186     
 End minimization
 Ecorr=   1709.36605850700     
 A_corr= -0.348094390254186     
 Ecorr_band=  -1709.71415289725     
 End Solvation calculations
   3 F= -.13810619E+03 E0= -.13810414E+03  d E =-.130377E-02
quench:  g(F)=  0.000E+00 g(S)=  0.000E+00 dE (1.order)= 0.000E+00
 bond charge predicted
       N       E                     dE             d eps       ncg     rms          rms(c)
 Begin Solvation calculations
  rms_SCF =   8.309742838429224E-003 tol =   8.309742838429224E-004
 Begin minimization
 Creating dielectric and ionic cavities
  area:      127.390875884980     
  volume:    637.339620845242     
  Acav:     6.688020983961439E-002
  Solving linear dielectric/ionic screening model
        iter                  A_solv                     rms
   LPB:       -0.418375980810774E+00   0.573125253825858E-02
   LPB:    0  -0.418375980380219E+00   0.582425652499096E-02  -0.544816E-05   0.000000E+00   0.290108E+02  -0.158056E-03
   LPB:    1  -0.415951241353695E+00   0.262572814551351E-02   0.157619E-01   0.000000E+00   0.516744E+06  -0.120553E-19
   LPB:    2  -0.415704550192547E+00   0.344178104204511E-02   0.265193E-01   0.604694E-01   0.941891E+05   0.206596E-17
   LPB:    3  -0.415628501065752E+00   0.670951432148489E-02   0.320979E-01   0.254698E+00   0.134574E+05   0.236047E-17
   LPB:    4  -0.415597536382238E+00   0.194616773364103E-01   0.337552E-01   0.387176E+00   0.160819E+04  -0.108723E-17
   LPB:    5  -0.415585537852049E+00   0.274476002751955E-01   0.233122E-01   0.561072E+00   0.157699E+03  -0.276209E-19
   LPB:    6  -0.415576521390825E+00   0.853086295485532E-02   0.201401E-01   0.869823E+00   0.240254E+03   0.168120E-16
   LPB:    7  -0.415569499060580E+00   0.507737384310572E-02   0.359437E-01   0.436398E+00   0.113748E+04  -0.936709E-17
   LPB:    8  -0.415565348478550E+00   0.898883686203937E-02   0.352532E-01   0.602632E+00   0.200985E+03  -0.278646E-16
   LPB:    9  -0.415562891331208E+00   0.736483102995122E-02   0.248846E-01   0.838668E+00   0.195155E+03   0.429765E-17
   LPB:   10  -0.415560741220167E+00   0.230389034379700E-02   0.308327E-01   0.706234E+00   0.185656E+03   0.218794E-16
   LPB:   11  -0.415559182416746E+00   0.846447001133312E-03   0.395013E-01   0.565888E+00   0.187953E+04   0.190513E-16
   LPB:   12  -0.415558153468786E+00   0.545535101644210E-03   0.410191E-01   0.635664E+00   0.791399E+03   0.480960E-17
  Finished solving LPB equations
  A_corr:   -0.348677943629171     
 End minimization
 Ecorr=   1709.09985308465     
 A_corr= -0.348677943629171     
 Ecorr_band=  -1709.44853102828     
 End Solvation calculations
DAV:   1    -0.138106443213E+03   -0.25642E-03   -0.19086E-01 12564   0.101E+00    0.916E-02
 Begin Solvation calculations
  rms_SCF =   8.309742838429224E-003 tol =   8.309742838429224E-004
 Begin minimization
 Creating dielectric and ionic cavities
  area:      127.301772049173     
  volume:    637.297197238657     
  Acav:     6.683343032581603E-002
  Solving linear dielectric/ionic screening model
        iter                  A_solv                     rms
   LPB:       -0.417119968538522E+00   0.249087147286156E+00
   LPB:    0  -0.417090079440028E+00   0.223503252809108E+00  -0.143541E-02   0.000000E+00   0.290128E+02  -0.416453E-01
   LPB:    1  -0.416938409949066E+00   0.298071921652157E-01   0.951107E-02   0.000000E+00   0.655328E+02   0.103557E-17
   LPB:    2  -0.416916871616410E+00   0.646306079608367E-02   0.150872E-01   0.895232E-01   0.220460E+03  -0.395804E-16
   LPB:    3  -0.416911988076050E+00   0.643868662457983E-02   0.258545E-01   0.132311E+00   0.462052E+03  -0.268811E-16
   LPB:    4  -0.416910452900392E+00   0.566504226039962E-02   0.226926E-01   0.358158E+00   0.102899E+03  -0.151367E-16
   LPB:    5  -0.416909511834797E+00   0.281770359139680E-02   0.254529E-01   0.546525E+00   0.253852E+03   0.210365E-16
   LPB:    6  -0.416908903591207E+00   0.130287276249407E-02   0.324252E-01   0.507355E+00   0.221031E+03   0.124817E-16
   LPB:    7  -0.416908472920540E+00   0.941153505956132E-03   0.357757E-01   0.641744E+00   0.575238E+03   0.402510E-17
   LPB:    8  -0.416908130022586E+00   0.603029297901091E-03   0.392539E-01   0.725646E+00   0.384458E+03  -0.692075E-17
  Finished solving LPB equations
  A_corr:   -0.350074699696770     
 End minimization
 Ecorr=   1709.09995517963     
 A_corr= -0.350074699696770     
 Ecorr_band=  -1709.45002987933     
 End Solvation calculations
RMM:   2    -0.138107442525E+03   -0.99931E-03   -0.11035E-02 18530   0.271E-01    0.635E-02
 Begin Solvation calculations
  rms_SCF =   8.309742838429224E-003 tol =   8.309742838429224E-004
 Begin minimization
 Creating dielectric and ionic cavities
  area:      127.292900266129     
  volume:    637.311846340525     
  Acav:     6.682877263971759E-002
  Solving linear dielectric/ionic screening model
        iter                  A_solv                     rms
   LPB:       -0.417364732517706E+00   0.166457095419650E+00
   LPB:    0  -0.417362699191342E+00   0.163863956985773E+00  -0.374394E-03   0.000000E+00   0.290121E+02  -0.108620E-01
   LPB:    1  -0.417297870589305E+00   0.189895485386771E-01   0.891140E-02   0.000000E+00   0.605350E+02   0.473850E-18
   LPB:    2  -0.417288732656478E+00   0.367534926016129E-02   0.176178E-01   0.712978E-01   0.102666E+03  -0.369193E-17
   LPB:    3  -0.417287326015704E+00   0.146351271120847E-02   0.230707E-01   0.117551E+00   0.219917E+03  -0.335788E-16
   LPB:    4  -0.417286874422370E+00   0.827426454058571E-03   0.294077E-01   0.251862E+00   0.290188E+03  -0.378489E-16
  Finished solving LPB equations
  A_corr:   -0.350458101782653     
 End minimization
 Ecorr=   1709.01784096612     
 A_corr= -0.350458101782653     
 Ecorr_band=  -1709.36829906790     
 End Solvation calculations
RMM:   3    -0.138107250065E+03    0.19246E-03   -0.55785E-04 16992   0.515E-02    0.649E-02
 Begin Solvation calculations
  rms_SCF =   8.309742838429224E-003 tol =   8.309742838429224E-004
 Begin minimization
 Creating dielectric and ionic cavities
  area:      127.295963398020     
  volume:    637.313600042777     
  Acav:     6.683038078396047E-002
  Solving linear dielectric/ionic screening model
        iter                  A_solv                     rms
   LPB:       -0.417647047739668E+00   0.142521658408244E+00
   LPB:    0  -0.417646167118708E+00   0.141164863397247E+00  -0.246388E-03   0.000000E+00   0.290120E+02  -0.714823E-02
   LPB:    1  -0.417598364174511E+00   0.124074765288798E-01   0.864741E-02   0.000000E+00   0.640023E+02  -0.481856E-18
   LPB:    2  -0.417594602054632E+00   0.187787125215416E-02   0.149408E-01   0.455502E-01   0.145641E+03  -0.140857E-16
   LPB:    3  -0.417594069205139E+00   0.151839378892976E-02   0.242217E-01   0.873657E-01   0.376775E+03  -0.212246E-16
   LPB:    4  -0.417593872597762E+00   0.130170852317995E-02   0.296730E-01   0.301189E+00   0.156490E+03  -0.202835E-16
   LPB:    5  -0.417593715205129E+00   0.192167301901371E-02   0.341069E-01   0.696472E+00   0.307234E+03  -0.801541E-17
   LPB:    6  -0.417593547984758E+00   0.177188887158476E-02   0.346060E-01   0.104712E+01   0.537397E+02  -0.593026E-18
   LPB:    7  -0.417593341532034E+00   0.902059449151686E-03   0.385901E-01   0.110715E+01   0.211800E+03   0.158271E-17
   LPB:    8  -0.417593123434145E+00   0.515429082642926E-03   0.435315E-01   0.936489E+00   0.114554E+03   0.306314E-16
  Finished solving LPB equations
  A_corr:   -0.350762742650185     
 End minimization
 Ecorr=   1708.91335958697     
 A_corr= -0.350762742650185     
 Ecorr_band=  -1709.26412232962     
 End Solvation calculations
RMM:   4    -0.138107208306E+03    0.41759E-04   -0.90531E-05 11375   0.291E-02    0.469E-02
 Begin Solvation calculations
  rms_SCF =   8.309742838429224E-003 tol =   8.309742838429224E-004
 Begin minimization
 Creating dielectric and ionic cavities
  area:      127.290176589974     
  volume:    637.319553381509     
  Acav:     6.682734270973660E-002
  Solving linear dielectric/ionic screening model
        iter                  A_solv                     rms
   LPB:       -0.418339217757476E+00   0.615325483230346E-01
   LPB:    0  -0.418332348264002E+00   0.275500257772088E-01  -0.688161E-03   0.000000E+00   0.290118E+02  -0.199648E-01
   LPB:    1  -0.418317409190828E+00   0.974675684469047E-02   0.183990E-01   0.000000E+00   0.742042E+02  -0.114228E-17
   LPB:    2  -0.418315589225081E+00   0.512189994267588E-02   0.165012E-01   0.135836E+00   0.169756E+03   0.172696E-15
   LPB:    3  -0.418315011552311E+00   0.232929666093615E-02   0.201056E-01   0.260507E+00   0.103398E+03   0.200240E-15
   LPB:    4  -0.418314799588207E+00   0.240648614530555E-02   0.261865E-01   0.281721E+00   0.196595E+03   0.167510E-15
   LPB:    5  -0.418314710813186E+00   0.184474960054383E-02   0.208777E-01   0.525318E+00   0.129655E+03   0.155594E-15
   LPB:    6  -0.418314628498765E+00   0.733547727411058E-03   0.254247E-01   0.761400E+00   0.186261E+03   0.150803E-15
  Finished solving LPB equations
  A_corr:   -0.351487285789028     
 End minimization
 Ecorr=   1708.82685587626     
 A_corr= -0.351487285789028     
 Ecorr_band=  -1709.17834316205     
 End Solvation calculations
RMM:   5    -0.138107182389E+03    0.25917E-04   -0.30920E-05  7697   0.214E-02    0.281E-02
 Begin Solvation calculations
  rms_SCF =   8.309742838429224E-003 tol =   8.309742838429224E-004
 Begin minimization
 Creating dielectric and ionic cavities
  area:      127.292564336039     
  volume:    637.340336485060     
  Acav:     6.682859627642050E-002
  Solving linear dielectric/ionic screening model
        iter                  A_solv                     rms
   LPB:       -0.419581588126378E+00   0.108550098796515E+00
   LPB:    0  -0.419564751754526E+00   0.634276279466321E-01  -0.107736E-02   0.000000E+00   0.290108E+02  -0.312550E-01
   LPB:    1  -0.419528023310933E+00   0.355282922496468E-01   0.136298E-01   0.000000E+00   0.747486E+02  -0.883084E-18
   LPB:    2  -0.419520223878018E+00   0.609566402017763E-02   0.135356E-01   0.213832E+00   0.873068E+02  -0.204444E-15
   LPB:    3  -0.419518145189212E+00   0.444141617145772E-02   0.210000E-01   0.171785E+00   0.271686E+03  -0.245590E-15
   LPB:    4  -0.419517426462318E+00   0.367460297427254E-02   0.246693E-01   0.294331E+00   0.755623E+02  -0.264773E-15
   LPB:    5  -0.419517012635637E+00   0.240100292278640E-02   0.243151E-01   0.584166E+00   0.273465E+03  -0.295824E-15
   LPB:    6  -0.419516713648132E+00   0.842945237977070E-03   0.324003E-01   0.542201E+00   0.985678E+02  -0.321640E-15
   LPB:    7  -0.419516504340875E+00   0.536788000129139E-03   0.360361E-01   0.629424E+00   0.175663E+03  -0.349446E-15
  Finished solving LPB equations
  A_corr:   -0.352687908064455     
 End minimization
 Ecorr=   1708.57781109556     
 A_corr= -0.352687908064455     
 Ecorr_band=  -1708.93049900362     
 End Solvation calculations
RMM:   6    -0.138107188820E+03   -0.64311E-05   -0.84104E-05 11502   0.405E-02
 Begin Solvation calculations
  rms_SCF =   8.309742838429224E-003 tol =   8.309742838429224E-004
 Begin minimization
 Creating dielectric and ionic cavities
  area:      127.296295088161     
  volume:    637.352521613146     
  Acav:     6.683055492128444E-002
  Solving linear dielectric/ionic screening model
        iter                  A_solv                     rms
   LPB:       -0.419893624096930E+00   0.302630133902183E-01
   LPB:    0  -0.419892320336026E+00   0.156881873649642E-01  -0.299805E-03   0.000000E+00   0.290102E+02  -0.869740E-02
   LPB:    1  -0.419888403124387E+00   0.566032182200111E-02   0.183352E-01   0.000000E+00   0.593389E+02  -0.247666E-18
   LPB:    2  -0.419887909161636E+00   0.306791171212834E-02   0.169113E-01   0.136718E+00   0.112739E+03  -0.100753E-15
   LPB:    3  -0.419887745748706E+00   0.155933458010430E-02   0.193784E-01   0.288703E+00   0.123887E+03  -0.120570E-15
   LPB:    4  -0.419887634354367E+00   0.209082528510558E-02   0.291338E-01   0.453416E+00   0.721524E+02  -0.135724E-15
   LPB:    5  -0.419887508717172E+00   0.221813094688268E-02   0.300278E-01   0.109428E+01   0.133286E+03  -0.142556E-15
   LPB:    6  -0.419887338150455E+00   0.970755894057676E-03   0.351315E-01   0.116039E+01   0.456355E+02  -0.160775E-15
   LPB:    7  -0.419887194715637E+00   0.528123505754777E-03   0.361359E-01   0.817557E+00   0.951500E+02  -0.194054E-15
  Finished solving LPB equations
  A_corr:   -0.353056639794352     
 End minimization
 Ecorr=   1708.38369294915     
 A_corr= -0.353056639794352     
 Ecorr_band=  -1708.73674958895     
 End Solvation calculations
   4 F= -.13810719E+03 E0= -.13810511E+03  d E =-.100067E-02
quench:  g(F)=  0.000E+00 g(S)=  0.000E+00 dE (1.order)= 0.000E+00
 bond charge predicted
       N       E                     dE             d eps       ncg     rms          rms(c)
 Begin Solvation calculations
  rms_SCF =   8.309742838429224E-003 tol =   8.309742838429224E-004
 Begin minimization
 Creating dielectric and ionic cavities
  area:      127.395934880045     
  volume:    637.287522823520     
  Acav:     6.688286581202378E-002
  Solving linear dielectric/ionic screening model
        iter                  A_solv                     rms
   LPB:       -0.423047828829352E+00   0.627162221270383E-02
   LPB:    0  -0.423047828020887E+00   0.647520178076202E-02  -0.746530E-05   0.000000E+00   0.290133E+02  -0.216593E-03
   LPB:    1  -0.420873427378520E+00   0.272074026150661E-02   0.156227E-01   0.000000E+00   0.327167E+06  -0.976394E-20
   LPB:    2  -0.420667316387600E+00   0.367433855448644E-02   0.261578E-01   0.566131E-01   0.776313E+05  -0.129416E-16
   LPB:    3  -0.420605599786290E+00   0.847949713818855E-02   0.317797E-01   0.246463E+00   0.118203E+05  -0.139064E-16
   LPB:    4  -0.420581112371977E+00   0.222802461333010E-01   0.326505E-01   0.386189E+00   0.803021E+03  -0.132879E-16
   LPB:    5  -0.420571759532117E+00   0.228175500424558E-01   0.201113E-01   0.620083E+00   0.144388E+03   0.676604E-17
   LPB:    6  -0.420563610259935E+00   0.589556188776423E-02   0.231120E-01   0.758189E+00   0.336970E+03   0.148640E-16
   LPB:    7  -0.420557852091357E+00   0.358576351069240E-02   0.376386E-01   0.433881E+00   0.673160E+03   0.211702E-16
   LPB:    8  -0.420554411086461E+00   0.780487897572214E-02   0.367675E-01   0.611745E+00   0.653760E+03   0.304886E-16
   LPB:    9  -0.420552450274203E+00   0.692353337064821E-02   0.259466E-01   0.807485E+00   0.953054E+02   0.630934E-16
   LPB:   10  -0.420550798602004E+00   0.246989429655045E-02   0.287570E-01   0.760020E+00   0.461197E+03   0.315272E-16
   LPB:   11  -0.420549565882919E+00   0.721687264257163E-03   0.384218E-01   0.558606E+00   0.525474E+03  -0.518925E-16
  Finished solving LPB equations
  A_corr:   -0.353666700070896     
 End minimization
 Ecorr=   1708.19463200714     
 A_corr= -0.353666700070896     
 Ecorr_band=  -1708.54829870721     
 End Solvation calculations
[...]
 A_corr= -0.365056386345680     
 Ecorr_band=  -1705.92204307717     
 End Solvation calculations
RMM:   4    -0.138107938211E+03    0.18446E-05   -0.87772E-06  6671   0.148E-02
 Begin Solvation calculations
  rms_SCF =   1.065220305126184E-003 tol =   1.065220305126185E-004
 Begin minimization
 Creating dielectric and ionic cavities
  area:      127.455567259232     
  volume:    636.714337771243     
  Acav:     6.691417281109673E-002
  Solving linear dielectric/ionic screening model
        iter                  A_solv                     rms
   LPB:       -0.432060257825028E+00   0.118153232222704E-01
   LPB:    0  -0.432060130137755E+00   0.955653610701729E-02  -0.937755E-04   0.000000E+00   0.290401E+02  -0.272325E-02
   LPB:    1  -0.432059204121185E+00   0.501023211015480E-02   0.132463E-01   0.000000E+00   0.111073E+03  -0.185999E-18
   LPB:    2  -0.432058983444625E+00   0.909889492282399E-03   0.133828E-01   0.235877E+00   0.189576E+03   0.705597E-17
   LPB:    3  -0.432058926845440E+00   0.414993783786835E-03   0.268473E-01   0.127850E+00   0.299117E+03   0.824877E-17
   LPB:    4  -0.432058908173952E+00   0.452235723484096E-03   0.273933E-01   0.323313E+00   0.360060E+03   0.950776E-17
   LPB:    5  -0.432058899108601E+00   0.429345374477248E-03   0.242779E-01   0.547822E+00   0.214224E+03   0.946821E-17
   LPB:    6  -0.432058893018327E+00   0.243888467585669E-03   0.275865E-01   0.591244E+00   0.126935E+03   0.798705E-17
   LPB:    7  -0.432058888806221E+00   0.154485439936839E-03   0.338142E-01   0.564235E+00   0.324236E+03   0.819590E-17
   LPB:    8  -0.432058885894151E+00   0.104112811761498E-03   0.366649E-01   0.637605E+00   0.253472E+03   0.716918E-17
  Finished solving LPB equations
  A_corr:   -0.365144713083054     
 End minimization
 Ecorr=   1705.55438467658     
 A_corr= -0.365144713083054     
 Ecorr_band=  -1705.91952938967     
 End Solvation calculations
  70 F= -.13810794E+03 E0= -.13810600E+03  d E =-.490204E-04
quench:  g(F)=  0.000E+00 g(S)=  0.000E+00 dE (1.order)= 0.000E+00
 bond charge predicted
       N       E                     dE             d eps       ncg     rms          rms(c)
 Begin Solvation calculations
  rms_SCF =   1.065220305126184E-003 tol =   1.065220305126185E-004
 Begin minimization
 Creating dielectric and ionic cavities
  area:      127.451579392293     
  volume:    636.703219566472     
  Acav:     6.691207918095381E-002
  Solving linear dielectric/ionic screening model
        iter                  A_solv                     rms
   LPB:       -0.432160777505101E+00   0.988106526096184E-03
   LPB:    0  -0.432160777486529E+00   0.101938783361225E-02  -0.113093E-05   0.000000E+00   0.290407E+02  -0.328429E-04
   LPB:    1  -0.432111289984595E+00   0.445627825479373E-03   0.161092E-01   0.000000E+00   0.272581E+06  -0.251851E-20
   LPB:    2  -0.432105574340824E+00   0.571217106236834E-03   0.272733E-01   0.682190E-01   0.674030E+05   0.150336E-17
   LPB:    3  -0.432103747206715E+00   0.125372061935854E-02   0.320831E-01   0.271748E+00   0.117465E+05  -0.186726E-18
   LPB:    4  -0.432103020340363E+00   0.297220192160819E-02   0.329918E-01   0.386861E+00   0.985602E+03  -0.201902E-17
   LPB:    5  -0.432102743948051E+00   0.394030747599738E-02   0.230431E-01   0.544424E+00   0.168182E+03  -0.581959E-17
   LPB:    6  -0.432102546240448E+00   0.151420676860135E-02   0.204093E-01   0.807624E+00   0.225267E+03  -0.118434E-16
   LPB:    7  -0.432102408497310E+00   0.166006057684074E-02   0.314023E-01   0.452807E+00   0.327217E+03  -0.131422E-16
   LPB:    8  -0.432102331707551E+00   0.139372436797464E-02   0.244172E-01   0.716968E+00   0.141031E+03  -0.187089E-16
   LPB:    9  -0.432102266058559E+00   0.427015649971623E-03   0.290526E-01   0.718513E+00   0.292391E+03  -0.308837E-16
   LPB:   10  -0.432102218190836E+00   0.119444821595885E-03   0.390394E-01   0.542621E+00   0.319821E+04  -0.471851E-16
   LPB:   11  -0.432102186289385E+00   0.118704219142060E-03   0.407537E-01   0.638417E+00   0.631853E+04  -0.608962E-16
   LPB:   12  -0.432102166114209E+00   0.156681587768553E-03   0.393615E-01   0.654789E+00   0.185143E+04  -0.704208E-16
   LPB:   13  -0.432102153095424E+00   0.171678392184436E-03   0.377419E-01   0.672979E+00   0.140873E+04  -0.764897E-16
   LPB:   14  -0.432102143711958E+00   0.139142414261988E-03   0.376163E-01   0.723170E+00   0.833461E+03  -0.812792E-16
   LPB:   15  -0.432102136719699E+00   0.879507096616859E-04   0.381869E-01   0.734033E+00   0.168250E+04  -0.836066E-16
  Finished solving LPB equations
  A_corr:   -0.365190057538746     
 End minimization
 Ecorr=   1705.55004059871     
 A_corr= -0.365190057538746     
 Ecorr_band=  -1705.91523065625     
 End Solvation calculations
DAV:   1    -0.138107938981E+03    0.10745E-05   -0.59208E-03 12639   0.181E-01    0.217E-02
 Begin Solvation calculations
  rms_SCF =   1.065220305126184E-003 tol =   1.065220305126185E-004
 Begin minimization
 Creating dielectric and ionic cavities
  area:      127.452234150012     
  volume:    636.712333299962     
  Acav:     6.691242292875611E-002
  Solving linear dielectric/ionic screening model
        iter                  A_solv                     rms
   LPB:       -0.432024818579358E+00   0.134990756635488E-01
   LPB:    0  -0.432024567229115E+00   0.918241303564805E-02   0.131569E-03   0.000000E+00   0.290402E+02   0.382080E-02
   LPB:    1  -0.432023730026119E+00   0.466336804693574E-02   0.134724E-01   0.000000E+00   0.996881E+02   0.624252E-19
   LPB:    2  -0.432023507827763E+00   0.113563178823820E-02   0.143401E-01   0.249347E+00   0.210428E+03   0.522286E-17
   LPB:    3  -0.432023442173852E+00   0.906749143255702E-03   0.248028E-01   0.170832E+00   0.295165E+03   0.571967E-17
   LPB:    4  -0.432023416501449E+00   0.681895186446856E-03   0.217303E-01   0.446315E+00   0.178154E+03   0.702129E-17
   LPB:    5  -0.432023400864536E+00   0.366311852239752E-03   0.262795E-01   0.503655E+00   0.185922E+03   0.143091E-16
   LPB:    6  -0.432023391121939E+00   0.202009475726888E-03   0.321398E-01   0.509446E+00   0.285734E+03   0.183196E-16
   LPB:    7  -0.432023384638139E+00   0.154178849139378E-03   0.364215E-01   0.587273E+00   0.486720E+03   0.247737E-16
   LPB:    8  -0.432023380029336E+00   0.122341439070476E-03   0.384538E-01   0.673251E+00   0.571181E+03   0.298099E-16
   LPB:    9  -0.432023376484830E+00   0.816953184359838E-04   0.395981E-01   0.746850E+00   0.860461E+03   0.339810E-16
  Finished solving LPB equations
  A_corr:   -0.365110953556074     
 End minimization
 Ecorr=   1705.53684353093     
 A_corr= -0.365110953556074     
 Ecorr_band=  -1705.90195448449     
 End Solvation calculations
RMM:   2    -0.138107987123E+03   -0.48142E-04   -0.50756E-04 18380   0.519E-02    0.172E-02
 Begin Solvation calculations
  rms_SCF =   1.065220305126184E-003 tol =   1.065220305126185E-004
 Begin minimization
 Creating dielectric and ionic cavities
  area:      127.450863174053     
  volume:    636.711987595041     
  Acav:     6.691170316637790E-002
  Solving linear dielectric/ionic screening model
        iter                  A_solv                     rms
   LPB:       -0.431993717061901E+00   0.306034009111183E-01
   LPB:    0  -0.431993715568619E+00   0.305901965791230E-01   0.101411E-04   0.000000E+00   0.290403E+02   0.294501E-03
   LPB:    1  -0.431991499289215E+00   0.287654797991923E-02   0.870596E-02   0.000000E+00   0.624899E+02  -0.181189E-19
   LPB:    2  -0.431991305541561E+00   0.478846955293714E-03   0.151544E-01   0.502217E-01   0.136674E+03   0.655845E-18
   LPB:    3  -0.431991279051111E+00   0.215763454757932E-03   0.240612E-01   0.861140E-01   0.226611E+03  -0.636180E-18
   LPB:    4  -0.431991270916912E+00   0.159288853376450E-03   0.282108E-01   0.261894E+00   0.312290E+03   0.135227E-17
   LPB:    5  -0.431991266842815E+00   0.208043235131549E-03   0.298113E-01   0.473971E+00   0.378619E+03   0.183254E-17
   LPB:    6  -0.431991264409021E+00   0.237304578499524E-03   0.291312E-01   0.611330E+00   0.121585E+03   0.187203E-17
   LPB:    7  -0.431991262549588E+00   0.143408959633928E-03   0.282864E-01   0.786824E+00   0.183948E+03   0.173155E-17
   LPB:    8  -0.431991260674326E+00   0.608177743864464E-04   0.387443E-01   0.736293E+00   0.318029E+03   0.117202E-18
  Finished solving LPB equations
  A_corr:   -0.365079557507948     
 End minimization
 Ecorr=   1705.53712262351     
 A_corr= -0.365079557507948     
 Ecorr_band=  -1705.90220218102     
 End Solvation calculations
RMM:   3    -0.138107978368E+03    0.87549E-05   -0.20031E-05  7406   0.132E-02
 Begin Solvation calculations
  rms_SCF =   1.065220305126184E-003 tol =   1.065220305126185E-004
 Begin minimization
 Creating dielectric and ionic cavities
  area:      127.451341512685     
  volume:    636.712909180665     
  Acav:     6.691195429415937E-002
  Solving linear dielectric/ionic screening model
        iter                  A_solv                     rms
   LPB:       -0.431978217002577E+00   0.242760505882503E-01
   LPB:    0  -0.431978208955588E+00   0.242209529185286E-01   0.235414E-04   0.000000E+00   0.290402E+02   0.683646E-03
   LPB:    1  -0.431976831797067E+00   0.240453670615858E-02   0.862847E-02   0.000000E+00   0.630448E+02  -0.242956E-19
   LPB:    2  -0.431976696349872E+00   0.466144247382244E-03   0.167161E-01   0.507676E-01   0.111134E+03   0.125276E-17
   LPB:    3  -0.431976678237257E+00   0.189551613241075E-03   0.223756E-01   0.999012E-01   0.185132E+03   0.126673E-17
   LPB:    4  -0.431976672083386E+00   0.103813333093650E-03   0.299534E-01   0.253802E+00   0.318122E+03   0.362571E-17
  Finished solving LPB equations
  A_corr:   -0.365064717789226     
 End minimization
 Ecorr=   1705.53989787062     
 A_corr= -0.365064717789226     
 Ecorr_band=  -1705.90496258841     
 End Solvation calculations
  71 F= -.13810798E+03 E0= -.13810603E+03  d E =-.401574E-04
quench:  g(F)=  0.000E+00 g(S)=  0.000E+00 dE (1.order)= 0.000E+00
 bond charge predicted
       N       E                     dE             d eps       ncg     rms          rms(c)
 Begin Solvation calculations
  rms_SCF =   1.065220305126184E-003 tol =   1.065220305126185E-004
 Begin minimization
 Creating dielectric and ionic cavities
  area:      127.456516199500     
  volume:    636.709260594397     
  Acav:     6.691467100473751E-002
  Solving linear dielectric/ionic screening model
        iter                  A_solv                     rms
   LPB:       -0.432057899327498E+00   0.740822853911893E-03
   LPB:    0  -0.432057899325601E+00   0.746389997917913E-03  -0.361388E-06   0.000000E+00   0.290404E+02  -0.104949E-04
   LPB:    1  -0.432014345517282E+00   0.291194076706762E-03   0.160621E-01   0.000000E+00   0.558157E+06  -0.676842E-21
   LPB:    2  -0.432009886537080E+00   0.235099435884284E-03   0.261222E-01   0.629509E-01   0.142443E+06   0.425276E-18
   LPB:    3  -0.432008576735403E+00   0.509044736575557E-03   0.316589E-01   0.242373E+00   0.507647E+05  -0.719877E-19
   LPB:    4  -0.432008035961950E+00   0.131208253181691E-02   0.347534E-01   0.376105E+00   0.391878E+04   0.561758E-19
   LPB:    5  -0.432007796150759E+00   0.307155382811441E-02   0.314715E-01   0.489703E+00   0.389707E+03   0.132425E-18
   LPB:    6  -0.432007683732340E+00   0.192936960855192E-02   0.180734E-01   0.816295E+00   0.142359E+03   0.360594E-17
   LPB:    7  -0.432007579187533E+00   0.682869421550387E-03   0.284179E-01   0.591441E+00   0.516062E+03   0.700537E-17
   LPB:    8  -0.432007515972299E+00   0.109638693911793E-02   0.341004E-01   0.503909E+00   0.418784E+03   0.103191E-16
   LPB:    9  -0.432007480470636E+00   0.881478378934590E-03   0.246633E-01   0.776487E+00   0.127427E+03   0.159711E-16
   LPB:   10  -0.432007451306598E+00   0.306391476017574E-03   0.292935E-01   0.691640E+00   0.381508E+03   0.115056E-16
   LPB:   11  -0.432007430482168E+00   0.131820119923910E-03   0.383706E-01   0.545126E+00   0.116745E+04   0.121803E-16
   LPB:   12  -0.432007417372305E+00   0.142309201898655E-03   0.384291E-01   0.628584E+00   0.265658E+04   0.119649E-16
   LPB:   13  -0.432007408855858E+00   0.138900457653977E-03   0.363665E-01   0.686467E+00   0.127650E+04   0.119797E-16
   LPB:   14  -0.432007402993335E+00   0.102361467898068E-03   0.357489E-01   0.700269E+00   0.130014E+04   0.121083E-16
  Finished solving LPB equations
  A_corr:   -0.365092731988598     
 End minimization
 Ecorr=   1705.52974480159     
 A_corr= -0.365092731988598     
 Ecorr_band=  -1705.89483753358     
 End Solvation calculations
DAV:   1    -0.138107990232E+03   -0.31090E-05   -0.50654E-03 13482   0.179E-01    0.174E-02
 Begin Solvation calculations
  rms_SCF =   1.065220305126184E-003 tol =   1.065220305126185E-004
 Begin minimization
 Creating dielectric and ionic cavities
  area:      127.452359041875     
  volume:    636.707533505676     
  Acav:     6.691248849698442E-002
  Solving linear dielectric/ionic screening model
        iter                  A_solv                     rms
   LPB:       -0.432009096824759E+00   0.465433025955927E-01
   LPB:    0  -0.432009086348126E+00   0.465110605880123E-01  -0.268611E-04   0.000000E+00   0.290405E+02  -0.780059E-03
   LPB:    1  -0.432003993758966E+00   0.439931254041064E-02   0.863299E-02   0.000000E+00   0.631699E+02  -0.321229E-20
   LPB:    2  -0.432003528806963E+00   0.787927143229066E-03   0.160840E-01   0.490045E-01   0.123963E+03  -0.264066E-17
   LPB:    3  -0.432003463317188E+00   0.310729552125860E-03   0.231194E-01   0.979902E-01   0.234700E+03  -0.273217E-17
   LPB:    4  -0.432003442742229E+00   0.162909483978150E-03   0.286270E-01   0.253728E+00   0.417682E+03  -0.182673E-17
   LPB:    5  -0.432003433273628E+00   0.137683558490882E-03   0.309058E-01   0.426267E+00   0.528828E+03   0.717953E-18
   LPB:    6  -0.432003427885420E+00   0.205376342091732E-03   0.343154E-01   0.512519E+00   0.335537E+03   0.178240E-17
   LPB:    7  -0.432003424764014E+00   0.290244252772765E-03   0.303314E-01   0.655393E+00   0.198006E+03   0.214535E-17
   LPB:    8  -0.432003422427862E+00   0.162672044932120E-03   0.267011E-01   0.850188E+00   0.125898E+03   0.119628E-17
   LPB:    9  -0.432003420281626E+00   0.660980630072117E-04   0.364679E-01   0.672658E+00   0.628967E+03   0.318655E-17
  Finished solving LPB equations
  A_corr:   -0.365090931784641     
 End minimization
 Ecorr=   1705.53193693903     
 A_corr= -0.365090931784641     
 Ecorr_band=  -1705.89702787081     
 End Solvation calculations
RMM:   2    -0.138108038472E+03   -0.48240E-04   -0.42981E-04 17385   0.511E-02    0.220E-02
 Begin Solvation calculations
  rms_SCF =   1.065220305126184E-003 tol =   1.065220305126185E-004
 Begin minimization
 Creating dielectric and ionic cavities
  area:      127.453617818327     
  volume:    636.707234414010     
  Acav:     6.691314935462157E-002
  Solving linear dielectric/ionic screening model
        iter                  A_solv                     rms
   LPB:       -0.432035434127766E+00   0.562123256188664E-01
   LPB:    0  -0.432035432942020E+00   0.562087870879994E-01  -0.903668E-05   0.000000E+00   0.290405E+02  -0.262430E-03
   LPB:    1  -0.432028085619797E+00   0.541065036401446E-02   0.864140E-02   0.000000E+00   0.622848E+02  -0.153868E-19
   LPB:    2  -0.432027445613605E+00   0.965061563794247E-03   0.156123E-01   0.482140E-01   0.119166E+03   0.285502E-19
   LPB:    3  -0.432027365793422E+00   0.390204096212416E-03   0.224859E-01   0.865934E-01   0.185064E+03  -0.304116E-18
   LPB:    4  -0.432027344343444E+00   0.257580409749961E-03   0.270347E-01   0.223513E+00   0.282881E+03  -0.458818E-19
   LPB:    5  -0.432027335124812E+00   0.300216175685900E-03   0.277552E-01   0.418616E+00   0.282625E+03   0.191297E-17
   LPB:    6  -0.432027330807118E+00   0.290583642843316E-03   0.259225E-01   0.501480E+00   0.126191E+03   0.445067E-17
   LPB:    7  -0.432027328296949E+00   0.150438384810749E-03   0.248199E-01   0.607194E+00   0.171476E+03   0.799657E-17
   LPB:    8  -0.432027326466800E+00   0.511601808215315E-04   0.337582E-01   0.536049E+00   0.269391E+03   0.119539E-16
  Finished solving LPB equations
  A_corr:   -0.365114177112179     
 End minimization
 Ecorr=   1705.54379057470     
 A_corr= -0.365114177112179     
 Ecorr_band=  -1705.90890475181     
 End Solvation calculations
RMM:   3    -0.138108026753E+03    0.11719E-04   -0.19651E-05  7424   0.147E-02    0.154E-02
 Begin Solvation calculations
  rms_SCF =   1.065220305126184E-003 tol =   1.065220305126185E-004
 Begin minimization
 Creating dielectric and ionic cavities
  area:      127.452815397012     
  volume:    636.707635962460     
  Acav:     6.691272808343118E-002
  Solving linear dielectric/ionic screening model
        iter                  A_solv                     rms
   LPB:       -0.432023680275129E+00   0.171826254787641E-01
   LPB:    0  -0.432023680153646E+00   0.171788915132469E-01   0.289248E-05   0.000000E+00   0.290405E+02   0.839991E-04
   LPB:    1  -0.432022985999201E+00   0.157176651163966E-02   0.855945E-02   0.000000E+00   0.641922E+02  -0.507332E-20
   LPB:    2  -0.432022926238914E+00   0.333911436914689E-03   0.163165E-01   0.451623E-01   0.122127E+03  -0.615189E-19
   LPB:    3  -0.432022917808187E+00   0.179757978243176E-03   0.230450E-01   0.998853E-01   0.169362E+03  -0.721619E-19
   LPB:    4  -0.432022914812990E+00   0.167130948043545E-03   0.288547E-01   0.283740E+00   0.263652E+03  -0.787721E-18
   LPB:    5  -0.432022913386312E+00   0.146998001112854E-03   0.252048E-01   0.545299E+00   0.200733E+03   0.188730E-18
   LPB:    6  -0.432022912501637E+00   0.102592890875808E-03   0.272478E-01   0.573600E+00   0.207907E+03   0.868643E-18
  Finished solving LPB equations
  A_corr:   -0.365110184418206     
 End minimization
 Ecorr=   1705.54125023952     
 A_corr= -0.365110184418206     
 Ecorr_band=  -1705.90636042394     
 End Solvation calculations
RMM:   4    -0.138108024059E+03    0.26939E-05   -0.58227E-06  6612   0.125E-02
 Begin Solvation calculations
  rms_SCF =   1.065220305126184E-003 tol =   1.065220305126185E-004
 Begin minimization
 Creating dielectric and ionic cavities
  area:      127.451951427843     
  volume:    636.706517262686     
  Acav:     6.691227449961769E-002
  Solving linear dielectric/ionic screening model
        iter                  A_solv                     rms
   LPB:       -0.432051344849012E+00   0.936754927405520E-02
   LPB:    0  -0.432051334564727E+00   0.921214105807903E-02  -0.266134E-04   0.000000E+00   0.290405E+02  -0.772866E-03
   LPB:    1  -0.432051048169199E+00   0.146171628752369E-02   0.995168E-02   0.000000E+00   0.681305E+02   0.126581E-19
   LPB:    2  -0.432051001492693E+00   0.222800231345531E-03   0.146307E-01   0.110857E+00   0.344563E+03  -0.270868E-18
   LPB:    3  -0.432050991359842E+00   0.127553928018044E-03   0.263827E-01   0.120387E+00   0.772573E+03   0.967259E-18
   LPB:    4  -0.432050987626001E+00   0.113533148811777E-03   0.305894E-01   0.317813E+00   0.514496E+03   0.134126E-17
   LPB:    5  -0.432050985607479E+00   0.159562070043710E-03   0.306849E-01   0.538920E+00   0.457445E+03   0.157319E-17
   LPB:    6  -0.432050984240552E+00   0.176361809223645E-03   0.294991E-01   0.704414E+00   0.138539E+03   0.204023E-17
   LPB:    7  -0.432050983125018E+00   0.116581224582438E-03   0.299611E-01   0.803504E+00   0.200816E+03   0.254422E-17
   LPB:    8  -0.432050982045006E+00   0.513473187115106E-04   0.371396E-01   0.781026E+00   0.313245E+03   0.205278E-17
  Finished solving LPB equations
  A_corr:   -0.365138707545389     
 End minimization
 Ecorr=   1705.54637609979     
 A_corr= -0.365138707545389     
 Ecorr_band=  -1705.91151480734     
 End Solvation calculations
  72 F= -.13810802E+03 E0= -.13810608E+03  d E =-.456913E-04
quench:  g(F)=  0.000E+00 g(S)=  0.000E+00 dE (1.order)= 0.000E+00
 reached required accuracy - stopping structural energy minimisation
