 vasp.5.4.4.18Apr17-6-g9f103f2a35 (build Feb 06 2024 13:54:16) complex          
  
 POSCAR found type information on POSCAR  Pd N  O 
 03/POSCAR found :  3 types and      40 ions
 scaLAPACK will be used

 ----------------------------------------------------------------------------- 
|                                                                             |
|  ADVICE TO THIS USER RUNNING 'VASP/VAMP'   (HEAR YOUR MASTER'S VOICE ...):  |
|                                                                             |
|      You enforced a specific xc-type in the INCAR file,                     |
|      a different type was found on the POTCAR file                          |
|          I HOPE YOU KNOW, WHAT YOU ARE  DOING                               |
|                                                                             |
 ----------------------------------------------------------------------------- 

 LDA part: xc-table for Pade appr. of Perdew
 POSCAR found type information on POSCAR  Pd N  O 
 00/POSCAR found :  3 types and      40 ions
 POSCAR found type information on POSCAR  Pd N  O 
 06/POSCAR found :  3 types and      40 ions
 Jacobian:    21.0960049830057     
 POSCAR, INCAR and KPOINTS ok, starting setup
 FFT: planning ...
 WAVECAR not read
 entering main loop
       N       E                     dE             d eps       ncg     rms          rms(c)
  Solvation turned off during non-self-consistent phase (first NELMDL steps)
DAV:   1     0.266885481067E+04    0.26689E+04   -0.17929E+05 11097   0.149E+03
DAV:   2    -0.100819382289E+02   -0.26789E+04   -0.25090E+04 12324   0.321E+02
DAV:   3    -0.183508394576E+03   -0.17343E+03   -0.15660E+03 13140   0.729E+01
DAV:   4    -0.190199005486E+03   -0.66906E+01   -0.63806E+01 12960   0.142E+01
DAV:   5    -0.190431974761E+03   -0.23297E+00   -0.22711E+00 13644   0.270E+00    0.360E+01
 Begin Solvation calculations
  rms_SCF =    3.51067262358224      tol =   0.351067262358224     
 Begin minimization
 Creating dielectric and ionic cavities
  area:      171.917982621216     
  volume:    808.924988297886     
  Acav:     9.025694087613814E-002
  Solving linear dielectric/ionic screening model
        iter                  A_solv                     rms
   LPB:       -0.578606678477647E+03   0.333740903292323E+03
   LPB:    0  -0.167840120719301E+01   0.954852296662100E+01  -0.603598E+01   0.000000E+00   0.316705E+02  -0.191163E+03
   LPB:    1  -0.551165359222182E+00   0.491839743661404E+01   0.129843E-01   0.000000E+00   0.131720E+03  -0.894001E-14
   LPB:    2  -0.306457722852542E+00   0.127373171763055E+01   0.147459E-01   0.191153E+00   0.104956E+03   0.607447E-14
   LPB:    3  -0.200795467301418E+00   0.467616642903486E+00   0.264099E-01   0.241088E+00   0.947822E+02   0.120695E-13
   LPB:    4  -0.158254024024586E+00   0.778748949103398E+00   0.294815E-01   0.360670E+00   0.304726E+03   0.110586E-13
   LPB:    5  -0.137925429848679E+00   0.460207286880652E+00   0.241620E-01   0.583059E+00   0.506278E+02   0.840287E-14
   LPB:    6  -0.124206112892807E+00   0.280257435693742E+00   0.285006E-01   0.572141E+00   0.328933E+03   0.326478E-14
  Finished solving LPB equations
  A_corr:   -3.394917201666900E-002
 End minimization
 Ecorr=   2202.80740213389     
 A_corr= -3.394917201666900E-002
 Ecorr_band=  -2202.84135130591     
 End Solvation calculations
RMM:   6    -0.185442149727E+03    0.49898E+01   -0.34592E+01 11131   0.125E+01    0.258E+01
 Begin Solvation calculations
  rms_SCF =    3.51067262358224      tol =   0.351067262358224     
 Begin minimization
 Creating dielectric and ionic cavities
  area:      178.555994639521     
  volume:    810.528799815231     
  Acav:     9.374189718574877E-002
  Solving linear dielectric/ionic screening model
        iter                  A_solv                     rms
   LPB:       -0.273121993045473E+02   0.945950480625298E+02
   LPB:    0  -0.271028343575139E+02   0.942935348386752E+02   0.115121E+00   0.000000E+00   0.315954E+02   0.363730E+01
   LPB:    1  -0.268950053486044E+01   0.878056300112750E+01   0.884219E-02   0.000000E+00   0.702188E+02  -0.917123E-16
   LPB:    2  -0.803684999171381E+00   0.168934516015628E+01   0.158324E-01   0.431405E-01   0.129181E+03  -0.742932E-15
   LPB:    3  -0.529299703501717E+00   0.563721614730118E+00   0.227050E-01   0.101458E+00   0.181362E+03  -0.102465E-14
   LPB:    4  -0.459037108664912E+00   0.285558255642973E+00   0.274036E-01   0.212167E+00   0.291956E+03  -0.577328E-14
  Finished solving LPB equations
  A_corr:   -0.365295211479163     
 End minimization
 Ecorr=   2183.20741838752     
 A_corr= -0.365295211479163     
 Ecorr_band=  -2183.57271359900     
 End Solvation calculations
RMM:   7    -0.251565109126E+03   -0.66123E+02   -0.28015E+01 11113   0.883E+00    0.598E+01
 Begin Solvation calculations
  rms_SCF =    3.51067262358224      tol =   0.351067262358224     
 Begin minimization
 Creating dielectric and ionic cavities
  area:      162.354369828299     
  volume:    811.870791545531     
  Acav:     8.523604415985706E-002
  Solving linear dielectric/ionic screening model
        iter                  A_solv                     rms
   LPB:       -0.195339380257907E+02   0.797718414890766E+02
   LPB:    0  -0.193632161834413E+02   0.795895480250139E+02   0.104059E+00   0.000000E+00   0.315324E+02   0.328124E+01
   LPB:    1  -0.188256208110254E+01   0.754574744255526E+01   0.888256E-02   0.000000E+00   0.699486E+02  -0.162330E-16
   LPB:    2  -0.422500596378672E+00   0.169992354933477E+01   0.162432E-01   0.456751E-01   0.127062E+03   0.140023E-14
   LPB:    3  -0.206242942499589E+00   0.454611638103233E+00   0.217041E-01   0.110849E+00   0.151585E+03   0.325592E-14
   LPB:    4  -0.159714161131443E+00   0.433497906804557E+00   0.253763E-01   0.184019E+00   0.361216E+03  -0.230402E-14
   LPB:    5  -0.145332895770640E+00   0.293517960255389E+00   0.247084E-01   0.317438E+00   0.115230E+03  -0.285618E-14
  Finished solving LPB equations
  A_corr:   -6.009685161078263E-002
 End minimization
 Ecorr=   2105.36639731059     
 A_corr= -6.009685161078263E-002
 Ecorr_band=  -2105.42649416220     
 End Solvation calculations
RMM:   8    -0.197523388489E+03    0.54042E+02   -0.18529E+01 11108   0.744E+00    0.378E+01
 Begin Solvation calculations
  rms_SCF =    3.51067262358224      tol =   0.351067262358224     
 Begin minimization
 Creating dielectric and ionic cavities
  area:      159.169678739776     
  volume:    806.461747450973     
  Acav:     8.356408133838250E-002
  Solving linear dielectric/ionic screening model
        iter                  A_solv                     rms
   LPB:       -0.688569748323198E+00   0.131278534632582E+02
   LPB:    0  -0.382792916566510E+00   0.762822506221503E+01  -0.138707E+00   0.000000E+00   0.317860E+02  -0.440895E+01
   LPB:    1  -0.186337257909611E+00   0.102456933376705E+01   0.943137E-02   0.000000E+00   0.616679E+02  -0.300433E-15
   LPB:    2  -0.166872780194437E+00   0.421555861586638E+00   0.158404E-01   0.589912E-01   0.724635E+02   0.243711E-14
   LPB:    3  -0.159680245042951E+00   0.427131509283583E+00   0.251120E-01   0.233090E+00   0.102100E+03   0.223199E-14
   LPB:    4  -0.151919407548601E+00   0.235358697250625E+00   0.354266E-01   0.764852E+00   0.408631E+02   0.183332E-14
  Finished solving LPB equations
  A_corr:   -6.835532621021839E-002
 End minimization
 Ecorr=   2111.53609464270     
 A_corr= -6.835532621021839E-002
 Ecorr_band=  -2111.60444996891     
 End Solvation calculations
RMM:   9    -0.183814745043E+03    0.13709E+02   -0.15184E+01 11112   0.723E+00    0.152E+01
 Begin Solvation calculations
  rms_SCF =    3.51067262358224      tol =   0.351067262358224     
 Begin minimization
 Creating dielectric and ionic cavities
  area:      152.196586947214     
  volume:    806.179899845491     
  Acav:     7.990320814728727E-002
  Solving linear dielectric/ionic screening model
        iter                  A_solv                     rms
   LPB:       -0.684953466066721E+00   0.115623243950025E+02
   LPB:    0  -0.346584410175960E+00   0.671263772512738E+01   0.145882E+00   0.000000E+00   0.317992E+02   0.463894E+01
   LPB:    1  -0.198925696495505E+00   0.861443591124283E+00   0.976714E-02   0.000000E+00   0.656933E+02   0.129370E-15
   LPB:    2  -0.171069325138583E+00   0.343752204808645E+00   0.185006E-01   0.995972E-01   0.152608E+03  -0.239081E-14
   LPB:    3  -0.164298244110576E+00   0.282220532418603E+00   0.213157E-01   0.210970E+00   0.186258E+03  -0.283597E-14
   LPB:    4  -0.160522957036906E+00   0.304955673656198E+00   0.264621E-01   0.449124E+00   0.324634E+03  -0.463038E-14
  Finished solving LPB equations
  A_corr:   -8.061974888961829E-002
 End minimization
 Ecorr=   2065.97980178185     
 A_corr= -8.061974888961829E-002
 Ecorr_band=  -2066.06042153074     
 End Solvation calculations
RMM:  10    -0.184547345965E+03   -0.73260E+00   -0.83279E+00 11108   0.539E+00    0.165E+01
 Begin Solvation calculations
  rms_SCF =    3.51067262358224      tol =   0.351067262358224     
 Begin minimization
 Creating dielectric and ionic cavities
  area:      150.687804482039     
  volume:    800.790166200671     
  Acav:     7.911109735307055E-002
  Solving linear dielectric/ionic screening model
        iter                  A_solv                     rms
   LPB:       -0.343859692156827E+00   0.727673590760728E+01
   LPB:    0  -0.315368103702709E+00   0.591923288752934E+01  -0.421644E-01   0.000000E+00   0.320519E+02  -0.135145E+01
   LPB:    1  -0.198407191967695E+00   0.800833991749263E+00   0.942786E-02   0.000000E+00   0.626879E+02  -0.107620E-15
   LPB:    2  -0.182387934764672E+00   0.398805434275880E+00   0.178154E-01   0.724803E-01   0.790915E+02   0.958007E-15
   LPB:    3  -0.177853965382504E+00   0.308986409250624E+00   0.204202E-01   0.246929E+00   0.147532E+03  -0.153450E-14
   LPB:    4  -0.173949522360652E+00   0.160371787724829E+00   0.347864E-01   0.505512E+00   0.845071E+02   0.722747E-15
  Finished solving LPB equations
  A_corr:   -9.483842500758179E-002
 End minimization
 Ecorr=   2051.44455016727     
 A_corr= -9.483842500758179E-002
 Ecorr_band=  -2051.53938859228     
 End Solvation calculations
RMM:  11    -0.183430465997E+03    0.11169E+01   -0.36362E+00 11116   0.363E+00    0.150E+01
 Begin Solvation calculations
  rms_SCF =    3.51067262358224      tol =   0.351067262358224     
 Begin minimization
 Creating dielectric and ionic cavities
  area:      151.305189338970     
  volume:    799.824229250213     
  Acav:     7.943522440295947E-002
  Solving linear dielectric/ionic screening model
        iter                  A_solv                     rms
   LPB:       -0.455553556608229E+00   0.918503344098914E+01
   LPB:    0  -0.369292665217364E+00   0.782179210451133E+01   0.733142E-01   0.000000E+00   0.320972E+02   0.235318E+01
   LPB:    1  -0.199972220064817E+00   0.755119170095415E+00   0.883282E-02   0.000000E+00   0.701028E+02   0.446139E-16
   LPB:    2  -0.183119251038442E+00   0.175561100901234E+00   0.174346E-01   0.504259E-01   0.123302E+03  -0.257936E-14
   LPB:    3  -0.179133631958823E+00   0.133639372890147E+00   0.246211E-01   0.167465E+00   0.245177E+03  -0.277543E-14
   LPB:    4  -0.176902142714525E+00   0.274547704677527E+00   0.329337E-01   0.418568E+00   0.314394E+03  -0.276661E-14
  Finished solving LPB equations
  A_corr:   -9.746691831156562E-002
 End minimization
 Ecorr=   2030.31808707840     
 A_corr= -9.746691831156562E-002
 Ecorr_band=  -2030.41555399671     
 End Solvation calculations
RMM:  12    -0.182105090735E+03    0.13254E+01   -0.16799E+00 11127   0.246E+00    0.765E+00
 Begin Solvation calculations
  rms_SCF =    1.98510213896024      tol =   0.198510213896024     
 Begin minimization
 Creating dielectric and ionic cavities
  area:      150.659849223283     
  volume:    795.553570713998     
  Acav:     7.909642084222381E-002
  Solving linear dielectric/ionic screening model
        iter                  A_solv                     rms
   LPB:       -0.190273278357797E+00   0.143184262289370E+01
   LPB:    0  -0.189981361429919E+00   0.127331404937833E+01  -0.425168E-02   0.000000E+00   0.322974E+02  -0.137318E+00
   LPB:    1  -0.179442963654550E+00   0.261448820724607E+00   0.113262E-01   0.000000E+00   0.768556E+02  -0.743878E-17
   LPB:    2  -0.176322033753175E+00   0.233272120095515E+00   0.220896E-01   0.151847E+00   0.284870E+03  -0.209561E-15
   LPB:    3  -0.174963815120285E+00   0.278600376643035E+00   0.220380E-01   0.436215E+00   0.106441E+03  -0.109723E-14
   LPB:    4  -0.173060147683277E+00   0.101530968007663E+00   0.365452E-01   0.845208E+00   0.906494E+02  -0.156153E-14
  Finished solving LPB equations
  A_corr:   -9.396372684105291E-002
 End minimization
 Ecorr=   2022.73988255646     
 A_corr= -9.396372684105291E-002
 Ecorr_band=  -2022.83384628330     
 End Solvation calculations
RMM:  13    -0.181614792639E+03    0.49030E+00   -0.61971E-01 11114   0.147E+00    0.484E+00
 Begin Solvation calculations
  rms_SCF =    1.98510213896024      tol =   0.198510213896024     
 Begin minimization
 Creating dielectric and ionic cavities
  area:      150.815173300726     
  volume:    793.376454039506     
  Acav:     7.917796598288102E-002
  Solving linear dielectric/ionic screening model
        iter                  A_solv                     rms
   LPB:       -0.178242323906816E+00   0.798231626721492E+00
   LPB:    0  -0.174957876990566E+00   0.141115333275040E+00   0.142389E-01   0.000000E+00   0.323995E+02   0.461334E+00
   LPB:    1  -0.172447300173708E+00   0.585547986476569E-01   0.165440E-01   0.000000E+00   0.872489E+03   0.494501E-17
   LPB:    2  -0.171601387138202E+00   0.149955530655931E+00   0.391367E-01   0.142433E+00   0.279847E+03   0.791340E-16
   LPB:    3  -0.170673284051628E+00   0.176784165688278E+00   0.336057E-01   0.127774E+01   0.944715E+02   0.111616E-15
   LPB:    4  -0.169669160825308E+00   0.196306686108323E+00   0.287601E-01   0.126419E+01   0.106138E+03  -0.890392E-15
  Finished solving LPB equations
  A_corr:   -9.049119484242732E-002
 End minimization
 Ecorr=   2014.96251920001     
 A_corr= -9.049119484242732E-002
 Ecorr_band=  -2015.05301039485     
 End Solvation calculations
RMM:  14    -0.181468356790E+03    0.14644E+00   -0.18084E-01 11119   0.811E-01    0.307E+00
 Begin Solvation calculations
  rms_SCF =    1.61256877568533      tol =   0.161256877568533     
 Begin minimization
 Creating dielectric and ionic cavities
  area:      151.145316981904     
  volume:    791.423840835964     
  Acav:     7.935129141549944E-002
  Solving linear dielectric/ionic screening model
        iter                  A_solv                     rms
   LPB:       -0.172428950098289E+00   0.729417565656095E+00
   LPB:    0  -0.170782812946285E+00   0.550961718182970E+00   0.100662E-01   0.000000E+00   0.324910E+02   0.327062E+00
   LPB:    1  -0.168655861969819E+00   0.173838072082121E+00   0.122240E-01   0.000000E+00   0.933559E+02  -0.134527E-16
   LPB:    2  -0.168095928205926E+00   0.554454997448950E-01   0.160073E-01   0.201036E+00   0.270840E+03   0.210337E-15
   LPB:    3  -0.167825521305135E+00   0.797523747738376E-01   0.303102E-01   0.255041E+00   0.250064E+03   0.623243E-15
   LPB:    4  -0.167627822856318E+00   0.643327801494247E-01   0.277975E-01   0.797204E+00   0.773296E+02   0.745416E-15
  Finished solving LPB equations
  A_corr:   -8.827653144081878E-002
 End minimization
 Ecorr=   2010.18343160194     
 A_corr= -8.827653144081878E-002
 Ecorr_band=  -2010.27170813338     
 End Solvation calculations
RMM:  15    -0.181433323314E+03    0.35033E-01   -0.54372E-02 11118   0.434E-01    0.245E+00
 Begin Solvation calculations
  rms_SCF =    1.08328738492378      tol =   0.108328738492378     
 Begin minimization
 Creating dielectric and ionic cavities
  area:      151.365645841650     
  volume:    789.845876310888     
  Acav:     7.946696406686618E-002
  Solving linear dielectric/ionic screening model
        iter                  A_solv                     rms
   LPB:       -0.169352512929740E+00   0.570753858023416E+00
   LPB:    0  -0.167954726682502E+00   0.213287097228384E+00   0.926531E-02   0.000000E+00   0.325650E+02   0.301725E+00
   LPB:    1  -0.166921293049372E+00   0.964090146865429E-01   0.147832E-01   0.000000E+00   0.198631E+03  -0.169537E-16
   LPB:    2  -0.166743361127405E+00   0.705731269568017E-01   0.172129E-01   0.147872E+00   0.120678E+03  -0.363526E-15
   LPB:    3  -0.166552801709580E+00   0.750496169014957E-01   0.328880E-01   0.560523E+00   0.196155E+03   0.263577E-16
   LPB:    4  -0.166337446858231E+00   0.728324313663090E-01   0.343125E-01   0.108320E+01   0.152358E+03   0.361711E-15
  Finished solving LPB equations
  A_corr:   -8.687048279136497E-002
 End minimization
 Ecorr=   2007.31587269781     
 A_corr= -8.687048279136497E-002
 Ecorr_band=  -2007.40274318060     
 End Solvation calculations
RMM:  16    -0.181411403462E+03    0.21920E-01   -0.28634E-02 11114   0.318E-01    0.183E+00
 Begin Solvation calculations
  rms_SCF =   0.715147076122965      tol =   7.151470761229654E-002
 Begin minimization
 Creating dielectric and ionic cavities
  area:      152.149436186688     
  volume:    785.274759251251     
  Acav:     7.987845399801098E-002
  Solving linear dielectric/ionic screening model
        iter                  A_solv                     rms
   LPB:       -0.185739336397053E+00   0.138305041199641E+01
   LPB:    0  -0.175949728804475E+00   0.590418140586854E+00   0.244398E-01   0.000000E+00   0.327793E+02   0.801120E+00
   LPB:    1  -0.166766428045859E+00   0.262994744662464E+00   0.138818E-01   0.000000E+00   0.273362E+03  -0.367243E-16
   LPB:    2  -0.165586718123515E+00   0.116327918198327E+00   0.162300E-01   0.109876E+00   0.844391E+02   0.161607E-15
   LPB:    3  -0.165130445957185E+00   0.103126158629127E+00   0.232725E-01   0.269727E+00   0.177814E+03  -0.333427E-15
   LPB:    4  -0.164885899666632E+00   0.101695639544197E+00   0.237414E-01   0.525381E+00   0.203182E+03  -0.104604E-14
   LPB:    5  -0.164667928666805E+00   0.533569719776794E-01   0.251137E-01   0.842622E+00   0.129197E+03  -0.142449E-14
  Finished solving LPB equations
  A_corr:   -8.478947466879426E-002
 End minimization
 Ecorr=   2001.15738909621     
 A_corr= -8.478947466879426E-002
 Ecorr_band=  -2001.24217857088     
 End Solvation calculations
RMM:  17    -0.181421047041E+03   -0.96436E-02   -0.49910E-02 11111   0.409E-01    0.192E+00
 Begin Solvation calculations
  rms_SCF =   0.715147076122965      tol =   7.151470761229654E-002
 Begin minimization
 Creating dielectric and ionic cavities
  area:      152.950616434939     
  volume:    781.198449424561     
  Acav:     8.029907362834321E-002
  Solving linear dielectric/ionic screening model
        iter                  A_solv                     rms
   LPB:       -0.185728115988426E+00   0.130044795785376E+01
   LPB:    0  -0.176200471223958E+00   0.522639444307466E+00   0.240406E-01   0.000000E+00   0.329704E+02   0.792629E+00
   LPB:    1  -0.166553890954695E+00   0.384864874494392E+00   0.129187E-01   0.000000E+00   0.422983E+03   0.198305E-16
   LPB:    2  -0.165219573109666E+00   0.125929306742991E+00   0.151929E-01   0.117615E+00   0.659706E+02   0.276356E-15
   LPB:    3  -0.164730123423666E+00   0.100991960960465E+00   0.219326E-01   0.254097E+00   0.272176E+03   0.212974E-14
   LPB:    4  -0.164402664593946E+00   0.947943253795873E-01   0.242291E-01   0.605621E+00   0.207955E+03   0.267257E-14
   LPB:    5  -0.164092980297938E+00   0.575881438218217E-01   0.298595E-01   0.767392E+00   0.110391E+03   0.282916E-14
  Finished solving LPB equations
  A_corr:   -8.379390666959521E-002
 End minimization
 Ecorr=   1995.64445892486     
 A_corr= -8.379390666959521E-002
 Ecorr_band=  -1995.72825283153     
 End Solvation calculations
RMM:  18    -0.181393204061E+03    0.27843E-01   -0.35380E-02 11116   0.360E-01    0.105E+00
 Begin Solvation calculations
  rms_SCF =   0.448434106438062      tol =   4.484341064380616E-002
 Begin minimization
 Creating dielectric and ionic cavities
  area:      153.169877767547     
  volume:    780.185964073320     
  Acav:     8.041418582796200E-002
  Solving linear dielectric/ionic screening model
        iter                  A_solv                     rms
   LPB:       -0.165820874084815E+00   0.401669999400586E+00
   LPB:    0  -0.164992495177865E+00   0.191684363505201E+00   0.708361E-02   0.000000E+00   0.330179E+02   0.233886E+00
   LPB:    1  -0.163875428449222E+00   0.142743722970185E+00   0.124570E-01   0.000000E+00   0.391792E+03   0.106439E-16
   LPB:    2  -0.163701717228170E+00   0.509484427625155E-01   0.150194E-01   0.128976E+00   0.731855E+02  -0.180206E-16
   LPB:    3  -0.163581263582677E+00   0.652668560045536E-01   0.333161E-01   0.312601E+00   0.252407E+03  -0.324770E-16
   LPB:    4  -0.163352444538486E+00   0.779790602272712E-01   0.404284E-01   0.156545E+01   0.169895E+03  -0.744491E-17
   LPB:    5  -0.163139830224408E+00   0.402399930111025E-01   0.274995E-01   0.136604E+01   0.149182E+03   0.393686E-15
  Finished solving LPB equations
  A_corr:   -8.272564439644628E-002
 End minimization
 Ecorr=   1994.20723500822     
 A_corr= -8.272564439644628E-002
 Ecorr_band=  -1994.28996065262     
 End Solvation calculations
RMM:  19    -0.181387700441E+03    0.55036E-02   -0.10787E-02 11113   0.198E-01    0.877E-01
 Begin Solvation calculations
  rms_SCF =   0.448434106438062      tol =   4.484341064380616E-002
 Begin minimization
 Creating dielectric and ionic cavities
  area:      153.237439443383     
  volume:    779.894843018440     
  Acav:     8.044965570777633E-002
  Solving linear dielectric/ionic screening model
        iter                  A_solv                     rms
   LPB:       -0.163077573716994E+00   0.188355165671131E+00
   LPB:    0  -0.162930242271304E+00   0.103541071507601E+00   0.298675E-02   0.000000E+00   0.330315E+02   0.986568E-01
   LPB:    1  -0.162669627457171E+00   0.344106748592500E-01   0.142719E-01   0.000000E+00   0.237606E+03   0.141418E-17
   LPB:    2  -0.162633775459163E+00   0.264319836727652E-01   0.181340E-01   0.108268E+00   0.133519E+03   0.147313E-16
   LPB:    3  -0.162601368035811E+00   0.228533520338420E-01   0.383674E-01   0.427231E+00   0.108880E+03  -0.953417E-17
   LPB:    4  -0.162571009802451E+00   0.320055884246375E-01   0.326514E-01   0.110076E+01   0.269263E+03   0.293864E-15
  Finished solving LPB equations
  A_corr:   -8.212135409467493E-002
 End minimization
 Ecorr=   1993.02414008209     
 A_corr= -8.212135409467493E-002
 Ecorr_band=  -1993.10626143619     
 End Solvation calculations
RMM:  20    -0.181382640688E+03    0.50598E-02   -0.33499E-03 11105   0.113E-01    0.460E-01
 Begin Solvation calculations
  rms_SCF =   0.403748177289427      tol =   4.037481772894273E-002
 Begin minimization
 Creating dielectric and ionic cavities
  area:      153.324759409102     
  volume:    779.477924338577     
  Acav:     8.049549868977872E-002
  Solving linear dielectric/ionic screening model
        iter                  A_solv                     rms
   LPB:       -0.162895447285673E+00   0.371343904974544E+00
   LPB:    0  -0.162595681454686E+00   0.244984509617193E+00   0.425906E-02   0.000000E+00   0.330511E+02   0.140766E+00
   LPB:    1  -0.161928753330624E+00   0.650439145211483E-01   0.133283E-01   0.000000E+00   0.115942E+03  -0.480686E-17
   LPB:    2  -0.161866659258922E+00   0.345677863834924E-01   0.133143E-01   0.932025E-01   0.143221E+03  -0.362087E-15
   LPB:    3  -0.161839170748703E+00   0.186307663661496E-01   0.217759E-01   0.270672E+00   0.138951E+03  -0.184484E-15
   LPB:    4  -0.161819365526259E+00   0.217613150032101E-01   0.317495E-01   0.494160E+00   0.398874E+03  -0.883311E-16
  Finished solving LPB equations
  A_corr:   -8.132386683648037E-002
 End minimization
 Ecorr=   1992.52499811403     
 A_corr= -8.132386683648037E-002
 Ecorr_band=  -1992.60632198087     
 End Solvation calculations
RMM:  21    -0.181381462030E+03    0.11787E-02   -0.14529E-03 10937   0.705E-02    0.344E-01
 Begin Solvation calculations
  rms_SCF =   0.240621199358001      tol =   2.406211993580009E-002
 Begin minimization
 Creating dielectric and ionic cavities
  area:      153.474299338805     
  volume:    778.782607297278     
  Acav:     8.057400715287276E-002
  Solving linear dielectric/ionic screening model
        iter                  A_solv                     rms
   LPB:       -0.164450165931558E+00   0.703710552871377E+00
   LPB:    0  -0.163568817350224E+00   0.484631991748150E+00   0.729931E-02   0.000000E+00   0.330837E+02   0.241488E+00
   LPB:    1  -0.160683030669903E+00   0.103614914088725E+00   0.134831E-01   0.000000E+00   0.121402E+03  -0.564061E-17
   LPB:    2  -0.160471101811609E+00   0.723637950310516E-01   0.141312E-01   0.700705E-01   0.147103E+03  -0.118556E-14
   LPB:    3  -0.160391343650220E+00   0.316184882273101E-01   0.184104E-01   0.288870E+00   0.115603E+03  -0.148483E-14
   LPB:    4  -0.160348459088043E+00   0.314999980537277E-01   0.269129E-01   0.367814E+00   0.347152E+03  -0.155749E-14
   LPB:    5  -0.160320843937374E+00   0.233956640428232E-01   0.258749E-01   0.669776E+00   0.570546E+02  -0.162594E-14
  Finished solving LPB equations
  A_corr:   -7.974683678450097E-002
 End minimization
 Ecorr=   1992.71364932353     
 A_corr= -7.974683678450097E-002
 Ecorr_band=  -1992.79339616031     
 End Solvation calculations
RMM:  22    -0.181380457713E+03    0.10043E-02   -0.12074E-03 11016   0.648E-02    0.245E-01
 Begin Solvation calculations
  rms_SCF =   0.174146048844959      tol =   1.741460488449589E-002
 Begin minimization
 Creating dielectric and ionic cavities
  area:      153.553700956802     
  volume:    778.434270763953     
  Acav:     8.061569300232080E-002
  Solving linear dielectric/ionic screening model
        iter                  A_solv                     rms
   LPB:       -0.160831202899595E+00   0.354690447852996E+00
   LPB:    0  -0.160611983294276E+00   0.261726208753462E+00   0.363949E-02   0.000000E+00   0.331000E+02   0.120467E+00
   LPB:    1  -0.159603508109645E+00   0.582945975208983E-01   0.135561E-01   0.000000E+00   0.149708E+03   0.437607E-17
   LPB:    2  -0.159529042805440E+00   0.354001598901250E-01   0.152741E-01   0.655342E-01   0.112277E+03   0.180742E-15
   LPB:    3  -0.159501935011090E+00   0.269159600022590E-01   0.207524E-01   0.267933E+00   0.115736E+03   0.354671E-16
   LPB:    4  -0.159477797784597E+00   0.323274335902720E-01   0.308178E-01   0.599598E+00   0.191983E+03   0.370871E-16
   LPB:    5  -0.159454672422141E+00   0.220314978101277E-01   0.264213E-01   0.111750E+01   0.460806E+02   0.195567E-15
   LPB:    6  -0.159434271123093E+00   0.673362781761448E-02   0.319637E-01   0.729234E+00   0.357972E+03   0.482837E-15
  Finished solving LPB equations
  A_corr:   -7.881857812077245E-002
 End minimization
 Ecorr=   1993.10092168954     
 A_corr= -7.881857812077245E-002
 Ecorr_band=  -1993.17974026766     
 End Solvation calculations
RMM:  23    -0.181380227985E+03    0.22973E-03   -0.69950E-04 10244   0.509E-02    0.220E-01
 Begin Solvation calculations
  rms_SCF =   0.174146048844959      tol =   1.741460488449589E-002
 Begin minimization
 Creating dielectric and ionic cavities
  area:      153.662004120254     
  volume:    777.939410667962     
  Acav:     8.067255216313352E-002
  Solving linear dielectric/ionic screening model
        iter                  A_solv                     rms
   LPB:       -0.161027530678665E+00   0.532201590631717E+00
   LPB:    0  -0.160684144619193E+00   0.419381325245335E+00   0.455345E-02   0.000000E+00   0.331232E+02   0.150825E+00
   LPB:    1  -0.158513039616351E+00   0.830683415685240E-01   0.134676E-01   0.000000E+00   0.125141E+03   0.107285E-16
   LPB:    2  -0.158357183006533E+00   0.588312081717546E-01   0.142971E-01   0.676218E-01   0.158207E+03   0.374428E-15
   LPB:    3  -0.158314359227248E+00   0.217682599110020E-01   0.159433E-01   0.246395E+00   0.117744E+03   0.689932E-15
   LPB:    4  -0.158297017922275E+00   0.227945119072333E-01   0.241765E-01   0.267043E+00   0.352277E+03   0.624300E-15
   LPB:    5  -0.158284868820367E+00   0.150062725623974E-01   0.268544E-01   0.630727E+00   0.484774E+02   0.614700E-15
  Finished solving LPB equations
  A_corr:   -7.761231665723314E-002
 End minimization
 Ecorr=   1993.52791987322     
 A_corr= -7.761231665723314E-002
 Ecorr_band=  -1993.60553218988     
 End Solvation calculations
RMM:  24    -0.181380170170E+03    0.57815E-04   -0.44949E-04  8480   0.412E-02
 Begin Solvation calculations
  rms_SCF =   0.174146048844959      tol =   1.741460488449589E-002
 Begin minimization
 Creating dielectric and ionic cavities
  area:      153.735148936363     
  volume:    777.622586668696     
  Acav:     8.071095319159069E-002
  Solving linear dielectric/ionic screening model
        iter                  A_solv                     rms
   LPB:       -0.158901674517362E+00   0.389810066964825E+00
   LPB:    0  -0.158724093105548E+00   0.317707839918022E+00   0.327379E-02   0.000000E+00   0.331381E+02   0.108487E+00
   LPB:    1  -0.157664993260737E+00   0.693626154218974E-01   0.132671E-01   0.000000E+00   0.112807E+03   0.464498E-17
   LPB:    2  -0.157584910986208E+00   0.410897702950299E-01   0.133023E-01   0.754134E-01   0.147159E+03  -0.849749E-15
   LPB:    3  -0.157556776965336E+00   0.188378199765841E-01   0.190653E-01   0.245120E+00   0.109096E+03  -0.559166E-15
   LPB:    4  -0.157538718695905E+00   0.236386992222943E-01   0.295114E-01   0.414665E+00   0.279451E+03  -0.402594E-15
   LPB:    5  -0.157524266668388E+00   0.160100698169743E-01   0.274320E-01   0.860966E+00   0.419407E+02  -0.317728E-15
  Finished solving LPB equations
  A_corr:   -7.681331347679768E-002
 End minimization
 Ecorr=   1993.98053834284     
 A_corr= -7.681331347679768E-002
 Ecorr_band=  -1994.05735165632     
 End Solvation calculations
   1 F= -.18138017E+03 E0= -.18137316E+03  d E =-.181380E+03
quench:  g(F)=  0.000E+00 g(S)=  0.000E+00 dE (1.order)= 0.000E+00
 bond charge predicted
       N       E                     dE             d eps       ncg     rms          rms(c)
 Begin Solvation calculations
  rms_SCF =   0.174146048844959      tol =   1.741460488449589E-002
 Begin minimization
 Creating dielectric and ionic cavities
  area:      153.732583530773     
  volume:    777.617811611908     
  Acav:     8.070960635365579E-002
  Solving linear dielectric/ionic screening model
        iter                  A_solv                     rms
   LPB:       -0.157603046926172E+00   0.159084292327440E-01
   LPB:    0  -0.157603046923393E+00   0.158892020153755E-01  -0.409565E-06   0.000000E+00   0.331383E+02  -0.135723E-04
   LPB:    1  -0.157531208372425E+00   0.101544525257913E-01   0.155147E-01   0.000000E+00   0.146284E+04   0.857456E-21
   LPB:    2  -0.157520666436157E+00   0.152983990220796E-01   0.269460E-01   0.844910E-01   0.254353E+03   0.356383E-16
   LPB:    3  -0.157514458409877E+00   0.138183572550279E-01   0.239506E-01   0.662539E+00   0.183238E+03  -0.138998E-16
   LPB:    4  -0.157507410564156E+00   0.129567791948039E-01   0.340336E-01   0.798935E+00   0.206862E+03   0.662661E-16
  Finished solving LPB equations
  A_corr:   -7.679780421050028E-002
 End minimization
 Ecorr=   1993.92982572398     
 A_corr= -7.679780421050028E-002
 Ecorr_band=  -1994.00662352819     
 End Solvation calculations
DAV:   1    -0.181380295388E+03   -0.67403E-04   -0.51670E-03 11532   0.167E-01    0.272E-01
 Begin Solvation calculations
  rms_SCF =   0.174146048844959      tol =   1.741460488449589E-002
 Begin minimization
 Creating dielectric and ionic cavities
  area:      153.696497567368     
  volume:    777.460084571401     
  Acav:     8.069066122286821E-002
  Solving linear dielectric/ionic screening model
        iter                  A_solv                     rms
   LPB:       -0.189443084700541E+00   0.323147764748929E+01
   LPB:    0  -0.189167842445530E+00   0.321825535531723E+01   0.407530E-02   0.000000E+00   0.331457E+02   0.135078E+00
   LPB:    1  -0.160504844965052E+00   0.353336960129600E+00   0.905471E-02   0.000000E+00   0.674525E+02   0.102849E-16
   LPB:    2  -0.157292403405508E+00   0.728046672144336E-01   0.147385E-01   0.688551E-01   0.159794E+03   0.418990E-15
   LPB:    3  -0.156878355253674E+00   0.252238154962232E-01   0.218295E-01   0.870210E-01   0.192538E+03   0.346737E-15
   LPB:    4  -0.156763995332658E+00   0.119013885191147E-01   0.277779E-01   0.217054E+00   0.306609E+03   0.224925E-15
  Finished solving LPB equations
  A_corr:   -7.607333410978954E-002
 End minimization
 Ecorr=   1993.35774043975     
 A_corr= -7.607333410978954E-002
 Ecorr_band=  -1993.43381377386     
 End Solvation calculations
RMM:   2    -0.181497261341E+03   -0.11697E+00   -0.20508E-02 11109   0.247E-01    0.403E+00
 Begin Solvation calculations
  rms_SCF =   0.174146048844959      tol =   1.741460488449589E-002
 Begin minimization
 Creating dielectric and ionic cavities
  area:      153.797289174052     
  volume:    777.452027420384     
  Acav:     8.074357681637737E-002
  Solving linear dielectric/ionic screening model
        iter                  A_solv                     rms
   LPB:       -0.177384869005061E+00   0.270233964398688E+01
   LPB:    0  -0.177361635994501E+00   0.269970867129087E+01   0.118400E-02   0.000000E+00   0.331461E+02   0.392449E-01
   LPB:    1  -0.158278345004235E+00   0.254186399719945E+00   0.855246E-02   0.000000E+00   0.715267E+02   0.188383E-17
   LPB:    2  -0.156666011235986E+00   0.464364137634616E-01   0.158683E-01   0.455368E-01   0.130345E+03  -0.185335E-15
   LPB:    3  -0.156493708216867E+00   0.109391508961850E-01   0.199704E-01   0.849143E-01   0.211844E+03  -0.726505E-16
   LPB:    4  -0.156462102790658E+00   0.683488586477430E-02   0.240019E-01   0.152620E+00   0.741970E+03  -0.271270E-15
  Finished solving LPB equations
  A_corr:   -7.571852597428055E-002
 End minimization
 Ecorr=   1994.19126102164     
 A_corr= -7.571852597428055E-002
 Ecorr_band=  -1994.26697954761     
 End Solvation calculations
RMM:   3    -0.181386127073E+03    0.11113E+00   -0.13623E-02 11086   0.212E-01    0.805E-01
 Begin Solvation calculations
  rms_SCF =   0.174146048844959      tol =   1.741460488449589E-002
 Begin minimization
 Creating dielectric and ionic cavities
  area:      153.795127023650     
  volume:    777.380123320909     
  Acav:     8.074244168741611E-002
  Solving linear dielectric/ionic screening model
        iter                  A_solv                     rms
   LPB:       -0.156493113368765E+00   0.138422448873887E+00
   LPB:    0  -0.156470622279079E+00   0.112864064605337E+00  -0.116488E-02   0.000000E+00   0.331494E+02  -0.386152E-01
   LPB:    1  -0.156408514592117E+00   0.224428977417691E-01   0.110568E-01   0.000000E+00   0.787904E+02   0.131281E-18
   LPB:    2  -0.156398119643887E+00   0.850174019717062E-02   0.147579E-01   0.125396E+00   0.239710E+03   0.136404E-16
   LPB:    3  -0.156393789271969E+00   0.836266672370268E-02   0.247342E-01   0.248558E+00   0.170453E+03   0.516619E-16
   LPB:    4  -0.156388703675011E+00   0.147402092203444E-01   0.420578E-01   0.690666E+00   0.243680E+03   0.666426E-16
  Finished solving LPB equations
  A_corr:   -7.564626198759523E-002
 End minimization
 Ecorr=   1994.74608994599     
 A_corr= -7.564626198759523E-002
 Ecorr_band=  -1994.82173620797     
 End Solvation calculations
RMM:   4    -0.181380538850E+03    0.55882E-02   -0.21849E-03 10919   0.986E-02    0.283E-01
 Begin Solvation calculations
  rms_SCF =   0.174146048844959      tol =   1.741460488449589E-002
 Begin minimization
 Creating dielectric and ionic cavities
  area:      153.819698096835     
  volume:    777.322757431551     
  Acav:     8.075534150083837E-002
  Solving linear dielectric/ionic screening model
        iter                  A_solv                     rms
   LPB:       -0.156645972908534E+00   0.357456166601633E+00
   LPB:    0  -0.156504356931849E+00   0.266348535623041E+00   0.292291E-02   0.000000E+00   0.331521E+02   0.969007E-01
   LPB:    1  -0.155928674813459E+00   0.454793786085832E-01   0.130094E-01   0.000000E+00   0.828462E+02   0.652671E-17
   LPB:    2  -0.155895520274580E+00   0.286816754282295E-01   0.123106E-01   0.608612E-01   0.243622E+03  -0.615473E-15
   LPB:    3  -0.155883424936658E+00   0.872817722662649E-02   0.189096E-01   0.237504E+00   0.107950E+03  -0.641712E-15
   LPB:    4  -0.155876570262493E+00   0.378130778171121E-02   0.338818E-01   0.316290E+00   0.134368E+03  -0.633272E-15
  Finished solving LPB equations
  A_corr:   -7.512122876165490E-002
 End minimization
 Ecorr=   1994.94988791126     
 A_corr= -7.512122876165490E-002
 Ecorr_band=  -1995.02500914002     
 End Solvation calculations
RMM:   5    -0.181381048704E+03   -0.50985E-03   -0.47018E-04  8612   0.413E-02    0.345E-01
 Begin Solvation calculations
  rms_SCF =   0.174146048844959      tol =   1.741460488449589E-002
 Begin minimization
 Creating dielectric and ionic cavities
  area:      153.853037300658     
  volume:    777.216720477349     
  Acav:     8.077284458284538E-002
  Solving linear dielectric/ionic screening model
        iter                  A_solv                     rms
   LPB:       -0.156187685006561E+00   0.328014658621092E+00
   LPB:    0  -0.156165167056088E+00   0.312225551040698E+00   0.116544E-02   0.000000E+00   0.331571E+02   0.386427E-01
   LPB:    1  -0.155546752924973E+00   0.660319165736352E-01   0.123607E-01   0.000000E+00   0.801055E+02  -0.123258E-17
   LPB:    2  -0.155493395983455E+00   0.252700550178078E-01   0.115419E-01   0.924007E-01   0.203288E+03  -0.161791E-15
   LPB:    3  -0.155477306344060E+00   0.820609073306212E-02   0.216068E-01   0.161080E+00   0.121554E+03  -0.166330E-15
   LPB:    4  -0.155468531209856E+00   0.125681034495099E-01   0.325041E-01   0.362543E+00   0.238942E+03  -0.174695E-15
  Finished solving LPB equations
  A_corr:   -7.469568662701022E-002
 End minimization
 Ecorr=   1995.40372524234     
 A_corr= -7.469568662701022E-002
 Ecorr_band=  -1995.47842092897     
 End Solvation calculations
RMM:   6    -0.181380848494E+03    0.20021E-03   -0.19652E-04  6291   0.288E-02    0.284E-01
 Begin Solvation calculations
  rms_SCF =   0.174146048844959      tol =   1.741460488449589E-002
 Begin minimization
 Creating dielectric and ionic cavities
  area:      153.880555750726     
  volume:    777.152509710740     
  Acav:     8.078729176913117E-002
  Solving linear dielectric/ionic screening model
        iter                  A_solv                     rms
   LPB:       -0.155726756621688E+00   0.322160924566052E+00
   LPB:    0  -0.155666918298376E+00   0.277262645879531E+00   0.189975E-02   0.000000E+00   0.331601E+02   0.629959E-01
   LPB:    1  -0.155127577294811E+00   0.535085286531320E-01   0.126956E-01   0.000000E+00   0.794243E+02  -0.121836E-17
   LPB:    2  -0.155090447076280E+00   0.259095410759678E-01   0.116631E-01   0.749379E-01   0.217892E+03  -0.215460E-15
   LPB:    3  -0.155076407272123E+00   0.885471285886415E-02   0.219083E-01   0.201298E+00   0.108343E+03  -0.242864E-15
   LPB:    4  -0.155066540184121E+00   0.609525661087609E-02   0.379141E-01   0.406103E+00   0.122828E+03  -0.243964E-15
  Finished solving LPB equations
  A_corr:   -7.427924841499024E-002
 End minimization
 Ecorr=   1995.86354866279     
 A_corr= -7.427924841499024E-002
 Ecorr_band=  -1995.93782791121     
 End Solvation calculations
RMM:   7    -0.181381119878E+03   -0.27138E-03   -0.10698E-04  6174   0.205E-02    0.284E-01
 Begin Solvation calculations
  rms_SCF =   0.174146048844959      tol =   1.741460488449589E-002
 Begin minimization
 Creating dielectric and ionic cavities
  area:      153.933056068473     
  volume:    777.035645781110     
  Acav:     8.081485443594809E-002
  Solving linear dielectric/ionic screening model
        iter                  A_solv                     rms
   LPB:       -0.156775001674509E+00   0.610126301868772E+00
   LPB:    0  -0.156596754857402E+00   0.542918968608889E+00   0.327855E-02   0.000000E+00   0.331656E+02   0.108735E+00
   LPB:    1  -0.154592762003868E+00   0.106992338873848E+00   0.125700E-01   0.000000E+00   0.803852E+02   0.351616E-17
   LPB:    2  -0.154449810136640E+00   0.463787224133340E-01   0.114253E-01   0.784806E-01   0.220626E+03  -0.456628E-15
   LPB:    3  -0.154407626780122E+00   0.120679037443626E-01   0.198724E-01   0.169655E+00   0.122437E+03  -0.476607E-15
   LPB:    4  -0.154388363358894E+00   0.123021584368119E-01   0.319088E-01   0.284402E+00   0.214968E+03  -0.540887E-15
  Finished solving LPB equations
  A_corr:   -7.357350892294552E-002
 End minimization
 Ecorr=   1996.47444264880     
 A_corr= -7.357350892294552E-002
 Ecorr_band=  -1996.54801615772     
 End Solvation calculations
RMM:   8    -0.181381515735E+03   -0.39586E-03   -0.10700E-04  6260   0.192E-02    0.251E-01
 Begin Solvation calculations
  rms_SCF =   0.174146048844959      tol =   1.741460488449589E-002
 Begin minimization
 Creating dielectric and ionic cavities
  area:      153.949907973238     
  volume:    777.001189630547     
  Acav:     8.082370168594979E-002
  Solving linear dielectric/ionic screening model
        iter                  A_solv                     rms
   LPB:       -0.154543378002350E+00   0.264882310531577E+00
   LPB:    0  -0.154516022151072E+00   0.238429215308388E+00   0.128436E-02   0.000000E+00   0.331672E+02   0.425985E-01
   LPB:    1  -0.154187639629935E+00   0.477983304857213E-01   0.122384E-01   0.000000E+00   0.718225E+02   0.347743E-17
   LPB:    2  -0.154159740474498E+00   0.189545172573180E-01   0.115363E-01   0.901295E-01   0.215960E+03   0.360205E-15
   LPB:    3  -0.154146428780172E+00   0.102027601295767E-01   0.290967E-01   0.189176E+00   0.973565E+02   0.388084E-15
   LPB:    4  -0.154132554128474E+00   0.460570287637140E-02   0.431015E-01   0.703623E+00   0.740050E+02   0.416219E-15
  Finished solving LPB equations
  A_corr:   -7.330885244252469E-002
 End minimization
 Ecorr=   1997.03971496002     
 A_corr= -7.330885244252469E-002
 Ecorr_band=  -1997.11302381246     
 End Solvation calculations
RMM:   9    -0.181381687539E+03   -0.17180E-03   -0.38371E-05  6135   0.115E-02    0.247E-01
 Begin Solvation calculations
  rms_SCF =   0.174146048844959      tol =   1.741460488449589E-002
 Begin minimization
 Creating dielectric and ionic cavities
  area:      153.969908757357     
  volume:    776.968631332020     
  Acav:     8.083420209761237E-002
  Solving linear dielectric/ionic screening model
        iter                  A_solv                     rms
   LPB:       -0.154564140744884E+00   0.364138510627032E+00
   LPB:    0  -0.154519938285520E+00   0.335139996952086E+00   0.163258E-02   0.000000E+00   0.331687E+02   0.541505E-01
   LPB:    1  -0.153917382938885E+00   0.654096938359678E-01   0.119050E-01   0.000000E+00   0.720100E+02  -0.233260E-17
   LPB:    2  -0.153867449438743E+00   0.205057436584759E-01   0.109833E-01   0.898234E-01   0.237531E+03  -0.100439E-15
   LPB:    3  -0.153855705776378E+00   0.662869787170923E-02   0.220414E-01   0.117194E+00   0.126378E+03  -0.121621E-15
   LPB:    4  -0.153847380081465E+00   0.536112921269976E-02   0.424828E-01   0.367826E+00   0.106399E+03  -0.127542E-15
  Finished solving LPB equations
  A_corr:   -7.301317798385286E-002
 End minimization
 Ecorr=   1997.41659628213     
 A_corr= -7.301317798385286E-002
 Ecorr_band=  -1997.48960946011     
 End Solvation calculations
RMM:  10    -0.181381768741E+03   -0.81203E-04   -0.32849E-05  6099   0.899E-03
 Begin Solvation calculations
  rms_SCF =   0.174146048844959      tol =   1.741460488449589E-002
 Begin minimization
 Creating dielectric and ionic cavities
  area:      153.985547952563     
  volume:    776.951841302909     
  Acav:     8.084241267509555E-002
  Solving linear dielectric/ionic screening model
        iter                  A_solv                     rms
   LPB:       -0.154209834413358E+00   0.338114178273692E+00
   LPB:    0  -0.154173437302545E+00   0.311197220139323E+00   0.148142E-02   0.000000E+00   0.331695E+02   0.491381E-01
   LPB:    1  -0.153678028485833E+00   0.594021305558641E-01   0.117890E-01   0.000000E+00   0.698249E+02   0.439810E-18
   LPB:    2  -0.153635430737881E+00   0.189964095686020E-01   0.110977E-01   0.913411E-01   0.239993E+03  -0.599229E-16
   LPB:    3  -0.153624478967762E+00   0.718917648920528E-02   0.232694E-01   0.122616E+00   0.119663E+03  -0.606032E-17
   LPB:    4  -0.153616264114372E+00   0.376339055736745E-02   0.421419E-01   0.414177E+00   0.916101E+02   0.259300E-16
  Finished solving LPB equations
  A_corr:   -7.277385143927630E-002
 End minimization
 Ecorr=   1997.81244664296     
 A_corr= -7.277385143927630E-002
 Ecorr_band=  -1997.88522049440     
 End Solvation calculations
   2 F= -.18138177E+03 E0= -.18137472E+03  d E =-.159857E-02
quench:  g(F)=  0.000E+00 g(S)=  0.000E+00 dE (1.order)= 0.000E+00
 bond charge predicted
       N       E                     dE             d eps       ncg     rms          rms(c)
 Begin Solvation calculations
  rms_SCF =   0.174146048844959      tol =   1.741460488449589E-002
 Begin minimization
 Creating dielectric and ionic cavities
  area:      153.996558354375     
  volume:    776.954405469349     
  Acav:     8.084819313604666E-002
  Solving linear dielectric/ionic screening model
        iter                  A_solv                     rms
   LPB:       -0.153757694135078E+00   0.409341344766348E-02
   LPB:    0  -0.153757694134818E+00   0.409157900679772E-02   0.125204E-06   0.000000E+00   0.331694E+02   0.415295E-05
   LPB:    1  -0.153633468118997E+00   0.286327825905488E-02   0.158912E-01   0.000000E+00   0.564760E+05  -0.434866E-21
   LPB:    2  -0.153616484337015E+00   0.372624370908120E-02   0.295481E-01   0.735271E-01   0.298421E+04   0.963108E-17
   LPB:    3  -0.153608750223517E+00   0.707899913020339E-02   0.368313E-01   0.365333E+00   0.817309E+03  -0.478348E-16
   LPB:    4  -0.153604325894509E+00   0.157271982966144E-01   0.299313E-01   0.703928E+00   0.163272E+03  -0.738087E-16
  Finished solving LPB equations
  A_corr:   -7.275613275846246E-002
 End minimization
 Ecorr=   1997.99672015027     
 A_corr= -7.275613275846246E-002
 Ecorr_band=  -1998.06947628302     
 End Solvation calculations
DAV:   1    -0.181381936207E+03   -0.24867E-03   -0.75177E-03 11418   0.147E-01    0.147E-01
 Begin Solvation calculations
  rms_SCF =   0.174146048844959      tol =   1.741460488449589E-002
 Begin minimization
 Creating dielectric and ionic cavities
  area:      153.964387943250     
  volume:    776.944440314043     
  Acav:     8.083130367020598E-002
  Solving linear dielectric/ionic screening model
        iter                  A_solv                     rms
   LPB:       -0.163327495388107E+00   0.177691594930056E+01
   LPB:    0  -0.163325720218660E+00   0.177672950580989E+01  -0.327162E-03   0.000000E+00   0.331698E+02  -0.108519E-01
   LPB:    1  -0.154919046962276E+00   0.181353289316686E+00   0.878687E-02   0.000000E+00   0.689817E+02   0.628554E-18
   LPB:    2  -0.154108618431414E+00   0.359207936910233E-01   0.150424E-01   0.563130E-01   0.144639E+03  -0.858117E-17
   LPB:    3  -0.154012612064182E+00   0.122756088211057E-01   0.213955E-01   0.832875E-01   0.177755E+03  -0.177174E-16
   LPB:    4  -0.153985855954044E+00   0.615473041128407E-02   0.279348E-01   0.213451E+00   0.294137E+03   0.179383E-15
  Finished solving LPB equations
  A_corr:   -7.315455228383787E-002
 End minimization
 Ecorr=   1997.89683391323     
 A_corr= -7.315455228383787E-002
 Ecorr_band=  -1997.96998846552     
 End Solvation calculations
RMM:   2    -0.181422382653E+03   -0.40446E-01   -0.57573E-03 11088   0.130E-01    0.240E+00
 Begin Solvation calculations
  rms_SCF =   0.174146048844959      tol =   1.741460488449589E-002
 Begin minimization
 Creating dielectric and ionic cavities
  area:      154.010687858095     
  volume:    776.961053649777     
  Acav:     8.085561112549999E-002
  Solving linear dielectric/ionic screening model
        iter                  A_solv                     rms
   LPB:       -0.160221093529642E+00   0.153066612604377E+01
   LPB:    0  -0.160200494089569E+00   0.152733562740840E+01   0.111449E-02   0.000000E+00   0.331691E+02   0.369666E-01
   LPB:    1  -0.154095588164102E+00   0.144693861881042E+00   0.855948E-02   0.000000E+00   0.713510E+02   0.158401E-17
   LPB:    2  -0.153573603371562E+00   0.250946559126045E-01   0.158231E-01   0.462525E-01   0.130621E+03  -0.431244E-16
   LPB:    3  -0.153518757832649E+00   0.602615593609121E-02   0.200649E-01   0.828585E-01   0.229571E+03   0.193142E-15
   LPB:    4  -0.153508283501592E+00   0.293945130832020E-02   0.244113E-01   0.156975E+00   0.702845E+03   0.112996E-15
  Finished solving LPB equations
  A_corr:   -7.265267237609224E-002
 End minimization
 Ecorr=   1998.24789595803     
 A_corr= -7.265267237609224E-002
 Ecorr_band=  -1998.32054863041     
 End Solvation calculations
RMM:   3    -0.181382965075E+03    0.39418E-01   -0.43137E-03 10899   0.119E-01    0.216E-01
 Begin Solvation calculations
  rms_SCF =   0.174146048844959      tol =   1.741460488449589E-002
 Begin minimization
 Creating dielectric and ionic cavities
  area:      154.003723952928     
  volume:    776.964626042545     
  Acav:     8.085195507528745E-002
  Solving linear dielectric/ionic screening model
        iter                  A_solv                     rms
   LPB:       -0.153490797086585E+00   0.551515683705046E-01
   LPB:    0  -0.153489986855002E+00   0.505559077065692E-01   0.221031E-03   0.000000E+00   0.331689E+02   0.733137E-02
   LPB:    1  -0.153472405994426E+00   0.102981124662468E-01   0.123965E-01   0.000000E+00   0.827330E+02  -0.432663E-18
   LPB:    2  -0.153470302628947E+00   0.645034798830587E-02   0.147746E-01   0.100383E+00   0.292528E+03  -0.210530E-16
   LPB:    3  -0.153468790214055E+00   0.518943376182749E-02   0.258201E-01   0.411448E+00   0.222661E+03  -0.238388E-16
   LPB:    4  -0.153466607172751E+00   0.442459689430197E-02   0.553255E-01   0.673633E+00   0.715769E+02  -0.282026E-16
  Finished solving LPB equations
  A_corr:   -7.261465209746401E-002
 End minimization
 Ecorr=   1998.44860919822     
 A_corr= -7.261465209746401E-002
 Ecorr_band=  -1998.52122385032     
 End Solvation calculations
RMM:   4    -0.181382159586E+03    0.80549E-03   -0.33345E-04  7463   0.417E-02    0.136E-01
 Begin Solvation calculations
  rms_SCF =   0.174146048844959      tol =   1.741460488449589E-002
 Begin minimization
 Creating dielectric and ionic cavities
  area:      154.004537086192     
  volume:    776.971694964944     
  Acav:     8.085238197025058E-002
  Solving linear dielectric/ionic screening model
        iter                  A_solv                     rms
   LPB:       -0.153571895788312E+00   0.189403707877748E+00
   LPB:    0  -0.153566301019125E+00   0.181565915765287E+00   0.580822E-03   0.000000E+00   0.331686E+02   0.192650E-01
   LPB:    1  -0.153429101931106E+00   0.312977234330437E-01   0.110859E-01   0.000000E+00   0.657721E+02  -0.371579E-18
   LPB:    2  -0.153415085175277E+00   0.906426196554084E-02   0.115155E-01   0.983516E-01   0.259066E+03  -0.742486E-16
   LPB:    3  -0.153412352482053E+00   0.331986035370518E-02   0.221580E-01   0.101320E+00   0.122368E+03  -0.746660E-16
   LPB:    4  -0.153410851407139E+00   0.198746790477954E-02   0.364511E-01   0.333912E+00   0.135387E+03  -0.122719E-15
  Finished solving LPB equations
  A_corr:   -7.255846943688871E-002
 End minimization
 Ecorr=   1998.56675791135     
 A_corr= -7.255846943688871E-002
 Ecorr_band=  -1998.63931638078     
 End Solvation calculations
RMM:   5    -0.181382149916E+03    0.96697E-05   -0.55044E-05  6009   0.168E-02
 Begin Solvation calculations
  rms_SCF =   0.174146048844959      tol =   1.741460488449589E-002
 Begin minimization
 Creating dielectric and ionic cavities
  area:      154.006180733566     
  volume:    776.970330169396     
  Acav:     8.085324488512211E-002
  Solving linear dielectric/ionic screening model
        iter                  A_solv                     rms
   LPB:       -0.153410186477072E+00   0.507912966522461E-01
   LPB:    0  -0.153410065537692E+00   0.499038979560827E-01   0.853955E-04   0.000000E+00   0.331686E+02   0.283245E-02
   LPB:    1  -0.153398942646136E+00   0.921194338774946E-02   0.113631E-01   0.000000E+00   0.674993E+02  -0.159081E-18
   LPB:    2  -0.153397758510487E+00   0.296375870111615E-02   0.119176E-01   0.101506E+00   0.236188E+03   0.696970E-16
   LPB:    3  -0.153396974487253E+00   0.300308917267184E-02   0.438643E-01   0.179889E+00   0.851176E+02   0.699609E-16
   LPB:    4  -0.153395275904618E+00   0.204914528777494E-02   0.609363E-01   0.155953E+01   0.455311E+02   0.752595E-16
  Finished solving LPB equations
  A_corr:   -7.254203101949636E-002
 End minimization
 Ecorr=   1998.73430509413     
 A_corr= -7.254203101949636E-002
 Ecorr_band=  -1998.80684712515     
 End Solvation calculations
   3 F= -.18138215E+03 E0= -.18137503E+03  d E =-.381175E-03
quench:  g(F)=  0.000E+00 g(S)=  0.000E+00 dE (1.order)= 0.000E+00
 bond charge predicted
       N       E                     dE             d eps       ncg     rms          rms(c)
 Begin Solvation calculations
  rms_SCF =   0.174146048844959      tol =   1.741460488449589E-002
 Begin minimization
 Creating dielectric and ionic cavities
  area:      154.016179166937     
  volume:    776.977627205050     
  Acav:     8.085849406264194E-002
  Solving linear dielectric/ionic screening model
        iter                  A_solv                     rms
   LPB:       -0.153700938297006E+00   0.260950007643479E-02
   LPB:    0  -0.153700938289592E+00   0.260591651227797E-02   0.668644E-06   0.000000E+00   0.331683E+02   0.221778E-04
   LPB:    1  -0.153459292844027E+00   0.137072902780918E-02   0.155549E-01   0.000000E+00   0.294135E+06   0.131986E-20
   LPB:    2  -0.153432882392246E+00   0.822500436431017E-03   0.276591E-01   0.614646E-01   0.316530E+05  -0.176219E-17
   LPB:    3  -0.153423806229165E+00   0.163330867820199E-02   0.335340E-01   0.283452E+00   0.327778E+05  -0.473809E-17
   LPB:    4  -0.153419585151931E+00   0.518351145917172E-02   0.359212E-01   0.434166E+00   0.266866E+04  -0.260821E-17
  Finished solving LPB equations
  A_corr:   -7.256109108928878E-002
 End minimization
 Ecorr=   1998.75986905932     
 A_corr= -7.256109108928878E-002
 Ecorr_band=  -1998.83243015041     
 End Solvation calculations
DAV:   1    -0.181382251615E+03   -0.92029E-04   -0.13258E-02 11511   0.177E-01    0.104E-01
 Begin Solvation calculations
  rms_SCF =   0.170733488991537      tol =   1.707334889915369E-002
 Begin minimization
 Creating dielectric and ionic cavities
  area:      153.998543790113     
  volume:    776.980774763182     
  Acav:     8.084923548980953E-002
  Solving linear dielectric/ionic screening model
        iter                  A_solv                     rms
   LPB:       -0.157680280122959E+00   0.116472921342941E+01
   LPB:    0  -0.157679990614714E+00   0.116467294612974E+01   0.132125E-03   0.000000E+00   0.331681E+02   0.438234E-02
   LPB:    1  -0.154056022382975E+00   0.118412587201494E+00   0.880059E-02   0.000000E+00   0.689884E+02  -0.160515E-18
   LPB:    2  -0.153709545980264E+00   0.244405124544739E-01   0.149152E-01   0.564119E-01   0.148316E+03   0.281479E-16
   LPB:    3  -0.153668843361393E+00   0.827594273536635E-02   0.212064E-01   0.826252E-01   0.167897E+03   0.471771E-16
   LPB:    4  -0.153657888053868E+00   0.477202630286033E-02   0.273633E-01   0.208593E+00   0.315020E+03  -0.148197E-16
  Finished solving LPB equations
  A_corr:   -7.280865256405804E-002
 End minimization
 Ecorr=   1998.63047280939     
 A_corr= -7.280865256405804E-002
 Ecorr_band=  -1998.70328146195     
 End Solvation calculations
RMM:   2    -0.181400407539E+03   -0.18156E-01   -0.29089E-03 11075   0.966E-02    0.162E+00
 Begin Solvation calculations
  rms_SCF =   0.170733488991537      tol =   1.707334889915369E-002
 Begin minimization
 Creating dielectric and ionic cavities
  area:      154.027899479242     
  volume:    776.988164877561     
  Acav:     8.086464722660210E-002
  Solving linear dielectric/ionic screening model
        iter                  A_solv                     rms
   LPB:       -0.156324973597393E+00   0.102374211795030E+01
   LPB:    0  -0.156317951381227E+00   0.102201786740721E+01   0.650719E-03   0.000000E+00   0.331678E+02   0.215829E-01
   LPB:    1  -0.153585740397186E+00   0.968471635066391E-01   0.855748E-02   0.000000E+00   0.713650E+02  -0.703454E-18
   LPB:    2  -0.153353108483690E+00   0.169067366986137E-01   0.158072E-01   0.460941E-01   0.130421E+03  -0.207282E-15
   LPB:    3  -0.153328842283662E+00   0.437423042328103E-02   0.200677E-01   0.821657E-01   0.223273E+03  -0.316484E-15
   LPB:    4  -0.153324158659392E+00   0.224093282940952E-02   0.244775E-01   0.158238E+00   0.650444E+03  -0.428378E-15
  Finished solving LPB equations
  A_corr:   -7.245951143279035E-002
 End minimization
 Ecorr=   1998.85963551771     
 A_corr= -7.245951143279035E-002
 Ecorr_band=  -1998.93209502914     
 End Solvation calculations
RMM:   3    -0.181382785310E+03    0.17622E-01   -0.19767E-03 10915   0.812E-02    0.148E-01
 Begin Solvation calculations
  rms_SCF =   0.170733488991537      tol =   1.707334889915369E-002
 Begin minimization
 Creating dielectric and ionic cavities
  area:      154.023064950079     
  volume:    776.981279567313     
  Acav:     8.086210909879141E-002
  Solving linear dielectric/ionic screening model
        iter                  A_solv                     rms
   LPB:       -0.153335575454476E+00   0.621105131617153E-01
   LPB:    0  -0.153335473442589E+00   0.623083054279027E-01  -0.784296E-04   0.000000E+00   0.331681E+02  -0.260136E-02
   LPB:    1  -0.153319984460311E+00   0.105470140928204E-01   0.106881E-01   0.000000E+00   0.692759E+02  -0.209259E-18
   LPB:    2  -0.153317812933397E+00   0.283103460630165E-02   0.133463E-01   0.112275E+00   0.282198E+03  -0.721096E-18
   LPB:    3  -0.153317155826872E+00   0.204596276678992E-02   0.239060E-01   0.168937E+00   0.338916E+03   0.301345E-17
   LPB:    4  -0.153316415900891E+00   0.140952905310192E-02   0.600182E-01   0.448513E+00   0.192981E+03   0.295715E-17
  Finished solving LPB equations
  A_corr:   -7.245430680209963E-002
 End minimization
 Ecorr=   1998.98634376039     
 A_corr= -7.245430680209963E-002
 Ecorr_band=  -1999.05879806719     
 End Solvation calculations
RMM:   4    -0.181382413104E+03    0.37221E-03   -0.14960E-04  6237   0.286E-02    0.102E-01
 Begin Solvation calculations
  rms_SCF =   0.122824237869268      tol =   1.228242378692675E-002
 Begin minimization
 Creating dielectric and ionic cavities
  area:      154.022283350190     
  volume:    776.986993521753     
  Acav:     8.086169875884991E-002
  Solving linear dielectric/ionic screening model
        iter                  A_solv                     rms
   LPB:       -0.153332730944334E+00   0.103769844043121E+00
   LPB:    0  -0.153329478139701E+00   0.955373466395169E-01   0.442879E-03   0.000000E+00   0.331679E+02   0.146894E-01
   LPB:    1  -0.153289814812938E+00   0.163806087569261E-01   0.112178E-01   0.000000E+00   0.656213E+02   0.310131E-18
   LPB:    2  -0.153286143704868E+00   0.490757099672253E-02   0.112665E-01   0.921568E-01   0.275858E+03   0.804428E-16
   LPB:    3  -0.153285456415966E+00   0.217595765871934E-02   0.212602E-01   0.992124E-01   0.117895E+03   0.891115E-16
   LPB:    4  -0.153285024390450E+00   0.208695377997057E-02   0.379948E-01   0.351732E+00   0.111037E+03   0.900135E-16
  Finished solving LPB equations
  A_corr:   -7.242332563160025E-002
 End minimization
 Ecorr=   1999.04161053628     
 A_corr= -7.242332563160025E-002
 Ecorr_band=  -1999.11403386191     
 End Solvation calculations
RMM:   5    -0.181382408707E+03    0.43962E-05   -0.43393E-05  5940   0.150E-02
 Begin Solvation calculations
  rms_SCF =   0.122824237869268      tol =   1.228242378692675E-002
 Begin minimization
 Creating dielectric and ionic cavities
  area:      154.027660578096     
  volume:    776.987457975009     
  Acav:     8.086452180350019E-002
  Solving linear dielectric/ionic screening model
        iter                  A_solv                     rms
   LPB:       -0.153278105648704E+00   0.744104061563815E-01
   LPB:    0  -0.153277007691926E+00   0.696222867687295E-01   0.257306E-03   0.000000E+00   0.331678E+02   0.853427E-02
   LPB:    1  -0.153249833172914E+00   0.121916932474568E-01   0.119511E-01   0.000000E+00   0.735438E+02   0.732743E-18
   LPB:    2  -0.153248013730591E+00   0.470069008394028E-02   0.109944E-01   0.727801E-01   0.267444E+03   0.194148E-15
   LPB:    3  -0.153247511806888E+00   0.180470454963310E-02   0.216529E-01   0.140073E+00   0.110988E+03   0.205669E-15
   LPB:    4  -0.153247098286441E+00   0.142046616022867E-02   0.441842E-01   0.403747E+00   0.103669E+03   0.207683E-15
  Finished solving LPB equations
  A_corr:   -7.238257648294034E-002
 End minimization
 Ecorr=   1999.15350300832     
 A_corr= -7.238257648294034E-002
 Ecorr_band=  -1999.22588558480     
 End Solvation calculations
   4 F= -.18138241E+03 E0= -.18137524E+03  d E =-.258791E-03
quench:  g(F)=  0.000E+00 g(S)=  0.000E+00 dE (1.order)= 0.000E+00
 bond charge predicted
       N       E                     dE             d eps       ncg     rms          rms(c)
 Begin Solvation calculations
  rms_SCF =   0.122824237869268      tol =   1.228242378692675E-002
 Begin minimization
 Creating dielectric and ionic cavities
  area:      154.042561225929     
  volume:    776.993941787176     
  Acav:     8.087234464361297E-002
  Solving linear dielectric/ionic screening model
        iter                  A_solv                     rms
   LPB:       -0.153634048658495E+00   0.259206334887935E-02
   LPB:    0  -0.153634048650376E+00   0.260631774936785E-02   0.699704E-06   0.000000E+00   0.331675E+02   0.232074E-04
   LPB:    1  -0.153296081765684E+00   0.175314483477597E-02   0.158499E-01   0.000000E+00   0.349629E+06  -0.715292E-21
   LPB:    2  -0.153255420799155E+00   0.227346439229900E-02   0.280920E-01   0.678811E-01   0.241422E+05  -0.290543E-18
   LPB:    3  -0.153241234144701E+00   0.479791505474248E-02   0.333478E-01   0.293912E+00   0.538809E+04  -0.108387E-16
   LPB:    4  -0.153234967801642E+00   0.964386725257583E-02   0.329705E-01   0.446761E+00   0.462760E+03   0.596476E-17
  Finished solving LPB equations
  A_corr:   -7.236262315802942E-002
 End minimization
 Ecorr=   1999.21461660640     
 A_corr= -7.236262315802942E-002
 Ecorr_band=  -1999.28697922956     
 End Solvation calculations
DAV:   1    -0.181382518747E+03   -0.10564E-03   -0.19605E-02 11424   0.214E-01    0.778E-02
 Begin Solvation calculations
  rms_SCF =   0.114837486104917      tol =   1.148374861049167E-002
 Begin minimization
 Creating dielectric and ionic cavities
  area:      154.022761237647     
  volume:    777.003625702788     
  Acav:     8.086194964976474E-002
  Solving linear dielectric/ionic screening model
        iter                  A_solv                     rms
   LPB:       -0.155302014382577E+00   0.789352360973137E+00
   LPB:    0  -0.155299434250717E+00   0.788937733218185E+00   0.394441E-03   0.000000E+00   0.331671E+02   0.130825E-01
   LPB:    1  -0.153635192398907E+00   0.805479126855963E-01   0.880276E-02   0.000000E+00   0.690100E+02  -0.572449E-18
   LPB:    2  -0.153473606910384E+00   0.167975771630599E-01   0.150181E-01   0.569103E-01   0.147366E+03   0.197192E-16
   LPB:    3  -0.153453914684180E+00   0.610864574392848E-02   0.215049E-01   0.851076E-01   0.165931E+03   0.256098E-16
   LPB:    4  -0.153447911266355E+00   0.376731794067153E-02   0.286399E-01   0.228913E+00   0.313530E+03   0.106298E-15
  Finished solving LPB equations
  A_corr:   -7.258596161658988E-002
 End minimization
 Ecorr=   1999.00575361472     
 A_corr= -7.258596161658988E-002
 Ecorr_band=  -1999.07833957634     
 End Solvation calculations
RMM:   2    -0.181390386807E+03   -0.78681E-02   -0.17063E-03 10999   0.757E-02    0.105E+00
 Begin Solvation calculations
  rms_SCF =   0.114837486104917      tol =   1.148374861049167E-002
 Begin minimization
 Creating dielectric and ionic cavities
  area:      154.048151953153     
  volume:    777.003853016170     
  Acav:     8.087527977540523E-002
  Solving linear dielectric/ionic screening model
        iter                  A_solv                     rms
   LPB:       -0.154580321184673E+00   0.688385716858287E+00
   LPB:    0  -0.154579068472698E+00   0.687848855751681E+00   0.274845E-03   0.000000E+00   0.331671E+02   0.911579E-02
   LPB:    1  -0.153341352951955E+00   0.651694475112259E-01   0.855898E-02   0.000000E+00   0.713696E+02   0.766198E-18
   LPB:    2  -0.153235238212506E+00   0.117791729197987E-01   0.158647E-01   0.462537E-01   0.130488E+03  -0.305019E-16
   LPB:    3  -0.153223609515971E+00   0.332791180190266E-02   0.203763E-01   0.853220E-01   0.213482E+03  -0.231425E-16
   LPB:    4  -0.153221066028411E+00   0.209118578081609E-02   0.257551E-01   0.173045E+00   0.674365E+03   0.139157E-16
  Finished solving LPB equations
  A_corr:   -7.234578625300528E-002
 End minimization
 Ecorr=   1999.19173002731     
 A_corr= -7.234578625300528E-002
 Ecorr_band=  -1999.26407581356     
 End Solvation calculations
RMM:   3    -0.181382879958E+03    0.75068E-02   -0.89068E-04 10556   0.546E-02    0.158E-01
 Begin Solvation calculations
  rms_SCF =   0.114837486104917      tol =   1.148374861049167E-002
 Begin minimization
 Creating dielectric and ionic cavities
  area:      154.049222893131     
  volume:    776.992669823950     
  Acav:     8.087584201889383E-002
  Solving linear dielectric/ionic screening model
        iter                  A_solv                     rms
   LPB:       -0.153246872573665E+00   0.328686591135952E-01
   LPB:    0  -0.153245043345725E+00   0.245547527825984E-01  -0.332118E-03   0.000000E+00   0.331676E+02  -0.110155E-01
   LPB:    1  -0.153241827643177E+00   0.566051178754672E-02   0.115477E-01   0.000000E+00   0.786898E+02  -0.333595E-18
   LPB:    2  -0.153241094021586E+00   0.260897799970402E-02   0.167328E-01   0.157444E+00   0.326469E+03  -0.156069E-16
   LPB:    3  -0.153240479736353E+00   0.285672732526189E-02   0.324059E-01   0.432357E+00   0.449156E+03  -0.280207E-16
   LPB:    4  -0.153239457787150E+00   0.434031488705135E-02   0.540578E-01   0.997299E+00   0.276839E+03  -0.398724E-16
  Finished solving LPB equations
  A_corr:   -7.236361576825626E-002
 End minimization
 Ecorr=   1999.31382500409     
 A_corr= -7.236361576825626E-002
 Ecorr_band=  -1999.38618861986     
 End Solvation calculations
RMM:   4    -0.181382622146E+03    0.25781E-03   -0.12311E-04  6093   0.242E-02    0.686E-02
 Begin Solvation calculations
  rms_SCF =   9.400030816696249E-002 tol =   9.400030816696249E-003
 Begin minimization
 Creating dielectric and ionic cavities
  area:      154.046803559892     
  volume:    777.003925513385     
  Acav:     8.087457186894319E-002
  Solving linear dielectric/ionic screening model
        iter                  A_solv                     rms
   LPB:       -0.153264049815318E+00   0.804213642393186E-01
   LPB:    0  -0.153259818746684E+00   0.660425436718100E-01   0.505111E-03   0.000000E+00   0.331671E+02   0.167530E-01
   LPB:    1  -0.153237408190088E+00   0.114190424410139E-01   0.116100E-01   0.000000E+00   0.676364E+02   0.104977E-17
   LPB:    2  -0.153235599326483E+00   0.452131967597010E-02   0.116097E-01   0.807167E-01   0.288500E+03  -0.163118E-15
   LPB:    3  -0.153235163187369E+00   0.264692387989705E-02   0.203516E-01   0.137545E+00   0.972146E+02  -0.175525E-15
   LPB:    4  -0.153234847882919E+00   0.227989116724020E-02   0.328643E-01   0.447692E+00   0.131680E+03  -0.184639E-15
  Finished solving LPB equations
  A_corr:   -7.236027601397534E-002
 End minimization
 Ecorr=   1999.32967260276     
 A_corr= -7.236027601397534E-002
 Ecorr_band=  -1999.40203287877     
 End Solvation calculations
RMM:   5    -0.181382656156E+03   -0.34010E-04   -0.35830E-05  5902   0.128E-02
 Begin Solvation calculations
  rms_SCF =   9.400030816696249E-002 tol =   9.400030816696249E-003
 Begin minimization
 Creating dielectric and ionic cavities
  area:      154.047498360412     
  volume:    776.998658573689     
  Acav:     8.087493663921606E-002
  Solving linear dielectric/ionic screening model
        iter                  A_solv                     rms
   LPB:       -0.153257028757637E+00   0.492144911476280E-01
   LPB:    0  -0.153256965930747E+00   0.492809184492388E-01  -0.615507E-04   0.000000E+00   0.331673E+02  -0.204147E-02
   LPB:    1  -0.153247409619836E+00   0.821838566537221E-02   0.107245E-01   0.000000E+00   0.680883E+02   0.157571E-18
   LPB:    2  -0.153246324586251E+00   0.222636741771039E-02   0.121048E-01   0.100594E+00   0.255492E+03  -0.320443E-17
   LPB:    3  -0.153246047528389E+00   0.979681013789579E-03   0.262874E-01   0.117581E+00   0.137445E+03  -0.604835E-17
   LPB:    4  -0.153245752618837E+00   0.106105892460275E-02   0.494321E-01   0.566051E+00   0.207339E+03  -0.244898E-17
  Finished solving LPB equations
  A_corr:   -7.237081597962140E-002
 End minimization
 Ecorr=   1999.39685990356     
 A_corr= -7.237081597962140E-002
 Ecorr_band=  -1999.46923071954     
 End Solvation calculations
   5 F= -.18138266E+03 E0= -.18137553E+03  d E =-.247449E-03
quench:  g(F)=  0.000E+00 g(S)=  0.000E+00 dE (1.order)= 0.000E+00
 bond charge predicted
       N       E                     dE             d eps       ncg     rms          rms(c)
 Begin Solvation calculations
  rms_SCF =   9.400030816696249E-002 tol =   9.400030816696249E-003
 Begin minimization
 Creating dielectric and ionic cavities
  area:      154.049010387133     
  volume:    777.001805398016     
  Acav:     8.087573045324466E-002
  Solving linear dielectric/ionic screening model
        iter                  A_solv                     rms
   LPB:       -0.153425688949205E+00   0.152580841001820E-02
   LPB:    0  -0.153425688947624E+00   0.151801073612584E-02   0.308796E-06   0.000000E+00   0.331672E+02   0.102419E-04
   LPB:    1  -0.153294751299088E+00   0.579694932827532E-03   0.156977E-01   0.000000E+00   0.404595E+06  -0.685854E-21
   LPB:    2  -0.153280306111710E+00   0.776396263427976E-03   0.275099E-01   0.629516E-01   0.117628E+06  -0.463017E-17
   LPB:    3  -0.153275371660841E+00   0.139565610748527E-02   0.334612E-01   0.280843E+00   0.122780E+05  -0.480472E-17
   LPB:    4  -0.153273096136016E+00   0.340126066683400E-02   0.357198E-01   0.431990E+00   0.209882E+04   0.399092E-17
  Finished solving LPB equations
  A_corr:   -7.239736568277173E-002
 End minimization
 Ecorr=   1999.39871373639     
 A_corr= -7.239736568277173E-002
 Ecorr_band=  -1999.47111110207     
 End Solvation calculations
DAV:   1    -0.181382699375E+03   -0.77229E-04   -0.88214E-03 11394   0.134E-01    0.572E-02
 Begin Solvation calculations
  rms_SCF =   8.067229556205893E-002 tol =   8.067229556205893E-003
 Begin minimization
 Creating dielectric and ionic cavities
  area:      154.041524850502     
  volume:    777.014577136978     
  Acav:     8.087180054651341E-002
  Solving linear dielectric/ionic screening model
        iter                  A_solv                     rms
   LPB:       -0.154287459293019E+00   0.552048899520546E+00
   LPB:    0  -0.154285582060266E+00   0.551273538781397E+00   0.336453E-03   0.000000E+00   0.331666E+02   0.111590E-01
   LPB:    1  -0.153471264088515E+00   0.553556651922115E-01   0.879582E-02   0.000000E+00   0.692360E+02  -0.186449E-18
   LPB:    2  -0.153394845843204E+00   0.123061502954324E-01   0.148491E-01   0.555876E-01   0.151794E+03   0.145323E-16
   LPB:    3  -0.153385587330640E+00   0.501039528327485E-02   0.212890E-01   0.845063E-01   0.152031E+03   0.750987E-17
   LPB:    4  -0.153382951309800E+00   0.388707262325084E-02   0.269882E-01   0.224590E+00   0.267961E+03  -0.494589E-16
  Finished solving LPB equations
  A_corr:   -7.251115076328682E-002
 End minimization
 Ecorr=   1999.31441871993     
 A_corr= -7.251115076328682E-002
 Ecorr_band=  -1999.38692987069     
 End Solvation calculations
RMM:   2    -0.181386874512E+03   -0.41751E-02   -0.98824E-04 10515   0.558E-02    0.775E-01
 Begin Solvation calculations
  rms_SCF =   8.067229556205893E-002 tol =   8.067229556205893E-003
 Begin minimization
 Creating dielectric and ionic cavities
  area:      154.054322594185     
  volume:    777.015056981889     
  Acav:     8.087851936194700E-002
  Solving linear dielectric/ionic screening model
        iter                  A_solv                     rms
   LPB:       -0.153898548122349E+00   0.489070502149167E+00
   LPB:    0  -0.153897731523081E+00   0.488628249617201E+00   0.221906E-03   0.000000E+00   0.331665E+02   0.735986E-02
   LPB:    1  -0.153273175807770E+00   0.462900471338965E-01   0.855799E-02   0.000000E+00   0.713851E+02   0.410607E-18
   LPB:    2  -0.153219811380339E+00   0.835226923317803E-02   0.158361E-01   0.461748E-01   0.130593E+03   0.147221E-16
   LPB:    3  -0.153214145209731E+00   0.240968540151272E-02   0.202350E-01   0.830964E-01   0.210063E+03   0.557153E-16
   LPB:    4  -0.153212946486824E+00   0.156324747265350E-02   0.253045E-01   0.169174E+00   0.615748E+03   0.101584E-15
  Finished solving LPB equations
  A_corr:   -7.233442712487718E-002
 End minimization
 Ecorr=   1999.43364328892     
 A_corr= -7.233442712487718E-002
 Ecorr_band=  -1999.50597771604     
 End Solvation calculations
RMM:   3    -0.181382862898E+03    0.40116E-02   -0.45993E-04  8770   0.404E-02    0.812E-02
 Begin Solvation calculations
  rms_SCF =   8.067229556205893E-002 tol =   8.067229556205893E-003
 Begin minimization
 Creating dielectric and ionic cavities
  area:      154.053558912224     
  volume:    777.004287539826     
  Acav:     8.087811842891778E-002
  Solving linear dielectric/ionic screening model
        iter                  A_solv                     rms
   LPB:       -0.153233947644977E+00   0.431496023139797E-01
   LPB:    0  -0.153232742814434E+00   0.397758794785838E-01  -0.269541E-03   0.000000E+00   0.331670E+02  -0.893987E-02
   LPB:    1  -0.153227446265872E+00   0.565211375401302E-02   0.997235E-02   0.000000E+00   0.672330E+02   0.728139E-18
   LPB:    2  -0.153226618579399E+00   0.131593438121437E-02   0.146946E-01   0.106051E+00   0.233555E+03   0.711077E-17
   LPB:    3  -0.153226375431117E+00   0.104208199867113E-02   0.255681E-01   0.168836E+00   0.446458E+03   0.838436E-17
   LPB:    4  -0.153226028959522E+00   0.205834886049581E-02   0.643037E-01   0.566578E+00   0.789156E+03   0.680829E-17
  Finished solving LPB equations
  A_corr:   -7.234791053060395E-002
 End minimization
 Ecorr=   1999.53288095252     
 A_corr= -7.234791053060395E-002
 Ecorr_band=  -1999.60522886305     
 End Solvation calculations
RMM:   4    -0.181382773345E+03    0.89553E-04   -0.58854E-05  5950   0.170E-02
 Begin Solvation calculations
  rms_SCF =   8.067229556205893E-002 tol =   8.067229556205893E-003
 Begin minimization
 Creating dielectric and ionic cavities
  area:      154.052031670385     
  volume:    777.011815536078     
  Acav:     8.087731662695230E-002
  Solving linear dielectric/ionic screening model
        iter                  A_solv                     rms
   LPB:       -0.153219354264417E+00   0.490680149761364E-01
   LPB:    0  -0.153217472302379E+00   0.389340141430905E-01   0.336875E-03   0.000000E+00   0.331667E+02   0.111730E-01
   LPB:    1  -0.153210834819230E+00   0.597699033579938E-02   0.110108E-01   0.000000E+00   0.637966E+02  -0.598184E-18
   LPB:    2  -0.153210285188316E+00   0.213774404344911E-02   0.115214E-01   0.791374E-01   0.303569E+03  -0.797772E-16
   LPB:    3  -0.153210158650098E+00   0.176849589059000E-02   0.227768E-01   0.116456E+00   0.997017E+02  -0.885698E-16
   LPB:    4  -0.153210000558622E+00   0.177224704347900E-02   0.425771E-01   0.668349E+00   0.110875E+03  -0.993109E-16
  Finished solving LPB equations
  A_corr:   -7.233268393166967E-002
 End minimization
 Ecorr=   1999.53853056052     
 A_corr= -7.233268393166967E-002
 Ecorr_band=  -1999.61086324445     
 End Solvation calculations
   6 F= -.18138277E+03 E0= -.18137559E+03  d E =-.117189E-03
quench:  g(F)=  0.000E+00 g(S)=  0.000E+00 dE (1.order)= 0.000E+00
 bond charge predicted
       N       E                     dE             d eps       ncg     rms          rms(c)
 Begin Solvation calculations
  rms_SCF =   8.067229556205893E-002 tol =   8.067229556205893E-003
 Begin minimization
 Creating dielectric and ionic cavities
  area:      154.059587846441     
  volume:    777.014992588158     
  Acav:     8.088128361938146E-002
  Solving linear dielectric/ionic screening model
        iter                  A_solv                     rms
   LPB:       -0.153306281007250E+00   0.216444353588728E-02
   LPB:    0  -0.153306281005255E+00   0.217540673877488E-02   0.346827E-06   0.000000E+00   0.331665E+02   0.115031E-04
   LPB:    1  -0.153217948863284E+00   0.178703692976147E-02   0.158616E-01   0.000000E+00   0.116737E+06   0.503444E-21
   LPB:    2  -0.153207291419902E+00   0.293019132007761E-02   0.279752E-01   0.684080E-01   0.696644E+04   0.143933E-17
   LPB:    3  -0.153203663416634E+00   0.587499926236655E-02   0.316188E-01   0.301192E+00   0.887791E+03  -0.881538E-17
   LPB:    4  -0.153202205701481E+00   0.709205663907934E-02   0.239600E-01   0.530230E+00   0.177812E+03  -0.134626E-16
  Finished solving LPB equations
  A_corr:   -7.232092208210003E-002
 End minimization
 Ecorr=   1999.56182360535     
 A_corr= -7.232092208210003E-002
 Ecorr_band=  -1999.63414452743     
 End Solvation calculations
DAV:   1    -0.181382817408E+03    0.45491E-04   -0.52375E-03 11238   0.116E-01    0.361E-02
 Begin Solvation calculations
  rms_SCF =   4.499190567856364E-002 tol =   4.499190567856364E-003
 Begin minimization
 Creating dielectric and ionic cavities
  area:      154.058263915048     
  volume:    777.004842523249     
  Acav:     8.088058855540001E-002
  Solving linear dielectric/ionic screening model
        iter                  A_solv                     rms
   LPB:       -0.153583507565294E+00   0.306907644501988E+00
   LPB:    0  -0.153582525009708E+00   0.306417660914222E+00  -0.243411E-03   0.000000E+00   0.331670E+02  -0.807322E-02
   LPB:    1  -0.153329495441675E+00   0.317502101866947E-01   0.885320E-02   0.000000E+00   0.687553E+02  -0.405055E-18
   LPB:    2  -0.153304639850169E+00   0.625415577247532E-02   0.148287E-01   0.586475E-01   0.151217E+03  -0.341921E-17
   LPB:    3  -0.153301539115971E+00   0.187762407158907E-02   0.215585E-01   0.858076E-01   0.188841E+03  -0.171793E-17
   LPB:    4  -0.153300461842002E+00   0.114902019147632E-02   0.310119E-01   0.241519E+00   0.392734E+03  -0.304001E-16
  Finished solving LPB equations
  A_corr:   -7.241987328660168E-002
 End minimization
 Ecorr=   1999.58690233269     
 A_corr= -7.241987328660168E-002
 Ecorr_band=  -1999.65932220598     
 End Solvation calculations
RMM:   2    -0.181384117940E+03   -0.13005E-02   -0.36346E-04  6999   0.368E-02    0.436E-01
 Begin Solvation calculations
  rms_SCF =   4.499190567856364E-002 tol =   4.499190567856364E-003
 Begin minimization
 Creating dielectric and ionic cavities
  area:      154.066337684780     
  volume:    777.010564669397     
  Acav:     8.088482728450945E-002
  Solving linear dielectric/ionic screening model
[...]
   LPB:    2  -0.153822844496373E+00   0.251468048270420E-03   0.276155E-01   0.622747E-01   0.183093E+06  -0.585868E-19
   LPB:    3  -0.153820301770456E+00   0.550618726843181E-03   0.332612E-01   0.278382E+00   0.724550E+05  -0.261113E-18
   LPB:    4  -0.153819165597930E+00   0.163104704375851E-02   0.358377E-01   0.414709E+00   0.747577E+04   0.295474E-19
   LPB:    5  -0.153818645247904E+00   0.410176332167211E-02   0.322507E-01   0.508923E+00   0.511615E+03   0.384426E-18
   LPB:    6  -0.153818411416683E+00   0.277162782575739E-02   0.179533E-01   0.807237E+00   0.163223E+03   0.121269E-17
   LPB:    7  -0.153818189694118E+00   0.572822770128552E-03   0.277334E-01   0.613832E+00   0.634429E+03   0.227264E-17
   LPB:    8  -0.153818047262728E+00   0.226088908989606E-03   0.384998E-01   0.462743E+00   0.672162E+04   0.211970E-17
   LPB:    9  -0.153817962463060E+00   0.471888460384993E-03   0.391495E-01   0.585491E+00   0.258784E+04   0.254850E-17
   LPB:   10  -0.153817912940627E+00   0.872883889199360E-03   0.340886E-01   0.670695E+00   0.451645E+03   0.125550E-17
   LPB:   11  -0.153817883636061E+00   0.675593984372189E-03   0.249667E-01   0.807944E+00   0.180225E+03   0.124566E-17
   LPB:   12  -0.153817860098887E+00   0.306063243543431E-03   0.305280E-01   0.656873E+00   0.362682E+03   0.579160E-17
   LPB:   13  -0.153817843997214E+00   0.194813360925817E-03   0.360706E-01   0.578978E+00   0.738739E+03   0.971748E-17
   LPB:   14  -0.153817833688361E+00   0.149224670967438E-03   0.349676E-01   0.660431E+00   0.107828E+04   0.174549E-16
  Finished solving LPB equations
  A_corr:   -7.276853333913970E-002
 End minimization
 Ecorr=   1999.52677171430     
 A_corr= -7.276853333913970E-002
 Ecorr_band=  -1999.59954024764     
 End Solvation calculations
DAV:   1    -0.181391795435E+03    0.23642E-04   -0.40624E-03 10905   0.993E-02    0.189E-02
 Begin Solvation calculations
  rms_SCF =   1.837567462270183E-003 tol =   1.837567462270183E-004
 Begin minimization
 Creating dielectric and ionic cavities
  area:      154.378468146186     
  volume:    777.337535980407     
  Acav:     8.104869577674780E-002
  Solving linear dielectric/ionic screening model
        iter                  A_solv                     rms
   LPB:       -0.153845172632089E+00   0.174169616815709E-01
   LPB:    0  -0.153844883593053E+00   0.140223152951963E-01  -0.132051E-03   0.000000E+00   0.331514E+02  -0.437768E-02
   LPB:    1  -0.153843718615452E+00   0.433922292878275E-02   0.115713E-01   0.000000E+00   0.837822E+02  -0.368313E-18
   LPB:    2  -0.153843428176796E+00   0.747295303079414E-03   0.147668E-01   0.195360E+00   0.312790E+03  -0.236450E-17
   LPB:    3  -0.153843358276528E+00   0.831295258970618E-03   0.268035E-01   0.132592E+00   0.450692E+03  -0.236075E-17
   LPB:    4  -0.153843333848025E+00   0.633843704344925E-03   0.214179E-01   0.437354E+00   0.156001E+03  -0.104562E-17
   LPB:    5  -0.153843318156720E+00   0.283585156070698E-03   0.271101E-01   0.507466E+00   0.251832E+03  -0.428056E-17
   LPB:    6  -0.153843309011991E+00   0.173766938578305E-03   0.321410E-01   0.491569E+00   0.528035E+03  -0.694927E-17
  Finished solving LPB equations
  A_corr:   -7.279461323524329E-002
 End minimization
 Ecorr=   1999.54183925997     
 A_corr= -7.279461323524329E-002
 Ecorr_band=  -1999.61463387321     
 End Solvation calculations
RMM:   2    -0.181391817967E+03   -0.22532E-04   -0.14438E-04  5971   0.204E-02
 Begin Solvation calculations
  rms_SCF =   1.837567462270183E-003 tol =   1.837567462270183E-004
 Begin minimization
 Creating dielectric and ionic cavities
  area:      154.379837094992     
  volume:    777.342033119238     
  Acav:     8.104941447487073E-002
  Solving linear dielectric/ionic screening model
        iter                  A_solv                     rms
   LPB:       -0.153833303312013E+00   0.382637336832319E-01
   LPB:    0  -0.153832986148287E+00   0.367648275936883E-01   0.138327E-03   0.000000E+00   0.331512E+02   0.458571E-02
   LPB:    1  -0.153829432228875E+00   0.359824738368241E-02   0.858835E-02   0.000000E+00   0.706891E+02  -0.105186E-18
   LPB:    2  -0.153829115038295E+00   0.558992919122666E-03   0.159906E-01   0.479354E-01   0.122961E+03   0.221235E-17
   LPB:    3  -0.153829075588970E+00   0.362679097209025E-03   0.217398E-01   0.914809E-01   0.289297E+03   0.467219E-17
   LPB:    4  -0.153829063371702E+00   0.445077504898617E-03   0.252131E-01   0.267032E+00   0.168654E+03   0.508582E-17
   LPB:    5  -0.153829057567560E+00   0.276510827620131E-03   0.238381E-01   0.502480E+00   0.125193E+03   0.603136E-17
   LPB:    6  -0.153829053619827E+00   0.126506521949593E-03   0.301205E-01   0.538293E+00   0.262328E+03   0.869303E-17
  Finished solving LPB equations
  A_corr:   -7.277963914495601E-002
 End minimization
 Ecorr=   1999.52312438005     
 A_corr= -7.277963914495601E-002
 Ecorr_band=  -1999.59590401919     
 End Solvation calculations
 205 F= -.18139182E+03 E0= -.18138458E+03  d E =-.375004E-04
quench:  g(F)=  0.000E+00 g(S)=  0.000E+00 dE (1.order)= 0.000E+00
 bond charge predicted
       N       E                     dE             d eps       ncg     rms          rms(c)
 Begin Solvation calculations
  rms_SCF =   1.837567462270183E-003 tol =   1.837567462270183E-004
 Begin minimization
 Creating dielectric and ionic cavities
  area:      154.379904112030     
  volume:    777.341850349244     
  Acav:     8.104944965881582E-002
  Solving linear dielectric/ionic screening model
        iter                  A_solv                     rms
   LPB:       -0.153891035449678E+00   0.742419031010615E-03
   LPB:    0  -0.153891035449663E+00   0.742581630691711E-03   0.299036E-07   0.000000E+00   0.331512E+02   0.991341E-06
   LPB:    1  -0.153838107922560E+00   0.233838180549603E-03   0.155347E-01   0.000000E+00   0.789403E+06  -0.881817E-22
   LPB:    2  -0.153832840210439E+00   0.162321947561377E-03   0.269685E-01   0.573304E-01   0.245636E+06  -0.418921E-18
   LPB:    3  -0.153831113090634E+00   0.235599828115637E-03   0.330904E-01   0.267211E+00   0.950061E+05  -0.418583E-18
   LPB:    4  -0.153830340141092E+00   0.527753260630277E-03   0.361461E-01   0.409704E+00   0.222668E+05   0.269917E-18
   LPB:    5  -0.153829952070104E+00   0.124682706279795E-02   0.368137E-01   0.492960E+00   0.213521E+04   0.299800E-17
   LPB:    6  -0.153829765572880E+00   0.237241280863525E-02   0.308110E-01   0.574202E+00   0.309386E+03   0.644042E-17
   LPB:    7  -0.153829662566308E+00   0.159177542938547E-02   0.206303E-01   0.824886E+00   0.170024E+03   0.766580E-17
   LPB:    8  -0.153829579799205E+00   0.131839203750778E-02   0.271670E-01   0.610177E+00   0.382587E+03   0.144271E-16
   LPB:    9  -0.153829533403004E+00   0.112101612652106E-02   0.228567E-01   0.666273E+00   0.170304E+03   0.168489E-16
   LPB:   10  -0.153829493718639E+00   0.378291908978426E-03   0.272595E-01   0.717189E+00   0.308850E+03   0.140737E-16
   LPB:   11  -0.153829464010920E+00   0.139648077931456E-03   0.380899E-01   0.535745E+00   0.187132E+04   0.111827E-16
  Finished solving LPB equations
  A_corr:   -7.278001435210420E-002
 End minimization
 Ecorr=   1999.52057396498     
 A_corr= -7.278001435210420E-002
 Ecorr_band=  -1999.59335397933     
 End Solvation calculations
DAV:   1    -0.181391838856E+03   -0.43421E-04   -0.30339E-03 10284   0.883E-02    0.491E-02
 Begin Solvation calculations
  rms_SCF =   1.837567462270183E-003 tol =   1.837567462270183E-004
 Begin minimization
 Creating dielectric and ionic cavities
  area:      154.373467935649     
  volume:    777.332036686814     
  Acav:     8.104607066621590E-002
  Solving linear dielectric/ionic screening model
        iter                  A_solv                     rms
   LPB:       -0.154538007094389E+00   0.433771646242398E+00
   LPB:    0  -0.154533637280259E+00   0.431648101088387E+00  -0.513445E-03   0.000000E+00   0.331517E+02  -0.170216E-01
   LPB:    1  -0.154045861224873E+00   0.415166885037503E-01   0.858127E-02   0.000000E+00   0.709713E+02   0.455352E-18
   LPB:    2  -0.154003903807610E+00   0.699296627660262E-02   0.157102E-01   0.469849E-01   0.129386E+03   0.101296E-15
   LPB:    3  -0.153999041437793E+00   0.225230516336680E-02   0.215032E-01   0.846679E-01   0.218547E+03   0.595167E-16
   LPB:    4  -0.153997751398324E+00   0.148388346632241E-02   0.273368E-01   0.208694E+00   0.339316E+03   0.598346E-16
   LPB:    5  -0.153997267700773E+00   0.133382753343660E-02   0.283966E-01   0.360954E+00   0.310889E+03   0.590091E-16
   LPB:    6  -0.153997046297907E+00   0.138110116453119E-02   0.304474E-01   0.426899E+00   0.203953E+03   0.527982E-16
   LPB:    7  -0.153996945706607E+00   0.131221044400176E-02   0.262148E-01   0.527692E+00   0.165014E+03   0.609124E-16
   LPB:    8  -0.153996883791724E+00   0.591577906480149E-03   0.247369E-01   0.652283E+00   0.174854E+03   0.638822E-16
   LPB:    9  -0.153996842324202E+00   0.228643162506914E-03   0.329632E-01   0.502607E+00   0.329353E+03   0.724204E-16
   LPB:   10  -0.153996817723401E+00   0.124119406623122E-03   0.363044E-01   0.538655E+00   0.402161E+03   0.767565E-16
  Finished solving LPB equations
  A_corr:   -7.295074705718509E-002
 End minimization
 Ecorr=   1999.48088701134     
 A_corr= -7.295074705718509E-002
 Ecorr_band=  -1999.55383775840     
 End Solvation calculations
RMM:   2    -0.181394899361E+03   -0.30605E-02   -0.59604E-04  9150   0.462E-02    0.664E-01
 Begin Solvation calculations
  rms_SCF =   1.837567462270183E-003 tol =   1.837567462270183E-004
 Begin minimization
 Creating dielectric and ionic cavities
  area:      154.382763953462     
  volume:    777.338290595799     
  Acav:     8.105095107556762E-002
  Solving linear dielectric/ionic screening model
        iter                  A_solv                     rms
   LPB:       -0.154327003102982E+00   0.416522965595535E+00
   LPB:    0  -0.154324847835395E+00   0.415310723268376E+00   0.360591E-03   0.000000E+00   0.331514E+02   0.119541E-01
   LPB:    1  -0.153874254479537E+00   0.400053281481728E-01   0.857324E-02   0.000000E+00   0.709827E+02  -0.104423E-18
   LPB:    2  -0.153835762729824E+00   0.687336334978713E-02   0.157178E-01   0.465947E-01   0.127896E+03  -0.166323E-15
   LPB:    3  -0.153831433728106E+00   0.220765881501486E-02   0.213253E-01   0.828929E-01   0.204718E+03  -0.171331E-15
   LPB:    4  -0.153830291839990E+00   0.113746256157955E-02   0.273683E-01   0.205533E+00   0.340628E+03  -0.153321E-15
   LPB:    5  -0.153829857478300E+00   0.733150946614052E-03   0.290637E-01   0.358199E+00   0.365263E+03  -0.139214E-15
   LPB:    6  -0.153829657316444E+00   0.371933784534607E-03   0.319669E-01   0.418967E+00   0.354371E+03  -0.137506E-15
   LPB:    7  -0.153829565769191E+00   0.246497652281928E-03   0.339771E-01   0.430307E+00   0.457838E+03  -0.141443E-15
   LPB:    8  -0.153829521902418E+00   0.321000976704846E-03   0.341818E-01   0.476302E+00   0.457193E+03  -0.144263E-15
   LPB:    9  -0.153829499848851E+00   0.494365460018815E-03   0.316971E-01   0.542148E+00   0.293060E+03  -0.146768E-15
   LPB:   10  -0.153829488144132E+00   0.459419353581289E-03   0.259146E-01   0.649169E+00   0.151460E+03  -0.152466E-15
   LPB:   11  -0.153829480108565E+00   0.206352739786003E-03   0.269085E-01   0.661165E+00   0.189933E+03  -0.158616E-15
   LPB:   12  -0.153829474571987E+00   0.839489116526389E-04   0.338433E-01   0.547825E+00   0.384166E+03  -0.160974E-15
  Finished solving LPB equations
  A_corr:   -7.277852349641942E-002
 End minimization
 Ecorr=   1999.55790985751     
 A_corr= -7.277852349641942E-002
 Ecorr_band=  -1999.63068838101     
 End Solvation calculations
RMM:   3    -0.181391892480E+03    0.30069E-02   -0.30916E-04  6926   0.352E-02    0.528E-02
 Begin Solvation calculations
  rms_SCF =   1.837567462270183E-003 tol =   1.837567462270183E-004
 Begin minimization
 Creating dielectric and ionic cavities
  area:      154.377623957055     
  volume:    777.347236852471     
  Acav:     8.104825257745399E-002
  Solving linear dielectric/ionic screening model
        iter                  A_solv                     rms
   LPB:       -0.153823681769419E+00   0.243705147751004E-01
   LPB:    0  -0.153822419643540E+00   0.135296660046098E-01   0.275942E-03   0.000000E+00   0.331510E+02   0.914775E-02
   LPB:    1  -0.153821750949869E+00   0.134411539791245E-02   0.927432E-02   0.000000E+00   0.733465E+02  -0.358595E-18
   LPB:    2  -0.153821704281270E+00   0.773759715373914E-03   0.132169E-01   0.489722E-01   0.250636E+03   0.137259E-16
   LPB:    3  -0.153821693148372E+00   0.454015344140533E-03   0.201461E-01   0.156503E+00   0.868563E+02   0.173624E-16
   LPB:    4  -0.153821687136041E+00   0.143349247924334E-03   0.242524E-01   0.448612E+00   0.403572E+03   0.181845E-16
  Finished solving LPB equations
  A_corr:   -7.277343455858662E-002
 End minimization
 Ecorr=   1999.49180035689     
 A_corr= -7.277343455858662E-002
 Ecorr_band=  -1999.56457379145     
 End Solvation calculations
RMM:   4    -0.181391847478E+03    0.45002E-04   -0.50786E-05  5919   0.154E-02
 Begin Solvation calculations
  rms_SCF =   1.837567462270183E-003 tol =   1.837567462270183E-004
 Begin minimization
 Creating dielectric and ionic cavities
  area:      154.377608527050     
  volume:    777.341236913005     
  Acav:     8.104824447670150E-002
  Solving linear dielectric/ionic screening model
        iter                  A_solv                     rms
   LPB:       -0.153833480966832E+00   0.153548724312390E-01
   LPB:    0  -0.153832891830026E+00   0.595906563675453E-02  -0.188527E-03   0.000000E+00   0.331512E+02  -0.624990E-02
   LPB:    1  -0.153832704757204E+00   0.856829610721815E-03   0.107933E-01   0.000000E+00   0.619988E+02  -0.411438E-18
   LPB:    2  -0.153832674893828E+00   0.690436633324796E-03   0.179532E-01   0.959710E-01   0.267945E+03   0.229596E-16
   LPB:    3  -0.153832666335879E+00   0.579611629028163E-03   0.184266E-01   0.279207E+00   0.111662E+03   0.271425E-16
   LPB:    4  -0.153832658716046E+00   0.204433554343461E-03   0.273002E-01   0.600975E+00   0.333855E+03   0.286640E-16
   LPB:    5  -0.153832653233362E+00   0.100824813761371E-03   0.336730E-01   0.583352E+00   0.762932E+03   0.306035E-16
  Finished solving LPB equations
  A_corr:   -7.278440875666042E-002
 End minimization
 Ecorr=   1999.52940310264     
 A_corr= -7.278440875666042E-002
 Ecorr_band=  -1999.60218751139     
 End Solvation calculations
 206 F= -.18139185E+03 E0= -.18138463E+03  d E =-.295113E-04
quench:  g(F)=  0.000E+00 g(S)=  0.000E+00 dE (1.order)= 0.000E+00
 bond charge predicted
       N       E                     dE             d eps       ncg     rms          rms(c)
 Begin Solvation calculations
  rms_SCF =   1.837567462270183E-003 tol =   1.837567462270183E-004
 Begin minimization
 Creating dielectric and ionic cavities
  area:      154.381976742917     
  volume:    777.342202886972     
  Acav:     8.105053779003121E-002
  Solving linear dielectric/ionic screening model
        iter                  A_solv                     rms
   LPB:       -0.153912772333227E+00   0.905711953667132E-03
   LPB:    0  -0.153912772332697E+00   0.906153658840080E-03   0.178791E-06   0.000000E+00   0.331512E+02   0.592715E-05
   LPB:    1  -0.153842042071994E+00   0.323178393872216E-03   0.157077E-01   0.000000E+00   0.696671E+06  -0.278675E-21
   LPB:    2  -0.153834099635586E+00   0.234647304281057E-03   0.277143E-01   0.636442E-01   0.172807E+06   0.172330E-18
   LPB:    3  -0.153831432024391E+00   0.447950659511247E-03   0.332481E-01   0.279966E+00   0.782656E+05   0.159853E-18
   LPB:    4  -0.153830240122600E+00   0.113006224445454E-02   0.359229E-01   0.413536E+00   0.101617E+05  -0.741613E-18
   LPB:    5  -0.153829666909289E+00   0.292184991222867E-02   0.348154E-01   0.496220E+00   0.911799E+03  -0.714736E-18
   LPB:    6  -0.153829422517035E+00   0.341524906663852E-02   0.221324E-01   0.670679E+00   0.176220E+03   0.274070E-17
   LPB:    7  -0.153829226446234E+00   0.140155882288150E-02   0.221260E-01   0.802511E+00   0.304028E+03   0.844243E-17
   LPB:    8  -0.153829097461843E+00   0.163892739597398E-02   0.303323E-01   0.479868E+00   0.322340E+03  -0.122108E-17
   LPB:    9  -0.153829022395450E+00   0.108003359989791E-02   0.233701E-01   0.755360E+00   0.165033E+03  -0.620666E-17
   LPB:   10  -0.153828958296102E+00   0.345021361503972E-03   0.316403E-01   0.630706E+00   0.475504E+03  -0.286341E-17
   LPB:   11  -0.153828914284366E+00   0.130624418178567E-03   0.387888E-01   0.560080E+00   0.245334E+04   0.233700E-17
  Finished solving LPB equations
  A_corr:   -7.277837649433522E-002
 End minimization
 Ecorr=   1999.53009289279     
 A_corr= -7.277837649433522E-002
 Ecorr_band=  -1999.60287126928     
 End Solvation calculations
DAV:   1    -0.181391857857E+03    0.34624E-04   -0.41273E-03 10944   0.102E-01    0.199E-02
 Begin Solvation calculations
  rms_SCF =   1.837567462270183E-003 tol =   1.837567462270183E-004
 Begin minimization
 Creating dielectric and ionic cavities
  area:      154.379350673329     
  volume:    777.347196298467     
  Acav:     8.104915910349787E-002
  Solving linear dielectric/ionic screening model
        iter                  A_solv                     rms
   LPB:       -0.153843136870234E+00   0.169168010044560E-01
   LPB:    0  -0.153842755816379E+00   0.134048981119565E-01   0.151621E-03   0.000000E+00   0.331510E+02   0.502639E-02
   LPB:    1  -0.153841764035286E+00   0.351607572879355E-02   0.107680E-01   0.000000E+00   0.927935E+02  -0.118200E-18
   LPB:    2  -0.153841546823781E+00   0.680224918415020E-03   0.152765E-01   0.154375E+00   0.407468E+03   0.739365E-17
   LPB:    3  -0.153841485981742E+00   0.785809176154766E-03   0.258392E-01   0.165602E+00   0.383783E+03   0.845528E-17
   LPB:    4  -0.153841460263156E+00   0.712648016127146E-03   0.238976E-01   0.457054E+00   0.172953E+03   0.733807E-17
   LPB:    5  -0.153841443214385E+00   0.366736037881976E-03   0.270724E-01   0.585159E+00   0.184884E+03   0.775666E-17
   LPB:    6  -0.153841430782191E+00   0.178876119096428E-03   0.340373E-01   0.579998E+00   0.703073E+03   0.760970E-17
  Finished solving LPB equations
  A_corr:   -7.279227167869322E-002
 End minimization
 Ecorr=   1999.48214397790     
 A_corr= -7.279227167869322E-002
 Ecorr_band=  -1999.55493624958     
 End Solvation calculations
RMM:   2    -0.181391892174E+03   -0.34318E-04   -0.14529E-04  6010   0.214E-02
 Begin Solvation calculations
  rms_SCF =   1.837567462270183E-003 tol =   1.837567462270183E-004
 Begin minimization
 Creating dielectric and ionic cavities
  area:      154.381821642080     
  volume:    777.340271755467     
  Acav:     8.105045636209186E-002
  Solving linear dielectric/ionic screening model
        iter                  A_solv                     rms
   LPB:       -0.153862349558090E+00   0.310765669898863E-01
   LPB:    0  -0.153861561181373E+00   0.263826675515609E-01  -0.218088E-03   0.000000E+00   0.331513E+02  -0.722990E-02
   LPB:    1  -0.153859679491867E+00   0.271958382105764E-02   0.867025E-02   0.000000E+00   0.695801E+02   0.116941E-19
   LPB:    2  -0.153859501885369E+00   0.639402917069229E-03   0.160596E-01   0.509574E-01   0.114153E+03  -0.364132E-17
   LPB:    3  -0.153859478629720E+00   0.516645498310656E-03   0.195298E-01   0.107673E+00   0.213724E+03  -0.311626E-17
   LPB:    4  -0.153859469388134E+00   0.377405536734232E-03   0.231242E-01   0.335621E+00   0.122666E+03  -0.768437E-17
   LPB:    5  -0.153859463328636E+00   0.176212410893981E-03   0.295216E-01   0.513589E+00   0.186310E+03  -0.621185E-17
  Finished solving LPB equations
  A_corr:   -7.280900696654437E-002
 End minimization
 Ecorr=   1999.52223922365     
 A_corr= -7.280900696654437E-002
 Ecorr_band=  -1999.59504823062     
 End Solvation calculations
