 vasp.5.4.4.18Apr17-6-g9f103f2a35 (build Feb 06 2024 13:54:16) complex          
  
 POSCAR found type information on POSCAR  Cu Ni Cu N  O 
 04/POSCAR found :  5 types and      40 ions
 scaLAPACK will be used

 ----------------------------------------------------------------------------- 
|                                                                             |
|  ADVICE TO THIS USER RUNNING 'VASP/VAMP'   (HEAR YOUR MASTER'S VOICE ...):  |
|                                                                             |
|      You enforced a specific xc-type in the INCAR file,                     |
|      a different type was found on the POTCAR file                          |
|          I HOPE YOU KNOW, WHAT YOU ARE  DOING                               |
|                                                                             |
 ----------------------------------------------------------------------------- 

 LDA part: xc-table for Pade appr. of Perdew
 POSCAR found type information on POSCAR  Cu Ni Cu N  O 
 00/POSCAR found :  5 types and      40 ions
 POSCAR found type information on POSCAR  Cu Ni Cu N  O 
 06/POSCAR found :  5 types and      40 ions
 Jacobian:    19.9537150754471     
 POSCAR, INCAR and KPOINTS ok, starting setup
 FFT: planning ...
 WAVECAR not read
 entering main loop
       N       E                     dE             d eps       ncg     rms          rms(c)
  Solvation turned off during non-self-consistent phase (first NELMDL steps)
DAV:   1     0.423694285396E+04    0.42369E+04   -0.18047E+05 12096   0.211E+03
DAV:   2     0.621012234963E+03   -0.36159E+04   -0.34895E+04 12114   0.475E+02
DAV:   3    -0.383229456110E+02   -0.65934E+03   -0.60950E+03 13806   0.237E+02
DAV:   4    -0.152615783041E+03   -0.11429E+03   -0.99167E+02 21186   0.942E+01
DAV:   5    -0.166298359552E+03   -0.13683E+02   -0.13276E+02 18612   0.320E+01    0.457E+01
 Begin Solvation calculations
  rms_SCF =    8.17973560547454      tol =   0.817973560547454     
 Begin minimization
 Creating dielectric and ionic cavities
  area:      148.671125180113     
  volume:    642.853614288188     
  Acav:     7.805234071955909E-002
  Solving linear dielectric/ionic screening model
        iter                  A_solv                     rms
   LPB:       -0.391622358171161E+03   0.285787924343366E+03
   LPB:    0  -0.118737498049458E+02   0.537566872991405E+02  -0.513957E+01   0.000000E+00   0.287523E+02  -0.147775E+03
   LPB:    1  -0.189934256585593E+01   0.765626744071398E+01   0.975588E-02   0.000000E+00   0.704128E+02  -0.426791E-14
   LPB:    2  -0.651466971946036E+00   0.122243512410722E+01   0.137884E-01   0.885191E-01   0.283399E+03  -0.937634E-14
   LPB:    3  -0.413042144397764E+00   0.161245882928694E+01   0.254374E-01   0.103567E+00   0.559138E+03   0.967524E-14
   LPB:    4  -0.340481898685425E+00   0.107294015798721E+01   0.225332E-01   0.343556E+00   0.684516E+02   0.140962E-13
   LPB:    5  -0.300085115598790E+00   0.560819120946757E+00   0.240651E-01   0.521293E+00   0.433201E+03   0.190926E-13
  Finished solving LPB equations
  A_corr:   -0.222032774879231     
 End minimization
 Ecorr=   2004.37054972627     
 A_corr= -0.222032774879231     
 Ecorr_band=  -2004.59258250115     
 End Solvation calculations
RMM:   6    -0.164232662917E+03    0.20657E+01   -0.38216E+02 12224   0.986E+01    0.389E+01
 Begin Solvation calculations
  rms_SCF =    8.17973560547454      tol =   0.817973560547454     
 Begin minimization
 Creating dielectric and ionic cavities
  area:      168.519837590231     
  volume:    664.449555957496     
  Acav:     8.847291473487116E-002
  Solving linear dielectric/ionic screening model
        iter                  A_solv                     rms
   LPB:       -0.362804540655462E+02   0.114297754748914E+03
   LPB:    0  -0.336921472148639E+02   0.110422925688839E+03   0.431987E+00   0.000000E+00   0.277399E+02   0.119833E+02
   LPB:    1  -0.316248630259827E+01   0.983917197502878E+01   0.896524E-02   0.000000E+00   0.620886E+02   0.171676E-15
   LPB:    2  -0.776982358247707E+00   0.237908222211723E+01   0.151188E-01   0.463343E-01   0.144099E+03   0.531850E-14
   LPB:    3  -0.435316678234457E+00   0.133506841081907E+01   0.231888E-01   0.933816E-01   0.128586E+03   0.885367E-14
   LPB:    4  -0.341137964008212E+00   0.117689873533347E+01   0.230609E-01   0.277175E+00   0.233496E+03   0.237917E-13
   LPB:    5  -0.296659665760082E+00   0.540266506041281E+00   0.238253E-01   0.457122E+00   0.115278E+03   0.277118E-13
  Finished solving LPB equations
  A_corr:   -0.208186751025211     
 End minimization
 Ecorr=   1874.35110112619     
 A_corr= -0.208186751025211     
 Ecorr_band=  -1874.55928787721     
 End Solvation calculations
RMM:   7    -0.162190183934E+03    0.20425E+01   -0.92324E+01 12343   0.473E+01    0.320E+01
 Begin Solvation calculations
  rms_SCF =    8.17973560547454      tol =   0.817973560547454     
 Begin minimization
 Creating dielectric and ionic cavities
  area:      193.976174004399     
  volume:    662.875450046166     
  Acav:     0.101837491352309     
  Solving linear dielectric/ionic screening model
        iter                  A_solv                     rms
   LPB:       -0.101346471054923E+02   0.609992733875450E+02
   LPB:    0  -0.101298489665783E+02   0.609784265240337E+02  -0.185747E-01   0.000000E+00   0.278137E+02  -0.516631E+00
   LPB:    1  -0.101492710700897E+01   0.559679243292389E+01   0.890787E-02   0.000000E+00   0.617795E+02  -0.206808E-16
   LPB:    2  -0.279713616439256E+00   0.941488240593777E+00   0.155545E-01   0.461933E-01   0.128250E+03  -0.150341E-14
   LPB:    3  -0.176511655975299E+00   0.414260073643543E+00   0.226406E-01   0.964365E-01   0.247877E+03  -0.982263E-15
   LPB:    4  -0.154719934676832E+00   0.195182191822305E+00   0.256818E-01   0.186152E+00   0.263953E+03   0.459105E-14
  Finished solving LPB equations
  A_corr:   -5.288244332452263E-002
 End minimization
 Ecorr=   1863.86276465817     
 A_corr= -5.288244332452263E-002
 Ecorr_band=  -1863.91564710150     
 End Solvation calculations
RMM:   8    -0.140962278973E+03    0.21228E+02   -0.85768E+00 12275   0.128E+01    0.165E+01
 Begin Solvation calculations
  rms_SCF =    5.39313562710162      tol =   0.539313562710162     
 Begin minimization
 Creating dielectric and ionic cavities
  area:      167.636991574702     
  volume:    661.420958125626     
  Acav:     8.800942057671873E-002
  Solving linear dielectric/ionic screening model
        iter                  A_solv                     rms
   LPB:       -0.463163097613443E+00   0.103410447058550E+02
   LPB:    0  -0.449864787475524E+00   0.994083124456044E+01  -0.308853E-01   0.000000E+00   0.278819E+02  -0.861141E+00
   LPB:    1  -0.194458193919687E+00   0.108141347145143E+01   0.906638E-02   0.000000E+00   0.611920E+02  -0.157695E-16
   LPB:    2  -0.161990450892818E+00   0.250736760112378E+00   0.182957E-01   0.629950E-01   0.951928E+02  -0.234115E-14
   LPB:    3  -0.154767731210193E+00   0.247053901368671E+00   0.237495E-01   0.171373E+00   0.308695E+03  -0.835422E-14
   LPB:    4  -0.150284979881462E+00   0.241120013282189E+00   0.358107E-01   0.411609E+00   0.520932E+02  -0.984649E-14
  Finished solving LPB equations
  A_corr:   -6.227555930474304E-002
 End minimization
 Ecorr=   1846.20986645649     
 A_corr= -6.227555930474304E-002
 Ecorr_band=  -1846.27214201579     
 End Solvation calculations
RMM:   9    -0.138406490287E+03    0.25558E+01   -0.50551E+00 12334   0.823E+00    0.777E+00
 Begin Solvation calculations
  rms_SCF =    5.39313562710162      tol =   0.539313562710162     
 Begin minimization
 Creating dielectric and ionic cavities
  area:      160.307788347239     
  volume:    659.623259178799     
  Acav:     8.416158888230038E-002
  Solving linear dielectric/ionic screening model
        iter                  A_solv                     rms
   LPB:       -0.108211529971284E+01   0.180796056715419E+02
   LPB:    0  -0.107951636939445E+01   0.180905232591363E+02   0.136331E-01   0.000000E+00   0.279661E+02   0.381266E+00
   LPB:    1  -0.265104779562122E+00   0.174554581374534E+01   0.901167E-02   0.000000E+00   0.612294E+02  -0.176228E-16
   LPB:    2  -0.185301129617853E+00   0.310316149768863E+00   0.160595E-01   0.549858E-01   0.131745E+03  -0.127527E-14
   LPB:    3  -0.170694728356502E+00   0.205337809995668E+00   0.246746E-01   0.119125E+00   0.289276E+03  -0.663497E-14
   LPB:    4  -0.165467113821136E+00   0.112220517629892E+00   0.317277E-01   0.278338E+00   0.145636E+03  -0.778254E-14
  Finished solving LPB equations
  A_corr:   -8.130552493883572E-002
 End minimization
 Ecorr=   1826.48929381165     
 A_corr= -8.130552493883572E-002
 Ecorr_band=  -1826.57059933659     
 End Solvation calculations
RMM:  10    -0.136888155816E+03    0.15183E+01   -0.19456E+00 12519   0.443E+00    0.664E+00
 Begin Solvation calculations
  rms_SCF =    2.87626941752876      tol =   0.287626941752876     
 Begin minimization
 Creating dielectric and ionic cavities
  area:      145.471370618472     
  volume:    655.365937183788     
  Acav:     7.637246957469786E-002
  Solving linear dielectric/ionic screening model
        iter                  A_solv                     rms
   LPB:       -0.398442647902349E+00   0.601672722724240E+01
   LPB:    0  -0.390419180889303E+00   0.541097105701259E+01  -0.238691E-01   0.000000E+00   0.281657E+02  -0.672290E+00
   LPB:    1  -0.240392492237190E+00   0.150927067636161E+01   0.115987E-01   0.000000E+00   0.678639E+02   0.420707E-16
   LPB:    2  -0.213447100818325E+00   0.307078398934401E+00   0.143802E-01   0.144865E+00   0.173814E+03  -0.974268E-15
   LPB:    3  -0.202767177851550E+00   0.375410419034467E+00   0.283473E-01   0.201065E+00   0.333389E+03   0.878532E-15
   LPB:    4  -0.197729703304962E+00   0.331620440506697E+00   0.260657E-01   0.512965E+00   0.574688E+02   0.165801E-14
   LPB:    5  -0.193813228193179E+00   0.201955752966726E+00   0.278688E-01   0.727166E+00   0.217337E+03   0.394252E-14
  Finished solving LPB equations
  A_corr:   -0.117440758618481     
 End minimization
 Ecorr=   1799.78343566765     
 A_corr= -0.117440758618481     
 Ecorr_band=  -1799.90087642627     
 End Solvation calculations
RMM:  11    -0.136403979693E+03    0.48418E+00   -0.10250E+00 12376   0.295E+00    0.609E+00
 Begin Solvation calculations
  rms_SCF =    1.32269943245642      tol =   0.132269943245642     
 Begin minimization
 Creating dielectric and ionic cavities
  area:      139.831776498053     
  volume:    652.582516027922     
  Acav:     7.341168266147793E-002
  Solving linear dielectric/ionic screening model
        iter                  A_solv                     rms
   LPB:       -0.290136640340699E+00   0.384401154959835E+01
   LPB:    0  -0.277947775429640E+00   0.274619043890898E+01  -0.293516E-01   0.000000E+00   0.282962E+02  -0.830541E+00
   LPB:    1  -0.226766239185835E+00   0.878511151753763E+00   0.123894E-01   0.000000E+00   0.707491E+02  -0.489206E-17
   LPB:    2  -0.218964939752427E+00   0.205581616630893E+00   0.136545E-01   0.138302E+00   0.175804E+03  -0.745835E-15
   LPB:    3  -0.216087881299463E+00   0.290367181954108E+00   0.267513E-01   0.188240E+00   0.256961E+03  -0.628991E-15
   LPB:    4  -0.213430637796785E+00   0.268889703021568E+00   0.303632E-01   0.813730E+00   0.408468E+02  -0.616995E-15
   LPB:    5  -0.210496005922067E+00   0.129669423436804E+00   0.334168E-01   0.100347E+01   0.106204E+03   0.143911E-14
  Finished solving LPB equations
  A_corr:   -0.137084323260589     
 End minimization
 Ecorr=   1784.21107847608     
 A_corr= -0.137084323260589     
 Ecorr_band=  -1784.34816279934     
 End Solvation calculations
RMM:  12    -0.136148721956E+03    0.25526E+00   -0.45054E-01 12283   0.203E+00    0.356E+00
 Begin Solvation calculations
  rms_SCF =    1.32269943245642      tol =   0.132269943245642     
 Begin minimization
 Creating dielectric and ionic cavities
  area:      129.439527353986     
  volume:    647.868590898359     
  Acav:     6.795575186084241E-002
  Solving linear dielectric/ionic screening model
        iter                  A_solv                     rms
   LPB:       -0.686501783707719E+00   0.847329598711166E+01
   LPB:    0  -0.672623770218113E+00   0.777540770335326E+01  -0.311979E-01   0.000000E+00   0.285172E+02  -0.889677E+00
   LPB:    1  -0.355610269042778E+00   0.220656265572752E+01   0.112859E-01   0.000000E+00   0.760546E+02   0.259832E-16
   LPB:    2  -0.305719974411387E+00   0.359110792490000E+00   0.133939E-01   0.132607E+00   0.187792E+03  -0.122051E-13
   LPB:    3  -0.292733642571370E+00   0.356742631265713E+00   0.250455E-01   0.139203E+00   0.339056E+03  -0.132443E-13
   LPB:    4  -0.287399968066624E+00   0.327980741726075E+00   0.259863E-01   0.395846E+00   0.736695E+02  -0.136357E-13
   LPB:    5  -0.283446635247071E+00   0.234654143106760E+00   0.272796E-01   0.706061E+00   0.261843E+03  -0.123219E-13
   LPB:    6  -0.280336644601989E+00   0.980666475915644E-01   0.353565E-01   0.606966E+00   0.641242E+02  -0.105055E-13
  Finished solving LPB equations
  A_corr:   -0.212380892741147     
 End minimization
 Ecorr=   1753.28820307563     
 A_corr= -0.212380892741147     
 Ecorr_band=  -1753.50058396837     
 End Solvation calculations
RMM:  13    -0.136072261526E+03    0.76460E-01   -0.35050E-01 12266   0.192E+00    0.355E+00
 Begin Solvation calculations
  rms_SCF =    1.32269943245642      tol =   0.132269943245642     
 Begin minimization
 Creating dielectric and ionic cavities
  area:      128.766270707181     
  volume:    645.690264384031     
  Acav:     6.760229212126978E-002
  Solving linear dielectric/ionic screening model
        iter                  A_solv                     rms
   LPB:       -0.425631947658161E+00   0.344887609055064E+01
   LPB:    0  -0.419305731042359E+00   0.278820900586140E+01  -0.210260E-01   0.000000E+00   0.286193E+02  -0.601751E+00
   LPB:    1  -0.338666873283745E+00   0.133364819235262E+01   0.133421E-01   0.000000E+00   0.101119E+03   0.442252E-16
   LPB:    2  -0.327416171373203E+00   0.264763480909798E+00   0.127654E-01   0.145822E+00   0.113025E+03  -0.445447E-14
   LPB:    3  -0.323546955828336E+00   0.166532316816876E+00   0.227906E-01   0.192629E+00   0.215416E+03  -0.556914E-14
   LPB:    4  -0.321258340246145E+00   0.229810964790459E+00   0.345909E-01   0.389712E+00   0.648509E+02  -0.612381E-14
   LPB:    5  -0.319040426006317E+00   0.221436910120806E+00   0.299726E-01   0.111843E+01   0.177477E+03  -0.725022E-14
   LPB:    6  -0.317097331470079E+00   0.100233475639197E+00   0.328216E-01   0.800044E+00   0.405585E+02  -0.900643E-14
  Finished solving LPB equations
  A_corr:   -0.249495039348810     
 End minimization
 Ecorr=   1732.98454223979     
 A_corr= -0.249495039348810     
 Ecorr_band=  -1733.23403727914     
 End Solvation calculations
RMM:  14    -0.135989249128E+03    0.83012E-01   -0.19856E-01 12264   0.180E+00    0.184E+00
 Begin Solvation calculations
  rms_SCF =   0.977465268745859      tol =   9.774652687458590E-002
 Begin minimization
 Creating dielectric and ionic cavities
  area:      129.369389598132     
  volume:    646.072430818577     
  Acav:     6.791892953901904E-002
  Solving linear dielectric/ionic screening model
        iter                  A_solv                     rms
   LPB:       -0.330308749217881E+00   0.149595896934295E+01
   LPB:    0  -0.329600845353169E+00   0.142113356468755E+01   0.703572E-02   0.000000E+00   0.286014E+02   0.201231E+00
   LPB:    1  -0.320089423821542E+00   0.378543658374421E+00   0.119942E-01   0.000000E+00   0.651259E+02  -0.994809E-17
   LPB:    2  -0.317891808099948E+00   0.106320971196709E+00   0.148074E-01   0.187153E+00   0.202931E+03   0.688158E-16
   LPB:    3  -0.317138029776764E+00   0.109255006574436E+00   0.279871E-01   0.181474E+00   0.971395E+02   0.513928E-15
   LPB:    4  -0.316505692419284E+00   0.136126833030112E+00   0.343099E-01   0.684295E+00   0.283447E+03   0.860074E-15
   LPB:    5  -0.315957840908035E+00   0.651223929840139E-01   0.292456E-01   0.101642E+01   0.682902E+02   0.751101E-15
  Finished solving LPB equations
  A_corr:   -0.248038911369016     
 End minimization
 Ecorr=   1726.43171312321     
 A_corr= -0.248038911369016     
 Ecorr_band=  -1726.67975203458     
 End Solvation calculations
RMM:  15    -0.135988571548E+03    0.67758E-03   -0.65417E-02 12252   0.769E-01    0.801E-01
 Begin Solvation calculations
  rms_SCF =   0.543769227778800      tol =   5.437692277788001E-002
 Begin minimization
 Creating dielectric and ionic cavities
  area:      129.764049985933     
  volume:    644.434340515375     
  Acav:     6.812612624261463E-002
  Solving linear dielectric/ionic screening model
        iter                  A_solv                     rms
   LPB:       -0.455432689109876E+00   0.294477458605492E+01
   LPB:    0  -0.448282112506494E+00   0.203227597885488E+01  -0.223311E-01   0.000000E+00   0.286782E+02  -0.640415E+00
   LPB:    1  -0.375201134855034E+00   0.128620371106044E+01   0.149825E-01   0.000000E+00   0.121029E+03   0.144437E-16
   LPB:    2  -0.365726386595800E+00   0.330336379936781E+00   0.132103E-01   0.147039E+00   0.787996E+02  -0.599653E-14
   LPB:    3  -0.362012151941794E+00   0.164356050012150E+00   0.212514E-01   0.243684E+00   0.202427E+03  -0.681733E-14
   LPB:    4  -0.360279244869403E+00   0.180500803279416E+00   0.272812E-01   0.363437E+00   0.907295E+02  -0.676642E-14
   LPB:    5  -0.359217705370760E+00   0.155542938464651E+00   0.247252E-01   0.675904E+00   0.231673E+03  -0.637726E-14
   LPB:    6  -0.358305393622811E+00   0.623759184986087E-01   0.343740E-01   0.618183E+00   0.551868E+02  -0.682476E-14
   LPB:    7  -0.357594695116528E+00   0.402885459370133E-01   0.378529E-01   0.707413E+00   0.155617E+03  -0.846141E-14
  Finished solving LPB equations
  A_corr:   -0.289468568873913     
 End minimization
 Ecorr=   1709.49812873833     
 A_corr= -0.289468568873913     
 Ecorr_band=  -1709.78759730721     
 End Solvation calculations
RMM:  16    -0.135984080715E+03    0.44908E-02   -0.40995E-02 12320   0.726E-01    0.605E-01
 Begin Solvation calculations
  rms_SCF =   0.427782296138489      tol =   4.277822961384890E-002
 Begin minimization
 Creating dielectric and ionic cavities
  area:      130.130911371562     
  volume:    643.649291739067     
  Acav:     6.831872847007019E-002
  Solving linear dielectric/ionic screening model
        iter                  A_solv                     rms
   LPB:       -0.407110151669271E+00   0.178038123969417E+01
   LPB:    0  -0.404508796612130E+00   0.124573358234004E+01  -0.134605E-01   0.000000E+00   0.287150E+02  -0.386518E+00
   LPB:    1  -0.386059959364125E+00   0.710096486575477E+00   0.136976E-01   0.000000E+00   0.988758E+02  -0.225449E-16
   LPB:    2  -0.383101192563983E+00   0.135827244151194E+00   0.131394E-01   0.167190E+00   0.884103E+02  -0.287634E-14
   LPB:    3  -0.382170423665009E+00   0.978237190850938E-01   0.215703E-01   0.191624E+00   0.226371E+03  -0.348410E-14
   LPB:    4  -0.381777470800334E+00   0.100815966596522E+00   0.262610E-01   0.346771E+00   0.665447E+02  -0.368633E-14
   LPB:    5  -0.381324696744344E+00   0.964396316062133E-01   0.345181E-01   0.876609E+00   0.175639E+03  -0.401510E-14
   LPB:    6  -0.380759069313271E+00   0.422778050924085E-01   0.435588E-01   0.989964E+00   0.351649E+02  -0.439886E-14
  Finished solving LPB equations
  A_corr:   -0.312440340843201     
 End minimization
 Ecorr=   1699.68059972611     
 A_corr= -0.312440340843201     
 Ecorr_band=  -1699.99304006695     
 End Solvation calculations
RMM:  17    -0.135979332752E+03    0.47480E-02   -0.11941E-02 12410   0.368E-01    0.508E-01
 Begin Solvation calculations
  rms_SCF =   0.372315751111682      tol =   3.723157511116819E-002
 Begin minimization
 Creating dielectric and ionic cavities
  area:      130.370307142085     
  volume:    643.061543696060     
  Acav:     6.844441124959474E-002
  Solving linear dielectric/ionic screening model
        iter                  A_solv                     rms
   LPB:       -0.444956760037355E+00   0.207231222259390E+01
   LPB:    0  -0.440871230608286E+00   0.137181362220369E+01  -0.168607E-01   0.000000E+00   0.287426E+02  -0.484621E+00
   LPB:    1  -0.416151101633837E+00   0.873356666407407E+00   0.139216E-01   0.000000E+00   0.102880E+03   0.358103E-16
   LPB:    2  -0.412120784169659E+00   0.152703058357372E+00   0.129314E-01   0.175522E+00   0.758072E+02  -0.136064E-15
   LPB:    3  -0.411079006953902E+00   0.102400880375086E+00   0.201095E-01   0.166219E+00   0.230078E+03  -0.339344E-15
   LPB:    4  -0.410594234385520E+00   0.101551016041008E+00   0.276018E-01   0.339022E+00   0.683190E+02  -0.348381E-15
   LPB:    5  -0.410175137163188E+00   0.899734902020131E-01   0.295241E-01   0.808234E+00   0.190760E+03  -0.675055E-15
   LPB:    6  -0.409764826431369E+00   0.389730956640105E-01   0.367742E-01   0.786016E+00   0.458956E+02  -0.132087E-14
   LPB:    7  -0.409459209161361E+00   0.213321685379524E-01   0.372402E-01   0.735522E+00   0.128796E+03  -0.174080E-14
  Finished solving LPB equations
  A_corr:   -0.341014797911766     
 End minimization
 Ecorr=   1689.39356071787     
 A_corr= -0.341014797911766     
 Ecorr_band=  -1689.73457551578     
 End Solvation calculations
RMM:  18    -0.135977067331E+03    0.22654E-02   -0.70404E-03 12475   0.160E-01    0.343E-01
 Begin Solvation calculations
  rms_SCF =   0.368690607005315      tol =   3.686906070053154E-002
 Begin minimization
 Creating dielectric and ionic cavities
  area:      131.098562213584     
  volume:    642.218628315921     
  Acav:     6.882674516213157E-002
  Solving linear dielectric/ionic screening model
        iter                  A_solv                     rms
   LPB:       -0.617317636183622E+00   0.412262704006791E+01
   LPB:    0  -0.601804114060755E+00   0.271118483347943E+01  -0.328329E-01   0.000000E+00   0.287821E+02  -0.944999E+00
   LPB:    1  -0.499979597445774E+00   0.180442493190801E+01   0.143654E-01   0.000000E+00   0.986494E+02   0.674200E-16
   LPB:    2  -0.483204777381414E+00   0.319613857194771E+00   0.128625E-01   0.183991E+00   0.712745E+02   0.106558E-13
   LPB:    3  -0.478679011839378E+00   0.220701981987885E+00   0.205872E-01   0.168563E+00   0.248903E+03   0.124065E-13
   LPB:    4  -0.476911559974046E+00   0.182247084260484E+00   0.238064E-01   0.337722E+00   0.779678E+02   0.129934E-13
   LPB:    5  -0.475724234920742E+00   0.136760636005655E+00   0.265146E-01   0.603157E+00   0.249552E+03   0.150257E-13
   LPB:    6  -0.474732987136505E+00   0.503905516791025E-01   0.358444E-01   0.617556E+00   0.640720E+02   0.176166E-13
   LPB:    7  -0.474021666385370E+00   0.300694888434990E-01   0.374579E-01   0.686691E+00   0.149284E+03   0.198033E-13
  Finished solving LPB equations
  A_corr:   -0.405194921223238     
 End minimization
 Ecorr=   1670.36369289304     
 A_corr= -0.405194921223238     
 Ecorr_band=  -1670.76888781426     
 End Solvation calculations
RMM:  19    -0.135985377893E+03   -0.83106E-02   -0.20326E-02 12245   0.295E-01    0.327E-01
 Begin Solvation calculations
  rms_SCF =   0.368690607005315      tol =   3.686906070053154E-002
 Begin minimization
 Creating dielectric and ionic cavities
  area:      131.580053500616     
  volume:    642.332435867393     
  Acav:     6.907952808782331E-002
  Solving linear dielectric/ionic screening model
        iter                  A_solv                     rms
   LPB:       -0.528398451937003E+00   0.163623834716300E+01
   LPB:    0  -0.526428618826495E+00   0.113088084671818E+01  -0.117006E-01   0.000000E+00   0.287768E+02  -0.336706E+00
   LPB:    1  -0.505517208642781E+00   0.593666330822867E+00   0.169848E-01   0.000000E+00   0.809699E+02   0.307496E-17
   LPB:    2  -0.503078263282875E+00   0.207412664389649E+00   0.133575E-01   0.148304E+00   0.707515E+02   0.325895E-14
   LPB:    3  -0.502183810392229E+00   0.119275546255899E+00   0.204866E-01   0.239118E+00   0.220291E+03   0.318580E-14
   LPB:    4  -0.501650456300953E+00   0.120226528203876E+00   0.282522E-01   0.432389E+00   0.573693E+02   0.301186E-14
   LPB:    5  -0.501032942480246E+00   0.102897837977214E+00   0.335245E-01   0.975712E+00   0.146470E+03   0.255256E-14
   LPB:    6  -0.500370363865194E+00   0.429736043045774E-01   0.356164E-01   0.100996E+01   0.463230E+02   0.174514E-14
   LPB:    7  -0.499964963490471E+00   0.204389931646278E-01   0.328355E-01   0.663672E+00   0.144755E+03   0.158024E-14
  Finished solving LPB equations
  A_corr:   -0.430885435402648     
 End minimization
 Ecorr=   1656.92889954214     
 A_corr= -0.430885435402648     
 Ecorr_band=  -1657.35978497754     
 End Solvation calculations
RMM:  20    -0.135987937784E+03   -0.25599E-02   -0.38314E-03 12225   0.196E-01    0.267E-01
 Begin Solvation calculations
  rms_SCF =   0.368690607005315      tol =   3.686906070053154E-002
 Begin minimization
 Creating dielectric and ionic cavities
  area:      131.834637966840     
  volume:    642.461612022200     
  Acav:     6.921318493259124E-002
  Solving linear dielectric/ionic screening model
        iter                  A_solv                     rms
   LPB:       -0.517741673636954E+00   0.986138448505935E+00
   LPB:    0  -0.517071541943723E+00   0.748748111006710E+00  -0.682527E-02   0.000000E+00   0.287707E+02  -0.196368E+00
   LPB:    1  -0.511605128337903E+00   0.173931424924373E+00   0.172940E-01   0.000000E+00   0.537939E+02   0.216596E-17
   LPB:    2  -0.511083687414138E+00   0.992247208841243E-01   0.142518E-01   0.115752E+00   0.233050E+03  -0.935104E-15
   LPB:    3  -0.510921716931225E+00   0.488573937113371E-01   0.184527E-01   0.239907E+00   0.109023E+03  -0.696287E-15
   LPB:    4  -0.510840819633771E+00   0.568651760232240E-01   0.256246E-01   0.359666E+00   0.949652E+02  -0.700480E-15
   LPB:    5  -0.510729698350378E+00   0.526228967396915E-01   0.365582E-01   0.962801E+00   0.975884E+02  -0.677779E-15
   LPB:    6  -0.510544036387186E+00   0.254474127267583E-01   0.448929E-01   0.136061E+01   0.429459E+02  -0.832629E-15
  Finished solving LPB equations
  A_corr:   -0.441330851454595     
 End minimization
 Ecorr=   1652.05939079485     
 A_corr= -0.441330851454595     
 Ecorr_band=  -1652.50072164631     
 End Solvation calculations
RMM:  21    -0.135988681908E+03   -0.74412E-03   -0.11784E-03 12287   0.744E-02    0.212E-01
 Begin Solvation calculations
  rms_SCF =   0.368690607005315      tol =   3.686906070053154E-002
 Begin minimization
 Creating dielectric and ionic cavities
  area:      132.381021541717     
  volume:    642.713361561106     
  Acav:     6.950003630940148E-002
  Solving linear dielectric/ionic screening model
        iter                  A_solv                     rms
   LPB:       -0.573608419813113E+00   0.235833558367726E+01
   LPB:    0  -0.569033990102550E+00   0.170484974990262E+01  -0.178360E-01   0.000000E+00   0.287589E+02  -0.512944E+00
   LPB:    1  -0.540898667425767E+00   0.337339488316628E+00   0.171088E-01   0.000000E+00   0.533421E+02  -0.134315E-16
   LPB:    2  -0.538240407503023E+00   0.194385914791582E+00   0.150913E-01   0.107112E+00   0.227211E+03  -0.155834E-14
   LPB:    3  -0.537541733447657E+00   0.976960214937729E-01   0.193037E-01   0.205477E+00   0.852152E+02   0.211082E-15
   LPB:    4  -0.537195716245575E+00   0.113781636805880E+00   0.236827E-01   0.403675E+00   0.135034E+03   0.122956E-14
   LPB:    5  -0.536960204914520E+00   0.825891564346083E-01   0.237014E-01   0.680097E+00   0.871399E+02   0.173369E-14
   LPB:    6  -0.536751792228638E+00   0.294312500612722E-01   0.291500E-01   0.719529E+00   0.824575E+02   0.185708E-14
  Finished solving LPB equations
  A_corr:   -0.467251755919237     
 End minimization
 Ecorr=   1644.12106264401     
 A_corr= -0.467251755919237     
 Ecorr_band=  -1644.58831439993     
 End Solvation calculations
RMM:  22    -0.135991649781E+03   -0.29679E-02   -0.38524E-03 12170   0.125E-01    0.144E-01
 Begin Solvation calculations
  rms_SCF =   0.238642558090122      tol =   2.386425580901220E-002
 Begin minimization
 Creating dielectric and ionic cavities
  area:      133.020995177862     
  volume:    642.943373674750     
  Acav:     6.983602246837739E-002
  Solving linear dielectric/ionic screening model
        iter                  A_solv                     rms
   LPB:       -0.626253744669850E+00   0.282616022489851E+01
   LPB:    0  -0.619775237716627E+00   0.201082189991041E+01  -0.212299E-01   0.000000E+00   0.287481E+02  -0.610319E+00
   LPB:    1  -0.579323888210613E+00   0.415859828528023E+00   0.169921E-01   0.000000E+00   0.540052E+02  -0.232034E-16
   LPB:    2  -0.575272941838875E+00   0.212669043631435E+00   0.156653E-01   0.108626E+00   0.169796E+03  -0.447009E-15
   LPB:    3  -0.574103493049278E+00   0.891451422194800E-01   0.224453E-01   0.201482E+00   0.820598E+02  -0.179476E-14
   LPB:    4  -0.573372314853395E+00   0.494396365291989E-01   0.318004E-01   0.441302E+00   0.158082E+03  -0.354470E-14
   LPB:    5  -0.572772767277540E+00   0.373722972954111E-01   0.389588E-01   0.669309E+00   0.931971E+02  -0.550178E-14
   LPB:    6  -0.572357030065696E+00   0.716898382400349E-01   0.366605E-01   0.736891E+00   0.130916E+03  -0.678646E-14
   LPB:    7  -0.572127162038444E+00   0.111429023418215E+00   0.267820E-01   0.756857E+00   0.918974E+02  -0.768049E-14
   LPB:    8  -0.571964295895678E+00   0.521337047529323E-01   0.204817E-01   0.926468E+00   0.151473E+03  -0.817320E-14
   LPB:    9  -0.571821043614043E+00   0.165863396879859E-01   0.318910E-01   0.564896E+00   0.180450E+03  -0.852751E-14
  Finished solving LPB equations
  A_corr:   -0.501985021145666     
 End minimization
 Ecorr=   1630.62071220993     
 A_corr= -0.501985021145666     
 Ecorr_band=  -1631.12269723108     
 End Solvation calculations
RMM:  23    -0.135994524975E+03   -0.28752E-02   -0.32637E-03 12279   0.119E-01    0.169E-01
 Begin Solvation calculations
  rms_SCF =   0.238642558090122      tol =   2.386425580901220E-002
 Begin minimization
 Creating dielectric and ionic cavities
  area:      133.296769247256     
  volume:    643.062327869558     
  Acav:     6.998080385480956E-002
  Solving linear dielectric/ionic screening model
        iter                  A_solv                     rms
   LPB:       -0.598419232881010E+00   0.148698263911972E+01
   LPB:    0  -0.597102763797121E+00   0.118873547702237E+01  -0.957101E-02   0.000000E+00   0.287425E+02  -0.275095E+00
   LPB:    1  -0.587501299543292E+00   0.267598504007463E+00   0.156093E-01   0.000000E+00   0.478210E+02   0.152147E-16
   LPB:    2  -0.586440958528243E+00   0.130444824239236E+00   0.134525E-01   0.128141E+00   0.233586E+03   0.317895E-16
   LPB:    3  -0.586154063044929E+00   0.591190731744948E-01   0.176405E-01   0.206334E+00   0.117437E+03   0.771189E-16
   LPB:    4  -0.586029692406274E+00   0.518393824873615E-01   0.233932E-01   0.326899E+00   0.103644E+03  -0.150083E-15
   LPB:    5  -0.585963044954198E+00   0.359857258449480E-01   0.245890E-01   0.509817E+00   0.127531E+03  -0.687021E-15
   LPB:    6  -0.585891115435778E+00   0.177114524142603E-01   0.388077E-01   0.683829E+00   0.814516E+02  -0.107607E-14
  Finished solving LPB equations
  A_corr:   -0.515910311580968     
 End minimization
 Ecorr=   1626.27132149993     
 A_corr= -0.515910311580968     
 Ecorr_band=  -1626.78723181151     
 End Solvation calculations
RMM:  24    -0.135995063133E+03   -0.53816E-03   -0.14797E-03 12154   0.771E-02    0.130E-01
 Begin Solvation calculations
  rms_SCF =   0.238642558090122      tol =   2.386425580901220E-002
 Begin minimization
 Creating dielectric and ionic cavities
  area:      133.506830493195     
  volume:    643.180273723566     
  Acav:     7.009108600892724E-002
  Solving linear dielectric/ionic screening model
        iter                  A_solv                     rms
   LPB:       -0.611077374859051E+00   0.180845172103974E+01
   LPB:    0  -0.610011075832770E+00   0.161612282405408E+01  -0.861457E-02   0.000000E+00   0.287370E+02  -0.247557E+00
   LPB:    1  -0.597407145143795E+00   0.340542289631653E+00   0.132866E-01   0.000000E+00   0.505401E+02   0.723354E-19
   LPB:    2  -0.595968288401081E+00   0.128685508968236E+00   0.123284E-01   0.123033E+00   0.207285E+03   0.381391E-15
   LPB:    3  -0.595647268896592E+00   0.421492823217384E-01   0.175135E-01   0.157054E+00   0.123162E+03   0.444008E-15
   LPB:    4  -0.595522854336146E+00   0.488054685018891E-01   0.294226E-01   0.230691E+00   0.840481E+02   0.439764E-15
   LPB:    5  -0.595425930664581E+00   0.505144229132235E-01   0.312199E-01   0.734189E+00   0.104106E+03   0.885029E-15
   LPB:    6  -0.595326127735021E+00   0.244381573659690E-01   0.332365E-01   0.967231E+00   0.544364E+02   0.114291E-14
   LPB:    7  -0.595242421025703E+00   0.114197143773766E-01   0.347738E-01   0.801640E+00   0.119611E+03   0.106675E-14
  Finished solving LPB equations
  A_corr:   -0.525151335016776     
 End minimization
 Ecorr=   1621.47805746774     
 A_corr= -0.525151335016776     
 Ecorr_band=  -1622.00320880276     
 End Solvation calculations
RMM:  25    -0.135995520954E+03   -0.45782E-03   -0.56726E-04 12210   0.528E-02    0.893E-02
 Begin Solvation calculations
  rms_SCF =   0.198775463461817      tol =   1.987754634618167E-002
 Begin minimization
 Creating dielectric and ionic cavities
  area:      133.587212184505     
  volume:    643.187770929460     
  Acav:     7.013328639686510E-002
  Solving linear dielectric/ionic screening model
        iter                  A_solv                     rms
   LPB:       -0.614446927287718E+00   0.182982817514569E+01
   LPB:    0  -0.613676416921227E+00   0.169367430406391E+01  -0.732295E-02   0.000000E+00   0.287367E+02  -0.210437E+00
   LPB:    1  -0.602279470907978E+00   0.313516447960341E+00   0.118800E-01   0.000000E+00   0.533201E+02  -0.881133E-17
   LPB:    2  -0.601007854357812E+00   0.967697371295895E-01   0.120072E-01   0.110393E+00   0.212182E+03   0.337711E-16
   LPB:    3  -0.600785071014881E+00   0.322713662991036E-01   0.178192E-01   0.118054E+00   0.135608E+03   0.122482E-16
   LPB:    4  -0.600735618113459E+00   0.299395431401089E-01   0.233538E-01   0.169371E+00   0.973587E+02   0.159240E-16
   LPB:    5  -0.600705181618104E+00   0.264982917555814E-01   0.288846E-01   0.497616E+00   0.121057E+03  -0.156017E-15
   LPB:    6  -0.600666193981923E+00   0.148679580413003E-01   0.406964E-01   0.909165E+00   0.600765E+02  -0.294767E-15
  Finished solving LPB equations
  A_corr:   -0.530532907585058     
 End minimization
 Ecorr=   1618.87742766868     
 A_corr= -0.530532907585058     
 Ecorr_band=  -1619.40796057626     
 End Solvation calculations
RMM:  26    -0.135995715754E+03   -0.19480E-03   -0.44005E-04 12139   0.454E-02    0.690E-02
 Begin Solvation calculations
  rms_SCF =   5.325284110244117E-002 tol =   5.325284110244117E-003
 Begin minimization
 Creating dielectric and ionic cavities
  area:      133.552308470740     
  volume:    643.135832457581     
  Acav:     7.011496194713862E-002
  Solving linear dielectric/ionic screening model
        iter                  A_solv                     rms
   LPB:       -0.600485777325999E+00   0.443823564570536E+00
   LPB:    0  -0.600468657027603E+00   0.432065723507909E+00  -0.109153E-02   0.000000E+00   0.287391E+02  -0.313695E-01
   LPB:    1  -0.599754415227117E+00   0.633879437262496E-01   0.104110E-01   0.000000E+00   0.692562E+02   0.768652E-19
   LPB:    2  -0.599699160444742E+00   0.154662885312237E-01   0.114630E-01   0.702616E-01   0.285586E+03   0.198531E-15
   LPB:    3  -0.599686564791678E+00   0.980237855971459E-02   0.251901E-01   0.103733E+00   0.183717E+03   0.197488E-15
   LPB:    4  -0.599671091402867E+00   0.213375648278277E-01   0.588642E-01   0.525707E+00   0.136169E+03   0.199830E-15
   LPB:    5  -0.599647973614661E+00   0.261251767888676E-01   0.391758E-01   0.224489E+01   0.129750E+03   0.185095E-15
   LPB:    6  -0.599629453006832E+00   0.114885358841081E-01   0.278494E-01   0.112696E+01   0.556362E+02   0.355009E-15
   LPB:    7  -0.599616412192206E+00   0.455123106033821E-02   0.309605E-01   0.633371E+00   0.651146E+02   0.885386E-15
  Finished solving LPB equations
  A_corr:   -0.529501450245067     
 End minimization
 Ecorr=   1618.10550197160     
 A_corr= -0.529501450245067     
 Ecorr_band=  -1618.63500342184     
 End Solvation calculations
RMM:  27    -0.135995784249E+03   -0.68495E-04   -0.20027E-04 11712   0.356E-02    0.458E-02
 Begin Solvation calculations
  rms_SCF =   5.325284110244117E-002 tol =   5.325284110244117E-003
 Begin minimization
 Creating dielectric and ionic cavities
  area:      133.574225145981     
  volume:    643.059378641852     
  Acav:     7.012646820164012E-002
  Solving linear dielectric/ionic screening model
        iter                  A_solv                     rms
   LPB:       -0.606204810402434E+00   0.101563824329973E+01
   LPB:    0  -0.605945512070578E+00   0.933401946864410E+00  -0.424767E-02   0.000000E+00   0.287427E+02  -0.122090E+00
   LPB:    1  -0.603001255878938E+00   0.148452908693720E+00   0.108062E-01   0.000000E+00   0.546986E+02   0.643267E-19
   LPB:    2  -0.602666985651106E+00   0.460700092269797E-01   0.125639E-01   0.976494E-01   0.183465E+03  -0.104867E-14
   LPB:    3  -0.602612269784365E+00   0.183140014437414E-01   0.181190E-01   0.113503E+00   0.128026E+03  -0.130400E-14
   LPB:    4  -0.602599336725500E+00   0.158507151939020E-01   0.226398E-01   0.189168E+00   0.931122E+02  -0.136433E-14
   LPB:    5  -0.602593759268945E+00   0.746258913474681E-02   0.221312E-01   0.441167E+00   0.153223E+03  -0.142719E-14
   LPB:    6  -0.602590937184122E+00   0.242012144640260E-02   0.271991E-01   0.411703E+00   0.158064E+03  -0.144586E-14
  Finished solving LPB equations
  A_corr:   -0.532464468982481     
 End minimization
 Ecorr=   1617.08465832087     
 A_corr= -0.532464468982481     
 Ecorr_band=  -1617.61712278985     
 End Solvation calculations
RMM:  28    -0.135995815796E+03   -0.31547E-04   -0.13270E-04 11606   0.283E-02    0.341E-02
 Begin Solvation calculations
  rms_SCF =   1.296861873639012E-002 tol =   1.296861873639012E-003
 Begin minimization
 Creating dielectric and ionic cavities
  area:      133.534201742420     
  volume:    643.029135344260     
  Acav:     7.010545591477026E-002
  Solving linear dielectric/ionic screening model
        iter                  A_solv                     rms
   LPB:       -0.600423646776577E+00   0.115983483212313E+00
   LPB:    0  -0.600409670437057E+00   0.776500493950386E-01   0.986137E-03   0.000000E+00   0.287441E+02   0.283456E-01
   LPB:    1  -0.600284532488290E+00   0.526379365548894E-01   0.166520E-01   0.000000E+00   0.117863E+03  -0.167881E-17
   LPB:    2  -0.600269067072084E+00   0.170436328275841E-01   0.128383E-01   0.160300E+00   0.553935E+02  -0.208215E-15
   LPB:    3  -0.600263817994052E+00   0.429640749987042E-02   0.192048E-01   0.226891E+00   0.325199E+03  -0.234694E-15
   LPB:    4  -0.600261800291651E+00   0.293742470797240E-02   0.257159E-01   0.287067E+00   0.287264E+03  -0.244613E-15
   LPB:    5  -0.600260775178938E+00   0.408732905594483E-02   0.324943E-01   0.402077E+00   0.340883E+03  -0.244969E-15
   LPB:    6  -0.600259998465952E+00   0.441104528153791E-02   0.314810E-01   0.782074E+00   0.112145E+03  -0.238787E-15
   LPB:    7  -0.600259115135478E+00   0.256008842841182E-02   0.348123E-01   0.102844E+01   0.423309E+03  -0.252799E-15
   LPB:    8  -0.600258147657730E+00   0.204923753384128E-02   0.414606E-01   0.919633E+00   0.458443E+03  -0.213908E-15
   LPB:    9  -0.600257342826185E+00   0.990329272304871E-03   0.399097E-01   0.864212E+00   0.425159E+03  -0.187823E-15
  Finished solving LPB equations
  A_corr:   -0.530151886911414     
 End minimization
 Ecorr=   1617.50184340657     
 A_corr= -0.530151886911414     
 Ecorr_band=  -1618.03199529349     
 End Solvation calculations
RMM:  29    -0.135995867130E+03   -0.51334E-04   -0.27503E-05  7665   0.143E-02    0.191E-02
 Begin Solvation calculations
  rms_SCF =   1.296861873639012E-002 tol =   1.296861873639012E-003
 Begin minimization
 Creating dielectric and ionic cavities
  area:      133.541156906310     
  volume:    643.007286061332     
  Acav:     7.010910737581280E-002
  Solving linear dielectric/ionic screening model
        iter                  A_solv                     rms
   LPB:       -0.601164791166797E+00   0.341481358429997E+00
   LPB:    0  -0.601144955933109E+00   0.319446284288180E+00  -0.117477E-02   0.000000E+00   0.287451E+02  -0.337688E-01
   LPB:    1  -0.600823815771043E+00   0.404033195391307E-01   0.980872E-02   0.000000E+00   0.617076E+02  -0.210987E-17
   LPB:    2  -0.600798315974231E+00   0.126666650023215E-01   0.121699E-01   0.639983E-01   0.187423E+03   0.272999E-15
   LPB:    3  -0.600795120150249E+00   0.524076091792883E-02   0.175250E-01   0.870310E-01   0.108275E+03   0.280849E-15
   LPB:    4  -0.600794430944142E+00   0.386160840219724E-02   0.217398E-01   0.173848E+00   0.655754E+02   0.288712E-15
   LPB:    5  -0.600793967311755E+00   0.189879922642633E-02   0.278988E-01   0.524196E+00   0.176705E+03   0.262790E-15
   LPB:    6  -0.600793567165475E+00   0.777755729640924E-03   0.368389E-01   0.653618E+00   0.116861E+03   0.262550E-15
  Finished solving LPB equations
  A_corr:   -0.530684459789663     
 End minimization
 Ecorr=   1617.12075593886     
 A_corr= -0.530684459789663     
 Ecorr_band=  -1617.65144039864     
 End Solvation calculations
RMM:  30    -0.135995880228E+03   -0.13098E-04   -0.24965E-05  7504   0.153E-02    0.253E-02
 Begin Solvation calculations
  rms_SCF =   1.296861873639012E-002 tol =   1.296861873639012E-003
 Begin minimization
 Creating dielectric and ionic cavities
  area:      133.550400715983     
  volume:    642.999396639596     
  Acav:     7.011396037589120E-002
  Solving linear dielectric/ionic screening model
        iter                  A_solv                     rms
   LPB:       -0.601616130458387E+00   0.235717416143861E+00
   LPB:    0  -0.601600235991655E+00   0.210293463458841E+00  -0.105161E-02   0.000000E+00   0.287455E+02  -0.302289E-01
   LPB:    1  -0.601456087244236E+00   0.270603616027113E-01   0.979687E-02   0.000000E+00   0.616993E+02   0.259801E-18
   LPB:    2  -0.601444704184233E+00   0.926413757408002E-02   0.124643E-01   0.620678E-01   0.168587E+03   0.193042E-15
   LPB:    3  -0.601443185524195E+00   0.386871613017591E-02   0.164629E-01   0.101010E+00   0.112881E+03   0.287179E-15
   LPB:    4  -0.601442862955186E+00   0.260237452961891E-02   0.215854E-01   0.161998E+00   0.610708E+02   0.299894E-15
   LPB:    5  -0.601442577196545E+00   0.132021740943042E-02   0.327649E-01   0.583616E+00   0.182672E+03   0.286913E-15
   LPB:    6  -0.601442231637011E+00   0.829651261810208E-03   0.477085E-01   0.830495E+00   0.794155E+02   0.270568E-15
  Finished solving LPB equations
  A_corr:   -0.531328271261119     
 End minimization
 Ecorr=   1616.78977299842     
 A_corr= -0.531328271261119     
 Ecorr_band=  -1617.32110126968     
 End Solvation calculations
RMM:  31    -0.135995889556E+03   -0.93275E-05   -0.10917E-05  7132   0.113E-02
 Begin Solvation calculations
  rms_SCF =   1.296861873639012E-002 tol =   1.296861873639012E-003
 Begin minimization
 Creating dielectric and ionic cavities
  area:      133.541397762010     
  volume:    643.001129901541     
  Acav:     7.010923382505528E-002
  Solving linear dielectric/ionic screening model
        iter                  A_solv                     rms
   LPB:       -0.600804133795779E+00   0.589609453429587E-01
   LPB:    0  -0.600803550658527E+00   0.578868674221104E-01   0.201426E-03   0.000000E+00   0.287454E+02   0.579008E-02
   LPB:    1  -0.600764539559526E+00   0.142424117183945E-01   0.161404E-01   0.000000E+00   0.893325E+02   0.215154E-18
   LPB:    2  -0.600760802819740E+00   0.663769051929583E-02   0.176787E-01   0.874516E-01   0.665812E+02   0.505146E-17
   LPB:    3  -0.600759730253492E+00   0.256692954644286E-02   0.196912E-01   0.257696E+00   0.212819E+03  -0.120997E-16
   LPB:    4  -0.600759197680612E+00   0.986134480169551E-03   0.289797E-01   0.337391E+00   0.213676E+03  -0.290545E-16
  Finished solving LPB equations
  A_corr:   -0.530649963855557     
 End minimization
 Ecorr=   1616.88568104214     
 A_corr= -0.530649963855557     
 Ecorr_band=  -1617.41633100600     
 End Solvation calculations
   1 F= -.13599589E+03 E0= -.13599335E+03  d E =-.135996E+03
quench:  g(F)=  0.000E+00 g(S)=  0.000E+00 dE (1.order)= 0.000E+00
 bond charge predicted
       N       E                     dE             d eps       ncg     rms          rms(c)
 Begin Solvation calculations
  rms_SCF =   1.296861873639012E-002 tol =   1.296861873639012E-003
 Begin minimization
 Creating dielectric and ionic cavities
  area:      133.765444109536     
  volume:    643.036651016362     
  Acav:     7.022685815750634E-002
  Solving linear dielectric/ionic screening model
        iter                  A_solv                     rms
   LPB:       -0.619946765983445E+00   0.134879930610326E-01
   LPB:    0  -0.619946765884746E+00   0.134981620308869E-01   0.262060E-05   0.000000E+00   0.287437E+02   0.753260E-04
   LPB:    1  -0.604347214251543E+00   0.536587816779729E-02   0.159114E-01   0.000000E+00   0.665380E+06   0.888726E-21
   LPB:    2  -0.602621565457150E+00   0.629218046348537E-02   0.272053E-01   0.646986E-01   0.146343E+06   0.134032E-17
   LPB:    3  -0.602070143056871E+00   0.962340089854476E-02   0.324262E-01   0.268096E+00   0.217393E+05   0.167043E-16
   LPB:    4  -0.601835903282641E+00   0.258523335716712E-01   0.350210E-01   0.393318E+00   0.537351E+04   0.434328E-16
   LPB:    5  -0.601730487278578E+00   0.566715717995317E-01   0.319758E-01   0.492893E+00   0.342535E+03   0.113721E-15
   LPB:    6  -0.601681615977024E+00   0.423433861261360E-01   0.193998E-01   0.764137E+00   0.149395E+03  -0.241399E-16
   LPB:    7  -0.601639072512906E+00   0.223337140503933E-01   0.265768E-01   0.635439E+00   0.370069E+03  -0.103446E-16
   LPB:    8  -0.601614677978755E+00   0.273747639863423E-01   0.283645E-01   0.537263E+00   0.173434E+03  -0.302208E-16
   LPB:    9  -0.601598062687027E+00   0.129923503384983E-01   0.239508E-01   0.806625E+00   0.193221E+03  -0.166524E-15
   LPB:   10  -0.601584945511498E+00   0.339939017116238E-02   0.342862E-01   0.551484E+00   0.553763E+03  -0.276025E-15
   LPB:   11  -0.601576400813836E+00   0.144775493847516E-02   0.399999E-01   0.558363E+00   0.502866E+04  -0.379832E-15
   LPB:   12  -0.601570955082919E+00   0.170957420098761E-02   0.402151E-01   0.633913E+00   0.371636E+04  -0.440869E-15
   LPB:   13  -0.601567506119925E+00   0.209490145341690E-02   0.387209E-01   0.657773E+00   0.163939E+04  -0.478314E-15
   LPB:   14  -0.601565218392743E+00   0.211227378336971E-02   0.367926E-01   0.698073E+00   0.181420E+04  -0.508218E-15
   LPB:   15  -0.601563633460163E+00   0.146874785725878E-02   0.359263E-01   0.709505E+00   0.109163E+04  -0.529261E-15
   LPB:   16  -0.601562441950030E+00   0.893814419713991E-03   0.391379E-01   0.690082E+00   0.243936E+04  -0.555216E-15
  Finished solving LPB equations
  A_corr:   -0.531335583792524     
 End minimization
 Ecorr=   1616.51638762379     
 A_corr= -0.531335583792524     
 Ecorr_band=  -1617.04772320759     
 End Solvation calculations
DAV:   1    -0.136002432820E+03   -0.65526E-02   -0.11845E+00 12699   0.176E+00    0.329E-01
 Begin Solvation calculations
  rms_SCF =   1.296861873639012E-002 tol =   1.296861873639012E-003
 Begin minimization
 Creating dielectric and ionic cavities
  area:      133.622494418458     
  volume:    642.838466980272     
  Acav:     7.015180956969044E-002
  Solving linear dielectric/ionic screening model
        iter                  A_solv                     rms
   LPB:       -0.609421729285577E+00   0.641314144204611E+00
   LPB:    0  -0.609035574043043E+00   0.486387862296886E+00  -0.518268E-02   0.000000E+00   0.287530E+02  -0.149018E+00
   LPB:    1  -0.607610974627517E+00   0.158427544086701E+00   0.118327E-01   0.000000E+00   0.784542E+02   0.121835E-16
   LPB:    2  -0.607378939074360E+00   0.277138970986519E-01   0.133311E-01   0.144571E+00   0.182990E+03  -0.651660E-15
   LPB:    3  -0.607312540516892E+00   0.229052857924255E-01   0.236555E-01   0.161264E+00   0.443529E+03  -0.921469E-15
   LPB:    4  -0.607291142605001E+00   0.217689660380975E-01   0.222666E-01   0.342367E+00   0.137335E+03  -0.917413E-15
   LPB:    5  -0.607279156477607E+00   0.100340875032531E-01   0.239312E-01   0.521191E+00   0.180010E+03  -0.934684E-15
   LPB:    6  -0.607272322106798E+00   0.395851352180864E-02   0.323483E-01   0.421825E+00   0.260462E+03  -0.100732E-14
   LPB:    7  -0.607268601117633E+00   0.235001849597730E-02   0.336223E-01   0.523821E+00   0.803295E+03  -0.109853E-14
   LPB:    8  -0.607266350380156E+00   0.163829554948049E-02   0.344589E-01   0.590191E+00   0.665023E+03  -0.110896E-14
   LPB:    9  -0.607264909889444E+00   0.119105454192109E-02   0.361934E-01   0.609338E+00   0.786048E+03  -0.109570E-14
  Finished solving LPB equations
  A_corr:   -0.537113100319753     
 End minimization
 Ecorr=   1616.32172948488     
 A_corr= -0.537113100319753     
 Ecorr_band=  -1616.85884258520     
 End Solvation calculations
RMM:   2    -0.136008610934E+03   -0.61781E-02   -0.75678E-02 17148   0.494E-01    0.284E-01
 Begin Solvation calculations
  rms_SCF =   1.296861873639012E-002 tol =   1.296861873639012E-003
 Begin minimization
 Creating dielectric and ionic cavities
  area:      133.614911119700     
  volume:    642.868003744341     
  Acav:     7.014782833784268E-002
  Solving linear dielectric/ionic screening model
        iter                  A_solv                     rms
   LPB:       -0.609428416070666E+00   0.297552024555865E+00
   LPB:    0  -0.609410247286690E+00   0.281773497830939E+00  -0.112421E-02   0.000000E+00   0.287516E+02  -0.323228E-01
   LPB:    1  -0.609173364938348E+00   0.450272320344225E-01   0.955230E-02   0.000000E+00   0.640060E+02  -0.204719E-17
   LPB:    2  -0.609125693008146E+00   0.628110769532735E-02   0.175226E-01   0.109708E+00   0.116655E+03   0.264152E-15
   LPB:    3  -0.609119658215118E+00   0.356644489537320E-02   0.244501E-01   0.907232E-01   0.284862E+03   0.221539E-15
   LPB:    4  -0.609117611438449E+00   0.308043576675157E-02   0.256660E-01   0.323095E+00   0.293400E+03   0.218396E-15
   LPB:    5  -0.609116657898902E+00   0.419238502704130E-02   0.284305E-01   0.420573E+00   0.312892E+03   0.219873E-15
   LPB:    6  -0.609116064406210E+00   0.342034618212589E-02   0.274500E-01   0.644644E+00   0.857888E+02   0.214861E-15
   LPB:    7  -0.609115537061824E+00   0.168434977998513E-02   0.324516E-01   0.751596E+00   0.279550E+03   0.219017E-15
   LPB:    8  -0.609115092559514E+00   0.711253191377327E-03   0.392637E-01   0.696667E+00   0.261408E+03   0.201572E-15
  Finished solving LPB equations
  A_corr:   -0.538967264221672     
 End minimization
 Ecorr=   1615.96889782940     
 A_corr= -0.538967264221672     
 Ecorr_band=  -1616.50786509362     
 End Solvation calculations
RMM:   3    -0.136007155353E+03    0.14556E-02   -0.46954E-03 15304   0.152E-01    0.236E-01
 Begin Solvation calculations
  rms_SCF =   1.296861873639012E-002 tol =   1.296861873639012E-003
 Begin minimization
 Creating dielectric and ionic cavities
  area:      133.618775386713     
  volume:    642.854556438164     
  Acav:     7.014985707802456E-002
  Solving linear dielectric/ionic screening model
        iter                  A_solv                     rms
   LPB:       -0.611601496455238E+00   0.480886277864910E+00
   LPB:    0  -0.611575305452032E+00   0.467863800971692E+00  -0.134975E-02   0.000000E+00   0.287523E+02  -0.388085E-01
   LPB:    1  -0.610997242507046E+00   0.440608572102714E-01   0.898056E-02   0.000000E+00   0.649661E+02   0.145730E-17
   LPB:    2  -0.610945751664578E+00   0.729562590647522E-02   0.142764E-01   0.560323E-01   0.191754E+03   0.323423E-16
   LPB:    3  -0.610938232884203E+00   0.662831272247735E-02   0.246895E-01   0.844355E-01   0.402963E+03   0.717987E-16
   LPB:    4  -0.610936043268638E+00   0.531950399057424E-02   0.238988E-01   0.300854E+00   0.127943E+03   0.869016E-16
   LPB:    5  -0.610934969518645E+00   0.373290722827897E-02   0.239401E-01   0.489538E+00   0.279599E+03   0.721635E-16
   LPB:    6  -0.610934323467893E+00   0.186787973479247E-02   0.285987E-01   0.503666E+00   0.122903E+03   0.652412E-16
   LPB:    7  -0.610933887138300E+00   0.105860870046394E-02   0.334397E-01   0.577607E+00   0.398061E+03   0.198844E-16
  Finished solving LPB equations
  A_corr:   -0.540784030060275     
 End minimization
 Ecorr=   1615.82772507327     
 A_corr= -0.540784030060275     
 Ecorr_band=  -1616.36850910333     
 End Solvation calculations
RMM:   4    -0.136007996220E+03   -0.84087E-03   -0.18820E-03 12450   0.124E-01    0.492E-01
 Begin Solvation calculations
  rms_SCF =   1.296861873639012E-002 tol =   1.296861873639012E-003
 Begin minimization
 Creating dielectric and ionic cavities
  area:      133.588121172938     
  volume:    642.829270479588     
  Acav:     7.013376361579243E-002
  Solving linear dielectric/ionic screening model
        iter                  A_solv                     rms
   LPB:       -0.615403304460952E+00   0.328881594370476E+00
   LPB:    0  -0.615288711917312E+00   0.229351604938821E+00  -0.282324E-02   0.000000E+00   0.287535E+02  -0.811780E-01
   LPB:    1  -0.614842457773384E+00   0.100243940503099E+00   0.128903E-01   0.000000E+00   0.872244E+02  -0.554902E-17
   LPB:    2  -0.614778191621665E+00   0.163116575279888E-01   0.125673E-01   0.147714E+00   0.116729E+03   0.438307E-15
   LPB:    3  -0.614760368050815E+00   0.107814318809089E-01   0.218657E-01   0.159401E+00   0.297596E+03   0.542589E-15
   LPB:    4  -0.614754985116397E+00   0.104094214455203E-01   0.232585E-01   0.283926E+00   0.111069E+03   0.569788E-15
   LPB:    5  -0.614752175167883E+00   0.605475852098530E-02   0.229373E-01   0.529320E+00   0.220889E+03   0.576075E-15
   LPB:    6  -0.614750405944145E+00   0.205991151915872E-02   0.321153E-01   0.449692E+00   0.118298E+03   0.588432E-15
   LPB:    7  -0.614749372681831E+00   0.135298291712208E-02   0.343617E-01   0.545840E+00   0.391493E+03   0.586920E-15
   LPB:    8  -0.614748704332522E+00   0.866748608364208E-03   0.356378E-01   0.623673E+00   0.218120E+03   0.577802E-15
  Finished solving LPB equations
  A_corr:   -0.544614940716730     
 End minimization
 Ecorr=   1615.28597219369     
 A_corr= -0.544614940716730     
 Ecorr_band=  -1615.83058713440     
 End Solvation calculations
RMM:   5    -0.136006935321E+03    0.10609E-02   -0.17906E-03 12219   0.123E-01    0.188E-01
 Begin Solvation calculations
  rms_SCF =   1.296861873639012E-002 tol =   1.296861873639012E-003
 Begin minimization
 Creating dielectric and ionic cavities
  area:      133.565424741076     
  volume:    642.833770338866     
  Acav:     7.012184798906498E-002
  Solving linear dielectric/ionic screening model
        iter                  A_solv                     rms
   LPB:       -0.619315653867107E+00   0.377508845196695E+00
   LPB:    0  -0.619201526825193E+00   0.290893831524362E+00  -0.281751E-02   0.000000E+00   0.287533E+02  -0.810126E-01
   LPB:    1  -0.618743686771353E+00   0.959447051605095E-01   0.122671E-01   0.000000E+00   0.635571E+02   0.743352E-18
   LPB:    2  -0.618635773624076E+00   0.191706471946045E-01   0.139243E-01   0.207648E+00   0.146928E+03  -0.196584E-16
   LPB:    3  -0.618618069172902E+00   0.146217216011257E-01   0.236550E-01   0.965740E-01   0.188672E+03  -0.821443E-16
   LPB:    4  -0.618612930810142E+00   0.881997833959408E-02   0.208440E-01   0.329370E+00   0.934774E+02  -0.684958E-16
   LPB:    5  -0.618610218414239E+00   0.439346970791542E-02   0.243549E-01   0.451776E+00   0.324169E+03  -0.892178E-16
   LPB:    6  -0.618608560096507E+00   0.156217879669690E-02   0.333689E-01   0.446230E+00   0.133898E+03  -0.114172E-15
   LPB:    7  -0.618607523766949E+00   0.136546593375380E-02   0.366482E-01   0.569009E+00   0.292376E+03  -0.767479E-16
   LPB:    8  -0.618606853278785E+00   0.118748092763044E-02   0.368681E-01   0.643126E+00   0.172971E+03  -0.559036E-16
  Finished solving LPB equations
  A_corr:   -0.548485005289720     
 End minimization
 Ecorr=   1614.58765561584     
 A_corr= -0.548485005289720     
 Ecorr_band=  -1615.13614062113     
 End Solvation calculations
RMM:   6    -0.136006359847E+03    0.57547E-03   -0.78031E-04 12242   0.113E-01    0.562E-02
 Begin Solvation calculations
  rms_SCF =   1.296861873639012E-002 tol =   1.296861873639012E-003
 Begin minimization
 Creating dielectric and ionic cavities
  area:      133.595861766808     
  volume:    642.887458866538     
  Acav:     7.013782742757396E-002
  Solving linear dielectric/ionic screening model
        iter                  A_solv                     rms
   LPB:       -0.623416171175530E+00   0.322808914905785E+00
   LPB:    0  -0.623313612607321E+00   0.219688350779943E+00  -0.267102E-02   0.000000E+00   0.287507E+02  -0.767937E-01
   LPB:    1  -0.622917221545808E+00   0.102288124147296E+00   0.127751E-01   0.000000E+00   0.797563E+02  -0.107427E-17
   LPB:    2  -0.622857459044186E+00   0.152463287103463E-01   0.126023E-01   0.152834E+00   0.887635E+02  -0.180478E-15
   LPB:    3  -0.622843167722486E+00   0.108715916634031E-01   0.209787E-01   0.143652E+00   0.228644E+03  -0.316743E-15
   LPB:    4  -0.622838961486483E+00   0.844915422938550E-02   0.227578E-01   0.271312E+00   0.784227E+02  -0.348824E-15
   LPB:    5  -0.622836852157954E+00   0.555912681983810E-02   0.232047E-01   0.491820E+00   0.265783E+03  -0.367861E-15
   LPB:    6  -0.622835345388041E+00   0.183903953594330E-02   0.339869E-01   0.487716E+00   0.762723E+02  -0.317347E-15
   LPB:    7  -0.622834292952417E+00   0.125464072003819E-02   0.365411E-01   0.649649E+00   0.128596E+03  -0.245419E-15
  Finished solving LPB equations
  A_corr:   -0.552696465524843     
 End minimization
 Ecorr=   1613.66509258515     
 A_corr= -0.552696465524843     
 Ecorr_band=  -1614.21778905068     
 End Solvation calculations
RMM:   7    -0.136006319048E+03    0.40799E-04   -0.24438E-04 12191   0.615E-02    0.385E-02
 Begin Solvation calculations
  rms_SCF =   1.296861873639012E-002 tol =   1.296861873639012E-003
 Begin minimization
 Creating dielectric and ionic cavities
  area:      133.618472991064     
  volume:    642.913423965679     
  Acav:     7.014969832030875E-002
  Solving linear dielectric/ionic screening model
        iter                  A_solv                     rms
   LPB:       -0.624134943867933E+00   0.939742965042602E-01
   LPB:    0  -0.624126357761190E+00   0.606855477312563E-01  -0.772855E-03   0.000000E+00   0.287495E+02  -0.222192E-01
   LPB:    1  -0.624094476724274E+00   0.304229841393252E-01   0.130908E-01   0.000000E+00   0.720654E+02   0.260623E-19
   LPB:    2  -0.624089631539576E+00   0.484553790153669E-02   0.127354E-01   0.156218E+00   0.703760E+02  -0.778501E-16
   LPB:    3  -0.624088366331382E+00   0.397661388322277E-02   0.212243E-01   0.156687E+00   0.194108E+03  -0.100829E-15
   LPB:    4  -0.624087765542392E+00   0.387773457732977E-02   0.287491E-01   0.350565E+00   0.453363E+02  -0.101547E-15
   LPB:    5  -0.624087049714682E+00   0.351163637924661E-02   0.352917E-01   0.970595E+00   0.117902E+03  -0.120810E-15
   LPB:    6  -0.624086185821068E+00   0.138340808661063E-02   0.398985E-01   0.106750E+01   0.346616E+02  -0.179645E-15
   LPB:    7  -0.624085664113286E+00   0.884826292700108E-03   0.328943E-01   0.732493E+00   0.856080E+02  -0.226066E-15
  Finished solving LPB equations
  A_corr:   -0.553935965792978     
 End minimization
 Ecorr=   1613.10006249761     
 A_corr= -0.553935965792978     
 Ecorr_band=  -1613.65399846340     
 End Solvation calculations
RMM:   8    -0.136006321912E+03   -0.28643E-05   -0.81573E-05 10837   0.424E-02
 Begin Solvation calculations
  rms_SCF =   1.296861873639012E-002 tol =   1.296861873639012E-003
 Begin minimization
 Creating dielectric and ionic cavities
  area:      133.673653244036     
  volume:    642.970798372084     
  Acav:     7.017866795311897E-002
  Solving linear dielectric/ionic screening model
        iter                  A_solv                     rms
   LPB:       -0.627409738081718E+00   0.223060427835560E+00
   LPB:    0  -0.627352205086818E+00   0.125717217655052E+00  -0.200068E-02   0.000000E+00   0.287468E+02  -0.575133E-01
   LPB:    1  -0.627171635455361E+00   0.509758916498478E-01   0.155420E-01   0.000000E+00   0.588305E+02   0.197149E-17
   LPB:    2  -0.627152173511100E+00   0.149957667509997E-01   0.138931E-01   0.120573E+00   0.823838E+02   0.728037E-15
   LPB:    3  -0.627147152256090E+00   0.907464999566308E-02   0.178311E-01   0.201023E+00   0.212415E+03   0.805027E-15
   LPB:    4  -0.627145254648027E+00   0.656522570712972E-02   0.209097E-01   0.322274E+00   0.645620E+02   0.854779E-15
   LPB:    5  -0.627144098193266E+00   0.426042186183401E-02   0.240909E-01   0.528952E+00   0.210764E+03   0.867041E-15
   LPB:    6  -0.627143135665651E+00   0.139841895997122E-02   0.348732E-01   0.574972E+00   0.678714E+02   0.839046E-15
   LPB:    7  -0.627142369908547E+00   0.898894493511137E-03   0.397065E-01   0.698727E+00   0.828766E+02   0.837104E-15
  Finished solving LPB equations
  A_corr:   -0.556963701955428     
 End minimization
 Ecorr=   1612.22875132807     
 A_corr= -0.556963701955428     
 Ecorr_band=  -1612.78571503002     
 End Solvation calculations
   2 F= -.13600632E+03 E0= -.13600349E+03  d E =-.104324E-01
quench:  g(F)=  0.000E+00 g(S)=  0.000E+00 dE (1.order)= 0.000E+00
 bond charge predicted
       N       E                     dE             d eps       ncg     rms          rms(c)
 Begin Solvation calculations
  rms_SCF =   1.296861873639012E-002 tol =   1.296861873639012E-003
 Begin minimization
 Creating dielectric and ionic cavities
  area:      133.768752100794     
  volume:    642.898480653841     
  Acav:     7.022859485291695E-002
  Solving linear dielectric/ionic screening model
        iter                  A_solv                     rms
   LPB:       -0.630983048410390E+00   0.625321969607778E-02
   LPB:    0  -0.630983047637144E+00   0.642208499393008E-02  -0.733421E-05   0.000000E+00   0.287502E+02  -0.210860E-03
   LPB:    1  -0.628740899468619E+00   0.295095649564969E-02   0.160072E-01   0.000000E+00   0.343715E+06  -0.457858E-20
   LPB:    2  -0.628475227242951E+00   0.394639897784808E-02   0.276668E-01   0.685549E-01   0.666739E+05  -0.107670E-17
   LPB:    3  -0.628385827868232E+00   0.826326493501442E-02   0.328783E-01   0.283164E+00   0.117828E+05   0.310754E-17
   LPB:    4  -0.628347508665118E+00   0.217524262299643E-01   0.342513E-01   0.411447E+00   0.103618E+04   0.462326E-17
   LPB:    5  -0.628332229830874E+00   0.307210247223576E-01   0.236426E-01   0.577638E+00   0.167143E+03  -0.194327E-16
   LPB:    6  -0.628320857388352E+00   0.100349617255386E-01   0.202674E-01   0.868282E+00   0.224451E+03  -0.400081E-16
   LPB:    7  -0.628312059321231E+00   0.616589113496619E-02   0.354849E-01   0.441863E+00   0.351083E+03  -0.812631E-16
   LPB:    8  -0.628306945610739E+00   0.113554013792326E-01   0.336866E-01   0.612260E+00   0.420120E+03  -0.105353E-15
   LPB:    9  -0.628303793696312E+00   0.694541667013058E-02   0.245617E-01   0.845350E+00   0.867348E+02  -0.680465E-16
   LPB:   10  -0.628301118933729E+00   0.232599531037499E-02   0.321789E-01   0.647737E+00   0.750105E+03  -0.111007E-16
   LPB:   11  -0.628299240224997E+00   0.107896890335898E-02   0.391584E-01   0.577192E+00   0.430790E+03   0.570346E-16
  Finished solving LPB equations
  A_corr:   -0.558070645372080     
 End minimization
 Ecorr=   1611.82014601547     
 A_corr= -0.558070645372080     
 Ecorr_band=  -1612.37821666085     
 End Solvation calculations
DAV:   1    -0.136008231510E+03   -0.19125E-02   -0.17753E-01 12492   0.851E-01    0.106E-01
 Begin Solvation calculations
  rms_SCF =   1.296861873639012E-002 tol =   1.296861873639012E-003
 Begin minimization
 Creating dielectric and ionic cavities
  area:      133.718820743582     
  volume:    642.922913595905     
  Acav:     7.020238089038057E-002
  Solving linear dielectric/ionic screening model
        iter                  A_solv                     rms
   LPB:       -0.630143231729881E+00   0.183335533777255E+00
   LPB:    0  -0.630126652424828E+00   0.153213802086872E+00  -0.107396E-02   0.000000E+00   0.287491E+02  -0.308752E-01
   LPB:    1  -0.630032432444309E+00   0.396542494311218E-01   0.121453E-01   0.000000E+00   0.478700E+02   0.283612E-17
   LPB:    2  -0.630010002077291E+00   0.856193158630487E-02   0.144310E-01   0.200357E+00   0.135900E+03   0.156766E-15
   LPB:    3  -0.630005575922930E+00   0.718471239155469E-02   0.221975E-01   0.128287E+00   0.262303E+03   0.194282E-15
   LPB:    4  -0.630003644481137E+00   0.562761858171312E-02   0.253925E-01   0.381465E+00   0.923434E+02   0.172639E-15
   LPB:    5  -0.630002530008598E+00   0.360218886548285E-02   0.262142E-01   0.558929E+00   0.224374E+03   0.203570E-15
   LPB:    6  -0.630001639614085E+00   0.139703802652959E-02   0.323693E-01   0.647017E+00   0.155184E+03   0.215233E-15
   LPB:    7  -0.630000923619875E+00   0.899427414265731E-03   0.391473E-01   0.664904E+00   0.241095E+03   0.213095E-15
  Finished solving LPB equations
  A_corr:   -0.559798542729494     
 End minimization
 Ecorr=   1611.30023771550     
 A_corr= -0.559798542729494     
 Ecorr_band=  -1611.86003625823     
 End Solvation calculations
RMM:   2    -0.136009283756E+03   -0.10522E-02   -0.10049E-02 15654   0.235E-01    0.145E-01
 Begin Solvation calculations
  rms_SCF =   1.296861873639012E-002 tol =   1.296861873639012E-003
 Begin minimization
 Creating dielectric and ionic cavities
  area:      133.725027644924     
  volume:    642.930280526242     
  Acav:     7.020563951358499E-002
  Solving linear dielectric/ionic screening model
        iter                  A_solv                     rms
   LPB:       -0.630443175675115E+00   0.186324890506927E+00
   LPB:    0  -0.630442318658665E+00   0.184848537824165E+00  -0.244174E-03   0.000000E+00   0.287487E+02  -0.701971E-02
   LPB:    1  -0.630360928324912E+00   0.151189100577090E-01   0.847582E-02   0.000000E+00   0.659850E+02   0.339638E-18
   LPB:    2  -0.630355933150810E+00   0.328565118632450E-02   0.155979E-01   0.333498E-01   0.117523E+03   0.351605E-16
   LPB:    3  -0.630355046032284E+00   0.300192178428807E-02   0.253635E-01   0.109217E+00   0.178672E+03   0.376859E-16
   LPB:    4  -0.630354586079739E+00   0.257121030960555E-02   0.313301E-01   0.419738E+00   0.110772E+03   0.401924E-16
   LPB:    5  -0.630354261615808E+00   0.213510003169681E-02   0.273646E-01   0.807654E+00   0.376564E+03   0.470792E-16
   LPB:    6  -0.630353956848120E+00   0.154079319036911E-02   0.360877E-01   0.712251E+00   0.920227E+02   0.586242E-16
   LPB:    7  -0.630353601575377E+00   0.119969664034109E-02   0.420373E-01   0.100073E+01   0.246947E+03   0.849059E-16
  Finished solving LPB equations
  A_corr:   -0.560147962061792     
 End minimization
 Ecorr=   1611.13837088327     
 A_corr= -0.560147962061792     
 Ecorr_band=  -1611.69851884533     
 End Solvation calculations
RMM:   3    -0.136009359858E+03   -0.76102E-04   -0.92218E-04 12770   0.850E-02    0.264E-01
 Begin Solvation calculations
  rms_SCF =   1.296861873639012E-002 tol =   1.296861873639012E-003
 Begin minimization
 Creating dielectric and ionic cavities
  area:      133.732917155839     
  volume:    642.942400531601     
  Acav:     7.020978150681557E-002
  Solving linear dielectric/ionic screening model
        iter                  A_solv                     rms
   LPB:       -0.630743638093346E+00   0.719317313081697E-01
   LPB:    0  -0.630742657917087E+00   0.668437186282465E-01  -0.261133E-03   0.000000E+00   0.287482E+02  -0.750710E-02
   LPB:    1  -0.630728626406381E+00   0.128835818787351E-01   0.108833E-01   0.000000E+00   0.495671E+02   0.119187E-18
   LPB:    2  -0.630725843400998E+00   0.255408115858907E-02   0.145735E-01   0.148117E+00   0.119371E+03  -0.572030E-16
   LPB:    3  -0.630725282374581E+00   0.195269357649139E-02   0.240820E-01   0.121995E+00   0.204912E+03  -0.717015E-16
   LPB:    4  -0.630724967538635E+00   0.218775931837444E-02   0.308666E-01   0.437829E+00   0.851263E+02  -0.768792E-16
   LPB:    5  -0.630724793184613E+00   0.184253825081451E-02   0.263816E-01   0.647940E+00   0.163198E+03  -0.934240E-16
   LPB:    6  -0.630724648330170E+00   0.870837392994095E-03   0.313347E-01   0.699479E+00   0.108051E+03  -0.104855E-15
  Finished solving LPB equations
  A_corr:   -0.560514866823355     
 End minimization
 Ecorr=   1610.93827593665     
 A_corr= -0.560514866823355     
 Ecorr_band=  -1611.49879080348     
 End Solvation calculations
RMM:   4    -0.136009009992E+03    0.34987E-03   -0.32361E-04 12015   0.548E-02    0.513E-02
 Begin Solvation calculations
  rms_SCF =   1.296861873639012E-002 tol =   1.296861873639012E-003
 Begin minimization
 Creating dielectric and ionic cavities
  area:      133.740860372083     
  volume:    642.955668357355     
  Acav:     7.021395169534360E-002
  Solving linear dielectric/ionic screening model
        iter                  A_solv                     rms
   LPB:       -0.631227428655832E+00   0.110982704227921E+00
   LPB:    0  -0.631225499906319E+00   0.105313605098514E+00  -0.366313E-03   0.000000E+00   0.287475E+02  -0.105306E-01
   LPB:    1  -0.631194876625857E+00   0.162605501091191E-01   0.100003E-01   0.000000E+00   0.530885E+02   0.718737E-18
   LPB:    2  -0.631189554874942E+00   0.285317043132095E-02   0.152067E-01   0.114282E+00   0.116861E+03  -0.659365E-16
   LPB:    3  -0.631188796655633E+00   0.182649382085724E-02   0.209247E-01   0.103542E+00   0.266240E+03  -0.117512E-15
   LPB:    4  -0.631188521334473E+00   0.207455675128692E-02   0.292930E-01   0.259382E+00   0.958748E+02  -0.124992E-15
   LPB:    5  -0.631188339742864E+00   0.212055828572110E-02   0.292278E-01   0.661034E+00   0.140852E+03  -0.114107E-15
   LPB:    6  -0.631188162137269E+00   0.102459894337343E-02   0.331626E-01   0.862002E+00   0.682230E+02  -0.100765E-15
  Finished solving LPB equations
  A_corr:   -0.560974210441925     
 End minimization
 Ecorr=   1610.74126173090     
 A_corr= -0.560974210441925     
 Ecorr_band=  -1611.30223594135     
 End Solvation calculations
RMM:   5    -0.136009003593E+03    0.63989E-05   -0.77597E-05 10740   0.355E-02
 Begin Solvation calculations
  rms_SCF =   1.296861873639012E-002 tol =   1.296861873639012E-003
 Begin minimization
 Creating dielectric and ionic cavities
  area:      133.764453439266     
  volume:    642.975273555313     
  Acav:     7.022633805561444E-002
  Solving linear dielectric/ionic screening model
        iter                  A_solv                     rms
   LPB:       -0.632068388985846E+00   0.898743887207604E-01
   LPB:    0  -0.632063049036726E+00   0.675483909130420E-01  -0.609523E-03   0.000000E+00   0.287466E+02  -0.175217E-01
   LPB:    1  -0.632040386623621E+00   0.215139855543555E-01   0.993693E-02   0.000000E+00   0.783239E+02   0.781773E-19
   LPB:    2  -0.632037004088678E+00   0.426486807634820E-02   0.152896E-01   0.970046E-01   0.540408E+02   0.248982E-15
   LPB:    3  -0.632036192080519E+00   0.314539958899136E-02   0.210634E-01   0.174255E+00   0.304406E+03   0.285267E-15
   LPB:    4  -0.632035765296407E+00   0.266954178598933E-02   0.292995E-01   0.377847E+00   0.699732E+02   0.297398E-15
   LPB:    5  -0.632035396696307E+00   0.171243169397381E-02   0.292645E-01   0.864700E+00   0.220666E+03   0.319589E-15
   LPB:    6  -0.632035054899556E+00   0.710863482180487E-03   0.389165E-01   0.697300E+00   0.790338E+02   0.327922E-15
  Finished solving LPB equations
  A_corr:   -0.561808716843942     
 End minimization
 Ecorr=   1610.40281939378     
 A_corr= -0.561808716843942     
 Ecorr_band=  -1610.96462811063     
 End Solvation calculations
   3 F= -.13600900E+03 E0= -.13600612E+03  d E =-.268168E-02
quench:  g(F)=  0.000E+00 g(S)=  0.000E+00 dE (1.order)= 0.000E+00
 bond charge predicted
       N       E                     dE             d eps       ncg     rms          rms(c)
 Begin Solvation calculations
  rms_SCF =   1.296861873639012E-002 tol =   1.296861873639012E-003
 Begin minimization
 Creating dielectric and ionic cavities
  area:      133.998702850880     
  volume:    642.869994401837     
  Acav:     7.034931899671190E-002
  Solving linear dielectric/ionic screening model
        iter                  A_solv                     rms
   LPB:       -0.640729513494764E+00   0.968727974971498E-02
   LPB:    0  -0.640729511878835E+00   0.996703616380401E-02  -0.106022E-04   0.000000E+00   0.287516E+02  -0.304829E-03
   LPB:    1  -0.635128962481799E+00   0.442891169489648E-02   0.156534E-01   0.000000E+00   0.367674E+06   0.163793E-19
   LPB:    2  -0.634564310571823E+00   0.660570397085754E-02   0.268153E-01   0.588541E-01   0.728213E+05   0.793750E-16
   LPB:    3  -0.634379389981546E+00   0.134193568758564E-01   0.328026E-01   0.267719E+00   0.859648E+04   0.875463E-16
   LPB:    4  -0.634300759657864E+00   0.360779918456799E-01   0.338323E-01   0.412270E+00   0.850876E+03   0.758790E-16
   LPB:    5  -0.634269589828713E+00   0.430397161933997E-01   0.218195E-01   0.614655E+00   0.147715E+03   0.835009E-16
   LPB:    6  -0.634243829936928E+00   0.127553540375326E-01   0.219336E-01   0.822137E+00   0.269933E+03   0.675822E-16
   LPB:    7  -0.634224710054645E+00   0.900955167674201E-02   0.367521E-01   0.442965E+00   0.363007E+03   0.313864E-16
   LPB:    8  -0.634213526100853E+00   0.168623518816217E-01   0.335927E-01   0.639952E+00   0.430789E+03   0.763803E-17
   LPB:    9  -0.634206387856634E+00   0.102195454596017E-01   0.246486E-01   0.869859E+00   0.894422E+02   0.290105E-16
   LPB:   10  -0.634200256653840E+00   0.353572203194195E-02   0.328652E-01   0.644183E+00   0.777593E+03  -0.111732E-16
   LPB:   11  -0.634195942228633E+00   0.117384610893892E-02   0.400783E-01   0.577039E+00   0.364743E+03  -0.119866E-15
  Finished solving LPB equations
  A_corr:   -0.563846623231921     
 End minimization
 Ecorr=   1609.76931292658     
 A_corr= -0.563846623231921     
 Ecorr_band=  -1610.33315954981     
 End Solvation calculations
DAV:   1    -0.136010449376E+03   -0.14394E-02   -0.41225E-01 12528   0.139E+00    0.137E-01
 Begin Solvation calculations
  rms_SCF =   1.296861873639012E-002 tol =   1.296861873639012E-003
 Begin minimization
 Creating dielectric and ionic cavities
  area:      133.831850625551     
  volume:    642.836354870154     
  Acav:     7.026172157841436E-002
  Solving linear dielectric/ionic screening model
        iter                  A_solv                     rms
   LPB:       -0.636950693535337E+00   0.269121233800396E+00
   LPB:    0  -0.636893730378733E+00   0.210347988121073E+00  -0.199053E-02   0.000000E+00   0.287531E+02  -0.572341E-01
   LPB:    1  -0.636721440440778E+00   0.532922895904361E-01   0.114994E-01   0.000000E+00   0.526469E+02  -0.622370E-17
   LPB:    2  -0.636674920143569E+00   0.115613435090131E-01   0.156580E-01   0.198300E+00   0.130224E+03   0.368165E-15
   LPB:    3  -0.636667233584459E+00   0.120922728712947E-01   0.230170E-01   0.112403E+00   0.236619E+03   0.497499E-15
   LPB:    4  -0.636663857615130E+00   0.628001365666892E-02   0.214791E-01   0.470651E+00   0.108301E+03   0.547851E-15
   LPB:    5  -0.636661716054801E+00   0.333761591487434E-02   0.301399E-01   0.452071E+00   0.316972E+03   0.569901E-15
   LPB:    6  -0.636660277397484E+00   0.203039504298795E-02   0.337848E-01   0.599305E+00   0.302983E+03   0.535628E-15
   LPB:    7  -0.636659141339440E+00   0.128915178542887E-02   0.376495E-01   0.708608E+00   0.422856E+03   0.497191E-15
  Finished solving LPB equations
  A_corr:   -0.566397419761025     
 End minimization
 Ecorr=   1609.45362750956     
 A_corr= -0.566397419761025     
 Ecorr_band=  -1610.02002492932     
 End Solvation calculations
RMM:   2    -0.136012177492E+03   -0.17281E-02   -0.18395E-02 16035   0.351E-01    0.135E-01
 Begin Solvation calculations
  rms_SCF =   1.296861873639012E-002 tol =   1.296861873639012E-003
 Begin minimization
 Creating dielectric and ionic cavities
  area:      133.832696098011     
  volume:    642.848563891047     
  Acav:     7.026216545145553E-002
  Solving linear dielectric/ionic screening model
        iter                  A_solv                     rms
   LPB:       -0.637377339913150E+00   0.339980085729800E+00
   LPB:    0  -0.637376212388430E+00   0.339031316738577E+00  -0.280053E-03   0.000000E+00   0.287526E+02  -0.805223E-02
   LPB:    1  -0.637104939087318E+00   0.298449331199695E-01   0.858984E-02   0.000000E+00   0.638936E+02   0.199412E-18
   LPB:    2  -0.637085054787999E+00   0.597597585459881E-02   0.155857E-01   0.403983E-01   0.122387E+03  -0.179930E-16
   LPB:    3  -0.637082259542450E+00   0.381853169243813E-02   0.233319E-01   0.939041E-01   0.173294E+03   0.245169E-16
   LPB:    4  -0.637081203243814E+00   0.316135870763977E-02   0.297425E-01   0.296442E+00   0.156711E+03   0.745217E-16
   LPB:    5  -0.637080604767412E+00   0.315218545633975E-02   0.267205E-01   0.630657E+00   0.326538E+03   0.103006E-15
   LPB:    6  -0.637080128539710E+00   0.235976139774076E-02   0.314903E-01   0.675204E+00   0.102972E+03   0.113245E-15
   LPB:    7  -0.637079618854066E+00   0.170288834650039E-02   0.384970E-01   0.875464E+00   0.503325E+03   0.131728E-15
   LPB:    8  -0.637079050271098E+00   0.789471798038808E-03   0.456544E-01   0.940666E+00   0.129177E+03   0.143463E-15
  Finished solving LPB equations
  A_corr:   -0.566816884819642     
 End minimization
 Ecorr=   1609.29320629230     
 A_corr= -0.566816884819642     
 Ecorr_band=  -1609.86002317712     
 End Solvation calculations
RMM:   3    -0.136012617995E+03   -0.44050E-03   -0.18414E-03 13318   0.113E-01    0.383E-01
 Begin Solvation calculations
  rms_SCF =   1.296861873639012E-002 tol =   1.296861873639012E-003
 Begin minimization
 Creating dielectric and ionic cavities
  area:      133.833190005475     
  volume:    642.858437437872     
  Acav:     7.026242475287432E-002
  Solving linear dielectric/ionic screening model
        iter                  A_solv                     rms
   LPB:       -0.637397216503380E+00   0.761813644744857E-01
   LPB:    0  -0.637396513844210E+00   0.734928000031346E-01  -0.221082E-03   0.000000E+00   0.287521E+02  -0.635656E-02
   LPB:    1  -0.637381923120706E+00   0.112212871096522E-01   0.970235E-02   0.000000E+00   0.562155E+02   0.382967E-18
   LPB:    2  -0.637379027020758E+00   0.187766950293162E-02   0.170357E-01   0.113046E+00   0.105125E+03  -0.149409E-16
   LPB:    3  -0.637378478525443E+00   0.111278664200171E-02   0.258356E-01   0.124882E+00   0.269385E+03  -0.306998E-16
   LPB:    4  -0.637378117859836E+00   0.130336643432392E-02   0.370268E-01   0.458812E+00   0.191258E+03  -0.328040E-16
   LPB:    5  -0.637377912178205E+00   0.191081665614859E-02   0.313378E-01   0.673810E+00   0.232904E+03  -0.333484E-16
   LPB:    6  -0.637377765216922E+00   0.177275727296382E-02   0.300310E-01   0.745600E+00   0.961198E+02  -0.306043E-16
   LPB:    7  -0.637377600777425E+00   0.126369676717549E-02   0.368214E-01   0.912585E+00   0.291278E+03  -0.171859E-16
  Finished solving LPB equations
  A_corr:   -0.567115176024551     
 End minimization
 Ecorr=   1609.17109307343     
 A_corr= -0.567115176024551     
[...]
   LPB:    0  -0.671750138427404E+00   0.391586880396032E-01  -0.101001E-03   0.000000E+00   0.287602E+02  -0.290480E-02
   LPB:    1  -0.671745901732984E+00   0.394707665524989E-02   0.919031E-02   0.000000E+00   0.652980E+02   0.123132E-18
   LPB:    2  -0.671745467540782E+00   0.599659005216768E-03   0.142319E-01   0.661791E-01   0.244212E+03   0.100647E-18
   LPB:    3  -0.671745399741556E+00   0.380742632730413E-03   0.248745E-01   0.893414E-01   0.534003E+03   0.136732E-17
   LPB:    4  -0.671745379803350E+00   0.376492133866047E-03   0.270495E-01   0.270431E+00   0.289560E+03   0.229776E-17
   LPB:    5  -0.671745370181861E+00   0.401254326551789E-03   0.265734E-01   0.491211E+00   0.280844E+03   0.489884E-17
   LPB:    6  -0.671745364142430E+00   0.295989907762343E-03   0.273058E-01   0.610865E+00   0.121061E+03   0.630184E-17
   LPB:    7  -0.671745359492670E+00   0.150339073882715E-03   0.315791E-01   0.665718E+00   0.296437E+03   0.189744E-17
  Finished solving LPB equations
  A_corr:   -0.601186487123626     
 End minimization
 Ecorr=   1601.49846211786     
 A_corr= -0.601186487123626     
 Ecorr_band=  -1602.09964860498     
 End Solvation calculations
RMM:   5    -0.136023370858E+03    0.73642E-05   -0.27246E-05  7297   0.223E-02
 Begin Solvation calculations
  rms_SCF =   1.740835636109310E-003 tol =   1.740835636109310E-004
 Begin minimization
 Creating dielectric and ionic cavities
  area:      134.391656524273     
  volume:    642.680106998032     
  Acav:     7.055561967524308E-002
  Solving linear dielectric/ionic screening model
        iter                  A_solv                     rms
   LPB:       -0.672119698244906E+00   0.258538527413468E-01
   LPB:    0  -0.672118618123204E+00   0.134980921991223E-01  -0.274065E-03   0.000000E+00   0.287605E+02  -0.788223E-02
   LPB:    1  -0.672114174714988E+00   0.649934548332795E-02   0.163132E-01   0.000000E+00   0.135742E+03   0.375369E-18
   LPB:    2  -0.672113728718417E+00   0.317092053512135E-02   0.157914E-01   0.103689E+00   0.101610E+03   0.195728E-16
   LPB:    3  -0.672113570757807E+00   0.106346026442217E-02   0.174932E-01   0.319720E+00   0.223955E+03   0.187339E-16
   LPB:    4  -0.672113503317138E+00   0.123551120991090E-02   0.236549E-01   0.315734E+00   0.245538E+03   0.219884E-16
   LPB:    5  -0.672113470331701E+00   0.842487531557895E-03   0.214302E-01   0.539878E+00   0.149973E+03   0.243127E-16
   LPB:    6  -0.672113446934577E+00   0.332045307743369E-03   0.301027E-01   0.504965E+00   0.156457E+03   0.259047E-16
   LPB:    7  -0.672113432792150E+00   0.175062556681460E-03   0.349846E-01   0.520104E+00   0.650810E+03   0.255839E-16
   LPB:    8  -0.672113423780369E+00   0.117039821332359E-03   0.354464E-01   0.628913E+00   0.499850E+03   0.266602E-16
  Finished solving LPB equations
  A_corr:   -0.601557804105126     
 End minimization
 Ecorr=   1601.47066551355     
 A_corr= -0.601557804105126     
 Ecorr_band=  -1602.07222331766     
 End Solvation calculations
  30 F= -.13602337E+03 E0= -.13602090E+03  d E =-.185016E-03
quench:  g(F)=  0.000E+00 g(S)=  0.000E+00 dE (1.order)= 0.000E+00
 bond charge predicted
       N       E                     dE             d eps       ncg     rms          rms(c)
 Begin Solvation calculations
  rms_SCF =   1.740835636109310E-003 tol =   1.740835636109310E-004
 Begin minimization
 Creating dielectric and ionic cavities
  area:      134.395059839106     
  volume:    642.673484658901     
  Acav:     7.055740641553067E-002
  Solving linear dielectric/ionic screening model
        iter                  A_solv                     rms
   LPB:       -0.672259848816820E+00   0.923232952535154E-03
   LPB:    0  -0.672259848812157E+00   0.933173643332697E-03  -0.569437E-06   0.000000E+00   0.287608E+02  -0.163775E-04
   LPB:    1  -0.672189030788651E+00   0.344335654869472E-03   0.158725E-01   0.000000E+00   0.572263E+06   0.716607E-22
   LPB:    2  -0.672181675847276E+00   0.285541428768669E-03   0.265285E-01   0.621398E-01   0.164161E+06   0.178382E-17
   LPB:    3  -0.672179486307253E+00   0.600395219517495E-03   0.318627E-01   0.247858E+00   0.534309E+05   0.200680E-17
   LPB:    4  -0.672178592841572E+00   0.161940996317594E-02   0.346473E-01   0.375266E+00   0.454750E+04   0.189625E-17
   LPB:    5  -0.672178201063569E+00   0.383991843859951E-02   0.314509E-01   0.483057E+00   0.411250E+03  -0.100281E-17
   LPB:    6  -0.672178019187917E+00   0.248874929871536E-02   0.182276E-01   0.801012E+00   0.143890E+03   0.116301E-19
   LPB:    7  -0.672177849149160E+00   0.758480710079691E-03   0.284504E-01   0.598982E+00   0.493243E+03   0.383245E-17
   LPB:    8  -0.672177744068217E+00   0.113691420628740E-02   0.357738E-01   0.491472E+00   0.687128E+03   0.752174E-17
   LPB:    9  -0.672177686949666E+00   0.124163101114032E-02   0.273591E-01   0.710749E+00   0.131142E+03   0.103423E-16
   LPB:   10  -0.672177643599655E+00   0.480485191311878E-03   0.263153E-01   0.789051E+00   0.265103E+03   0.791125E-17
   LPB:   11  -0.672177611144564E+00   0.138700558822298E-03   0.372367E-01   0.529092E+00   0.771869E+03   0.125631E-16
  Finished solving LPB equations
  A_corr:   -0.601620204729033     
 End minimization
 Ecorr=   1601.45937248673     
 A_corr= -0.601620204729033     
 Ecorr_band=  -1602.06099269146     
 End Solvation calculations
DAV:   1    -0.136023432273E+03   -0.54051E-04   -0.58469E-03 12582   0.149E-01    0.231E-02
 Begin Solvation calculations
  rms_SCF =   1.649772002913523E-003 tol =   1.649772002913523E-004
 Begin minimization
 Creating dielectric and ionic cavities
  area:      134.397056580005     
  volume:    642.682592686302     
  Acav:     7.055845470450284E-002
  Solving linear dielectric/ionic screening model
        iter                  A_solv                     rms
   LPB:       -0.672200989115642E+00   0.873718783645022E-02
   LPB:    0  -0.672200985831735E+00   0.872650038272711E-02   0.151117E-04   0.000000E+00   0.287603E+02   0.434618E-03
   LPB:    1  -0.672200385263728E+00   0.420654167027716E-02   0.124539E-01   0.000000E+00   0.101410E+03  -0.233096E-19
   LPB:    2  -0.672200173893622E+00   0.675331089157079E-03   0.167533E-01   0.261629E+00   0.253477E+03  -0.256141E-17
   LPB:    3  -0.672200110736607E+00   0.351377567771998E-03   0.261657E-01   0.191314E+00   0.727997E+03  -0.310427E-17
   LPB:    4  -0.672200079642477E+00   0.314144199262618E-03   0.310800E-01   0.414485E+00   0.749435E+03   0.607135E-18
   LPB:    5  -0.672200061790186E+00   0.561163247085699E-03   0.337341E-01   0.528966E+00   0.229319E+03   0.708584E-18
   LPB:    6  -0.672200050703024E+00   0.526977587467539E-03   0.266853E-01   0.785098E+00   0.161788E+03   0.743874E-18
   LPB:    7  -0.672200040970172E+00   0.238369039847023E-03   0.315625E-01   0.742197E+00   0.147292E+03   0.200523E-17
   LPB:    8  -0.672200033152864E+00   0.126690440129384E-03   0.372119E-01   0.681251E+00   0.971273E+03   0.451201E-17
  Finished solving LPB equations
  A_corr:   -0.601641578448362     
 End minimization
 Ecorr=   1601.43289492726     
 A_corr= -0.601641578448362     
 Ecorr_band=  -1602.03453650571     
 End Solvation calculations
RMM:   2    -0.136023460185E+03   -0.27912E-04   -0.32721E-04 14046   0.380E-02    0.142E-02
 Begin Solvation calculations
  rms_SCF =   1.649772002913523E-003 tol =   1.649772002913523E-004
 Begin minimization
 Creating dielectric and ionic cavities
  area:      134.395689045882     
  volume:    642.683770542128     
  Acav:     7.055773674908815E-002
  Solving linear dielectric/ionic screening model
        iter                  A_solv                     rms
   LPB:       -0.672240576950305E+00   0.148879426567625E-01
   LPB:    0  -0.672240565252226E+00   0.146731129732519E-01  -0.285217E-04   0.000000E+00   0.287603E+02  -0.820293E-03
   LPB:    1  -0.672239978259696E+00   0.197875521162593E-02   0.949990E-02   0.000000E+00   0.599447E+02  -0.359651E-20
   LPB:    2  -0.672239869242842E+00   0.296071748051917E-03   0.171474E-01   0.102892E+00   0.138199E+03   0.197933E-17
   LPB:    3  -0.672239851580835E+00   0.172399544968783E-03   0.257123E-01   0.108045E+00   0.375592E+03   0.332517E-18
   LPB:    4  -0.672239844073938E+00   0.936942207578156E-04   0.320542E-01   0.340939E+00   0.430479E+03   0.813402E-19
  Finished solving LPB equations
  A_corr:   -0.601682107324850     
 End minimization
 Ecorr=   1601.42186895557     
 A_corr= -0.601682107324850     
 Ecorr_band=  -1602.02355106289     
 End Solvation calculations
RMM:   3    -0.136023456368E+03    0.38172E-05   -0.18802E-05  7250   0.156E-02
 Begin Solvation calculations
  rms_SCF =   1.649772002913523E-003 tol =   1.649772002913523E-004
 Begin minimization
 Creating dielectric and ionic cavities
  area:      134.396412373897     
  volume:    642.685134225593     
  Acav:     7.055811649629609E-002
  Solving linear dielectric/ionic screening model
        iter                  A_solv                     rms
   LPB:       -0.672247339034482E+00   0.143229773830630E-01
   LPB:    0  -0.672247339017050E+00   0.143232716961872E-01   0.110103E-05   0.000000E+00   0.287602E+02   0.316658E-04
   LPB:    1  -0.672246847392486E+00   0.129398539532354E-02   0.863573E-02   0.000000E+00   0.642635E+02   0.814531E-21
   LPB:    2  -0.672246804581015E+00   0.281050068917815E-03   0.166167E-01   0.452566E-01   0.125046E+03  -0.769327E-19
   LPB:    3  -0.672246796964953E+00   0.153584694360752E-03   0.234432E-01   0.126095E+00   0.226032E+03   0.457484E-19
   LPB:    4  -0.672246793532354E+00   0.100929150148647E-03   0.355292E-01   0.297389E+00   0.367374E+03   0.893597E-18
  Finished solving LPB equations
  A_corr:   -0.601688677036058     
 End minimization
 Ecorr=   1601.41981189368     
 A_corr= -0.601688677036058     
 Ecorr_band=  -1602.02150057072     
 End Solvation calculations
  31 F= -.13602346E+03 E0= -.13602103E+03  d E =-.855104E-04
quench:  g(F)=  0.000E+00 g(S)=  0.000E+00 dE (1.order)= 0.000E+00
 bond charge predicted
       N       E                     dE             d eps       ncg     rms          rms(c)
 Begin Solvation calculations
  rms_SCF =   1.649772002913523E-003 tol =   1.649772002913523E-004
 Begin minimization
 Creating dielectric and ionic cavities
  area:      134.411474965093     
  volume:    642.683302800664     
  Acav:     7.056602435667393E-002
  Solving linear dielectric/ionic screening model
        iter                  A_solv                     rms
   LPB:       -0.672502622399048E+00   0.143539468680359E-02
   LPB:    0  -0.672502622398974E+00   0.143592650877869E-02  -0.721105E-07   0.000000E+00   0.287603E+02  -0.207392E-05
   LPB:    1  -0.672323566074397E+00   0.583703831518145E-03   0.154643E-01   0.000000E+00   0.718899E+06   0.722191E-22
   LPB:    2  -0.672307022906116E+00   0.529605864011663E-03   0.264668E-01   0.539830E-01   0.127456E+06   0.242237E-18
   LPB:    3  -0.672302001679250E+00   0.894617589445823E-03   0.321756E-01   0.249669E+00   0.310979E+05   0.734555E-19
   LPB:    4  -0.672299890424405E+00   0.264471486867560E-02   0.350966E-01   0.385472E+00   0.542239E+04   0.637778E-18
   LPB:    5  -0.672298943266916E+00   0.615815395426343E-02   0.315117E-01   0.499660E+00   0.347844E+03  -0.130402E-17
   LPB:    6  -0.672298489528925E+00   0.383250141065075E-02   0.181618E-01   0.831180E+00   0.149028E+03   0.235839E-17
   LPB:    7  -0.672298058985832E+00   0.995131562903721E-03   0.291154E-01   0.591900E+00   0.565779E+03  -0.196908E-17
   LPB:    8  -0.672297785623794E+00   0.130387708257345E-02   0.375092E-01   0.492839E+00   0.677882E+03  -0.126356E-16
   LPB:    9  -0.672297634797234E+00   0.199945080662471E-02   0.309712E-01   0.668220E+00   0.256372E+03  -0.137251E-16
   LPB:   10  -0.672297537041676E+00   0.102744448461413E-02   0.243644E-01   0.823886E+00   0.133363E+03  -0.155388E-16
   LPB:   11  -0.672297456512114E+00   0.358059486546092E-03   0.346347E-01   0.579506E+00   0.895946E+03   0.164195E-16
   LPB:   12  -0.672297402203604E+00   0.222666877168504E-03   0.389860E-01   0.599122E+00   0.117171E+04   0.421161E-16
   LPB:   13  -0.672297366889752E+00   0.247083928765666E-03   0.383139E-01   0.661652E+00   0.143904E+04   0.577125E-16
   LPB:   14  -0.672297343735654E+00   0.228168572493804E-03   0.360484E-01   0.696872E+00   0.115975E+04   0.691530E-16
   LPB:   15  -0.672297327036324E+00   0.141423428153223E-03   0.362086E-01   0.718034E+00   0.110364E+04   0.766241E-16
  Finished solving LPB equations
  A_corr:   -0.601731302679650     
 End minimization
 Ecorr=   1601.38474943773     
 A_corr= -0.601731302679650     
 Ecorr_band=  -1601.98648074041     
 End Solvation calculations
DAV:   1    -0.136023501100E+03   -0.40915E-04   -0.12455E-02 12096   0.222E-01    0.412E-02
 Begin Solvation calculations
  rms_SCF =   1.649772002913523E-003 tol =   1.649772002913523E-004
 Begin minimization
 Creating dielectric and ionic cavities
  area:      134.407384843458     
  volume:    642.685966730343     
  Acav:     7.056387704281565E-002
  Solving linear dielectric/ionic screening model
        iter                  A_solv                     rms
   LPB:       -0.672335618833606E+00   0.633602702381074E-01
   LPB:    0  -0.672335607150095E+00   0.633305347566095E-01  -0.285040E-04   0.000000E+00   0.287602E+02  -0.819780E-03
   LPB:    1  -0.672325630338045E+00   0.625581758447369E-02   0.890768E-02   0.000000E+00   0.626915E+02  -0.320425E-19
   LPB:    2  -0.672324387964768E+00   0.145140827589161E-02   0.172447E-01   0.643234E-01   0.144688E+03   0.200571E-17
   LPB:    3  -0.672324166563475E+00   0.788160406869198E-03   0.239204E-01   0.128474E+00   0.270260E+03   0.215173E-17
   LPB:    4  -0.672324091097325E+00   0.553631789888486E-03   0.291551E-01   0.279657E+00   0.349722E+03   0.148992E-17
   LPB:    5  -0.672324058926148E+00   0.586406578751111E-03   0.277585E-01   0.447748E+00   0.344600E+03   0.215523E-17
   LPB:    6  -0.672324040786080E+00   0.554828575803105E-03   0.269981E-01   0.579742E+00   0.187533E+03   0.225760E-17
   LPB:    7  -0.672324028800452E+00   0.335344519837422E-03   0.274645E-01   0.649506E+00   0.184664E+03  -0.194352E-17
   LPB:    8  -0.672324019402326E+00   0.136774737649787E-03   0.344689E-01   0.624776E+00   0.362843E+03  -0.568102E-17
  Finished solving LPB equations
  A_corr:   -0.601760142359510     
 End minimization
 Ecorr=   1601.37972855631     
 A_corr= -0.601760142359510     
 Ecorr_band=  -1601.98148869867     
 End Solvation calculations
RMM:   2    -0.136023747096E+03   -0.24600E-03   -0.75094E-04 12984   0.759E-02    0.194E-01
 Begin Solvation calculations
  rms_SCF =   1.649772002913523E-003 tol =   1.649772002913523E-004
 Begin minimization
 Creating dielectric and ionic cavities
  area:      134.408976909665     
  volume:    642.686016858280     
  Acav:     7.056471287757421E-002
  Solving linear dielectric/ionic screening model
        iter                  A_solv                     rms
   LPB:       -0.672369882899774E+00   0.665223447142642E-01
   LPB:    0  -0.672369873543773E+00   0.664876933701781E-01  -0.255073E-04   0.000000E+00   0.287602E+02  -0.733594E-03
   LPB:    1  -0.672359480121166E+00   0.623779506295885E-02   0.866117E-02   0.000000E+00   0.626767E+02   0.480822E-19
   LPB:    2  -0.672358601564444E+00   0.132216998514272E-02   0.160033E-01   0.457487E-01   0.117439E+03  -0.211737E-17
   LPB:    3  -0.672358479267443E+00   0.674650604543070E-03   0.225306E-01   0.988741E-01   0.152642E+03  -0.904343E-18
   LPB:    4  -0.672358441527361E+00   0.530140682739922E-03   0.280376E-01   0.247981E+00   0.216641E+03   0.183548E-17
   LPB:    5  -0.672358425305208E+00   0.470278278271392E-03   0.244307E-01   0.493299E+00   0.248453E+03  -0.928455E-18
   LPB:    6  -0.672358416642486E+00   0.307168946602345E-03   0.255277E-01   0.511058E+00   0.148715E+03  -0.313408E-17
   LPB:    7  -0.672358410944448E+00   0.162213753942345E-03   0.298898E-01   0.561771E+00   0.336783E+03  -0.415597E-18
  Finished solving LPB equations
  A_corr:   -0.601793698066874     
 End minimization
 Ecorr=   1601.38736114033     
 A_corr= -0.601793698066874     
 Ecorr_band=  -1601.98915483839     
 End Solvation calculations
RMM:   3    -0.136023543840E+03    0.20326E-03   -0.18915E-04 10537   0.379E-02    0.305E-02
 Begin Solvation calculations
  rms_SCF =   1.649772002913523E-003 tol =   1.649772002913523E-004
 Begin minimization
 Creating dielectric and ionic cavities
  area:      134.405868582938     
  volume:    642.686612989466     
  Acav:     7.056308100604244E-002
  Solving linear dielectric/ionic screening model
        iter                  A_solv                     rms
   LPB:       -0.672429903914846E+00   0.159165092167944E-01
   LPB:    0  -0.672429881673137E+00   0.155684951883020E-01  -0.393281E-04   0.000000E+00   0.287602E+02  -0.113108E-02
   LPB:    1  -0.672429082593122E+00   0.270895746183220E-02   0.990046E-02   0.000000E+00   0.667075E+02  -0.798120E-19
   LPB:    2  -0.672428897624377E+00   0.381508369233563E-03   0.174790E-01   0.131113E+00   0.177894E+03   0.428963E-17
   LPB:    3  -0.672428866523749E+00   0.290590695156298E-03   0.270892E-01   0.108491E+00   0.374909E+03   0.887759E-17
   LPB:    4  -0.672428854678928E+00   0.218382296410730E-03   0.273889E-01   0.376688E+00   0.484517E+03   0.105064E-16
   LPB:    5  -0.672428848736690E+00   0.195171235856404E-03   0.322587E-01   0.425940E+00   0.274020E+03   0.131521E-16
   LPB:    6  -0.672428845272877E+00   0.263933148975291E-03   0.317034E-01   0.593125E+00   0.342571E+03   0.133453E-16
   LPB:    7  -0.672428842579520E+00   0.193957202771735E-03   0.286145E-01   0.861506E+00   0.132601E+03   0.140426E-16
   LPB:    8  -0.672428839774075E+00   0.110844357629338E-03   0.369218E-01   0.807257E+00   0.635608E+03   0.130720E-16
  Finished solving LPB equations
  A_corr:   -0.601865758768033     
 End minimization
 Ecorr=   1601.37038758279     
 A_corr= -0.601865758768033     
 Ecorr_band=  -1601.97225334155     
 End Solvation calculations
RMM:   4    -0.136023540575E+03    0.32648E-05   -0.18427E-05  6932   0.191E-02
 Begin Solvation calculations
  rms_SCF =   1.649772002913523E-003 tol =   1.649772002913523E-004
 Begin minimization
 Creating dielectric and ionic cavities
  area:      134.405834239554     
  volume:    642.686989115463     
  Acav:     7.056306297576589E-002
  Solving linear dielectric/ionic screening model
        iter                  A_solv                     rms
   LPB:       -0.672485870588907E+00   0.277307908679162E-01
   LPB:    0  -0.672485845442943E+00   0.275514498995648E-01  -0.418171E-04   0.000000E+00   0.287601E+02  -0.120266E-02
   LPB:    1  -0.672483971338082E+00   0.241146626841294E-02   0.874737E-02   0.000000E+00   0.644658E+02  -0.105326E-21
   LPB:    2  -0.672483812078084E+00   0.468124724611095E-03   0.153650E-01   0.483789E-01   0.159105E+03   0.285772E-17
   LPB:    3  -0.672483787653432E+00   0.276140702569404E-03   0.239037E-01   0.985805E-01   0.265202E+03   0.340981E-17
   LPB:    4  -0.672483780450001E+00   0.220252017771656E-03   0.273228E-01   0.258018E+00   0.230113E+03   0.278338E-17
   LPB:    5  -0.672483776934122E+00   0.242851888112102E-03   0.268311E-01   0.497029E+00   0.330464E+03  -0.111556E-17
   LPB:    6  -0.672483774431780E+00   0.192840079185129E-03   0.294257E-01   0.648969E+00   0.103373E+03  -0.337798E-17
   LPB:    7  -0.672483772069803E+00   0.117704965144955E-03   0.347624E-01   0.798998E+00   0.357767E+03  -0.580968E-17
  Finished solving LPB equations
  A_corr:   -0.601920709094038     
 End minimization
 Ecorr=   1601.37084022259     
 A_corr= -0.601920709094038     
 Ecorr_band=  -1601.97276093168     
 End Solvation calculations
  32 F= -.13602354E+03 E0= -.13602111E+03  d E =-.842070E-04
quench:  g(F)=  0.000E+00 g(S)=  0.000E+00 dE (1.order)= 0.000E+00
 reached required accuracy - stopping structural energy minimisation
