 vasp.5.4.4.18Apr17-6-g9f103f2a35 (build Feb 06 2024 13:54:16) complex          
  
 POSCAR found type information on POSCAR  Ni N  O 
 03/POSCAR found :  3 types and      40 ions
 scaLAPACK will be used

 ----------------------------------------------------------------------------- 
|                                                                             |
|  ADVICE TO THIS USER RUNNING 'VASP/VAMP'   (HEAR YOUR MASTER'S VOICE ...):  |
|                                                                             |
|      You enforced a specific xc-type in the INCAR file,                     |
|      a different type was found on the POTCAR file                          |
|          I HOPE YOU KNOW, WHAT YOU ARE  DOING                               |
|                                                                             |
 ----------------------------------------------------------------------------- 

 LDA part: xc-table for Pade appr. of Perdew
 POSCAR found type information on POSCAR  Ni N  O 
 00/POSCAR found :  3 types and      40 ions
 POSCAR found type information on POSCAR  Ni N  O 
 06/POSCAR found :  3 types and      40 ions
 Jacobian:    19.3150482140651     
 POSCAR, INCAR and KPOINTS ok, starting setup
 FFT: planning ...
 WAVECAR not read
 entering main loop
       N       E                     dE             d eps       ncg     rms          rms(c)
DAV:   1     0.251324940945E+04    0.25132E+04   -0.12481E+05  5976   0.112E+03
DAV:   2     0.894670394761E+02   -0.24238E+04   -0.22875E+04  5976   0.312E+02
DAV:   3    -0.201283770406E+03   -0.29075E+03   -0.25192E+03  7416   0.127E+02
DAV:   4    -0.225768122134E+03   -0.24484E+02   -0.23432E+02  6696   0.340E+01
DAV:   5    -0.226418830106E+03   -0.65071E+00   -0.64172E+00  6525   0.502E+00    0.590E+01
DAV:   6    -0.239077189545E+03   -0.12658E+02   -0.35161E+02  6900   0.119E+02    0.848E+01
DAV:   7    -0.308458544109E+03   -0.69381E+02   -0.13638E+02  7185   0.176E+02    0.129E+02
DAV:   8    -0.208243783885E+03    0.10021E+03   -0.10566E+02  7572   0.897E+01    0.706E+01
DAV:   9    -0.215147276049E+03   -0.69035E+01   -0.11795E+02  6924   0.983E+01    0.638E+01
DAV:  10    -0.206488645127E+03    0.86586E+01   -0.54625E+01  7137   0.881E+01    0.764E+01
DAV:  11    -0.194147183663E+03    0.12341E+02   -0.71828E+01  6624   0.597E+01    0.462E+01
DAV:  12    -0.189386127203E+03    0.47611E+01   -0.28499E+01  6456   0.641E+01    0.492E+01
DAV:  13    -0.189477328094E+03   -0.91201E-01   -0.14137E+01  6651   0.426E+01    0.600E+01
DAV:  14    -0.189079836627E+03    0.39749E+00   -0.16657E+01  6426   0.251E+01    0.573E+01
DAV:  15    -0.183407849711E+03    0.56720E+01   -0.95724E+00  6450   0.235E+01    0.312E+01
DAV:  16    -0.182368910811E+03    0.10389E+01   -0.56140E+00  6498   0.263E+01    0.272E+01
DAV:  17    -0.183252656484E+03   -0.88375E+00   -0.56200E+00  6531   0.231E+01    0.297E+01
DAV:  18    -0.182340865185E+03    0.91179E+00   -0.26407E+00  6318   0.172E+01    0.195E+01
DAV:  19    -0.183687140310E+03   -0.13463E+01   -0.19605E+00  6327   0.146E+01    0.276E+01
DAV:  20    -0.183602161112E+03    0.84979E-01   -0.15655E+00  6264   0.119E+01    0.225E+01
DAV:  21    -0.184151393893E+03   -0.54923E+00   -0.10511E+00  6330   0.106E+01    0.231E+01
DAV:  22    -0.184258190913E+03   -0.10680E+00   -0.16191E+00  6396   0.100E+01    0.191E+01
DAV:  23    -0.184301239157E+03   -0.43048E-01   -0.15595E+00  6381   0.110E+01    0.140E+01
DAV:  24    -0.185042635990E+03   -0.74140E+00   -0.16242E+00  6306   0.107E+01    0.113E+01
DAV:  25    -0.185497765635E+03   -0.45513E+00   -0.98991E-01  6624   0.924E+00    0.632E+00
DAV:  26    -0.186163754546E+03   -0.66599E+00   -0.46207E-01  6306   0.622E+00    0.769E+00
DAV:  27    -0.186582903337E+03   -0.41915E+00   -0.39094E-01  6330   0.546E+00    0.699E+00
DAV:  28    -0.187140747048E+03   -0.55784E+00   -0.25438E-01  6213   0.347E+00    0.734E+00
DAV:  29    -0.187634895721E+03   -0.49415E+00   -0.22528E-01  6435   0.433E+00    0.748E+00
DAV:  30    -0.189417331052E+03   -0.17824E+01   -0.91736E-01  6270   0.649E+00    0.680E+00
DAV:  31    -0.190315454030E+03   -0.89812E+00   -0.74093E-01  6390   0.676E+00    0.403E+00
DAV:  32    -0.191004180235E+03   -0.68873E+00   -0.51150E-01  6315   0.497E+00    0.620E+00
DAV:  33    -0.191226638575E+03   -0.22246E+00   -0.25744E-01  6375   0.410E+00    0.609E+00
DAV:  34    -0.191373191360E+03   -0.14655E+00   -0.11556E-01  6180   0.235E+00    0.495E+00
DAV:  35    -0.191528159310E+03   -0.15497E+00   -0.98707E-02  6210   0.225E+00    0.375E+00
DAV:  36    -0.191796408724E+03   -0.26825E+00   -0.92323E-02  6219   0.237E+00    0.406E+00
DAV:  37    -0.192170946073E+03   -0.37454E+00   -0.14289E-01  6108   0.285E+00    0.393E+00
DAV:  38    -0.192344776113E+03   -0.17383E+00   -0.79551E-02  6192   0.249E+00    0.430E+00
DAV:  39    -0.192470665599E+03   -0.12589E+00   -0.85085E-02  6171   0.258E+00    0.278E+00
DAV:  40    -0.192521960401E+03   -0.51295E-01   -0.41074E-02  6420   0.185E+00    0.239E+00
DAV:  41    -0.192548913171E+03   -0.26953E-01   -0.21888E-02  6231   0.143E+00    0.156E+00
DAV:  42    -0.192562818599E+03   -0.13905E-01   -0.71700E-03  6267   0.718E-01    0.162E+00
DAV:  43    -0.192572264367E+03   -0.94458E-02   -0.42232E-03  6444   0.603E-01    0.146E+00
DAV:  44    -0.192602053228E+03   -0.29789E-01   -0.78683E-03  6354   0.964E-01    0.172E+00
DAV:  45    -0.192682699130E+03   -0.80646E-01   -0.25429E-02  6231   0.142E+00    0.142E+00
DAV:  46    -0.192789867574E+03   -0.10717E+00   -0.25078E-02  6492   0.144E+00    0.182E+00
DAV:  47    -0.192872974100E+03   -0.83107E-01   -0.22891E-02  6336   0.132E+00    0.161E+00
DAV:  48    -0.192963590916E+03   -0.90617E-01   -0.16779E-02  6300   0.109E+00    0.170E+00
DAV:  49    -0.193027205328E+03   -0.63614E-01   -0.15588E-02  6264   0.106E+00    0.108E+00
DAV:  50    -0.193071113607E+03   -0.43908E-01   -0.11719E-02  6123   0.930E-01    0.160E+00
DAV:  51    -0.193122308549E+03   -0.51195E-01   -0.14786E-02  6267   0.105E+00    0.935E-01
DAV:  52    -0.193139982031E+03   -0.17673E-01   -0.70160E-03  6399   0.733E-01    0.949E-01
DAV:  53    -0.193170456726E+03   -0.30475E-01   -0.11370E-02  6300   0.870E-01    0.975E-01
DAV:  54    -0.193176977341E+03   -0.65206E-02   -0.48462E-03  6363   0.579E-01    0.783E-01
DAV:  55    -0.193180421997E+03   -0.34447E-02   -0.24138E-03  6273   0.481E-01    0.442E-01
DAV:  56    -0.193190550179E+03   -0.10128E-01   -0.22048E-03  6582   0.398E-01    0.433E-01
DAV:  57    -0.193197549053E+03   -0.69989E-02   -0.14573E-03  6264   0.386E-01    0.197E-01
DAV:  58    -0.193206745247E+03   -0.91962E-02   -0.10782E-03  6147   0.236E-01    0.233E-01
DAV:  59    -0.193209291502E+03   -0.25463E-02   -0.46192E-04  5634   0.205E-01    0.154E-01
DAV:  60    -0.193213808126E+03   -0.45166E-02   -0.28545E-04  4884   0.931E-02    0.879E-02
DAV:  61    -0.193215277918E+03   -0.14698E-02   -0.12094E-04  3861   0.105E-01    0.908E-02
DAV:  62    -0.193217744201E+03   -0.24663E-02   -0.21928E-04  3999   0.106E-01    0.133E-01
DAV:  63    -0.193218614267E+03   -0.87007E-03   -0.15186E-04  3843   0.910E-02    0.609E-02
DAV:  64    -0.193219155454E+03   -0.54119E-03   -0.71894E-05  3726   0.732E-02    0.465E-02
DAV:  65    -0.193219962463E+03   -0.80701E-03   -0.11691E-04  3753   0.748E-02    0.118E-01
DAV:  66    -0.193220174050E+03   -0.21159E-03   -0.45181E-05  3618   0.561E-02    0.132E-01
DAV:  67    -0.193220332906E+03   -0.15886E-03   -0.44620E-05  3558   0.588E-02    0.773E-02
DAV:  68    -0.193220554867E+03   -0.22196E-03   -0.21375E-05  3672   0.279E-02    0.592E-02
DAV:  69    -0.193220776331E+03   -0.22146E-03   -0.18332E-05  3561   0.271E-02    0.767E-02
DAV:  70    -0.193220862816E+03   -0.86484E-04   -0.88990E-06  3474   0.220E-02
   1 F= -.19322086E+03 E0= -.19321501E+03  d E =-.193221E+03  mag=    25.3352
quench:  g(F)=  0.000E+00 g(S)=  0.000E+00 dE (1.order)= 0.000E+00
 bond charge predicted
       N       E                     dE             d eps       ncg     rms          rms(c)
DAV:   1    -0.193220721246E+03    0.55085E-04   -0.22519E-02  6171   0.284E-01    0.756E-02
DAV:   2    -0.193229192175E+03   -0.84709E-02   -0.15075E-02  7044   0.930E-01    0.195E+00
DAV:   3    -0.193220040888E+03    0.91513E-02   -0.15018E-02  6636   0.935E-01    0.134E-01
DAV:   4    -0.193220871912E+03   -0.83102E-03   -0.21052E-04  3741   0.168E-01    0.104E-01
DAV:   5    -0.193220945472E+03   -0.73560E-04   -0.14314E-04  3564   0.116E-01
   2 F= -.19322095E+03 E0= -.19321509E+03  d E =-.826557E-04  mag=    25.3339
quench:  g(F)=  0.000E+00 g(S)=  0.000E+00 dE (1.order)= 0.000E+00
 bond charge predicted
       N       E                     dE             d eps       ncg     rms          rms(c)
DAV:   1    -0.193220349811E+03    0.52210E-03   -0.88055E-02  6114   0.566E-01    0.800E-02
DAV:   2    -0.193220785807E+03   -0.43600E-03   -0.28336E-03  7218   0.197E-01    0.254E-01
DAV:   3    -0.193220989538E+03   -0.20373E-03   -0.15326E-03  4170   0.316E-01    0.413E-01
DAV:   4    -0.193220785589E+03    0.20395E-03   -0.12397E-03  3633   0.300E-01    0.262E-01
DAV:   5    -0.193220713015E+03    0.72574E-04   -0.33870E-04  3387   0.184E-01
   3 F= -.19322071E+03 E0= -.19321485E+03  d E =0.232457E-03  mag=    25.3331
quench:  g(F)=  0.000E+00 g(S)=  0.000E+00 dE (1.order)= 0.000E+00
 bond charge predicted
       N       E                     dE             d eps       ncg     rms          rms(c)
DAV:   1    -0.193219826162E+03    0.95943E-03   -0.20704E-01  6024   0.867E-01    0.132E-01
DAV:   2    -0.193222594640E+03   -0.27685E-02   -0.94503E-03  8331   0.542E-01    0.100E+00
DAV:   3    -0.193220511563E+03    0.20831E-02   -0.62803E-03  6663   0.618E-01    0.384E-01
DAV:   4    -0.193220694374E+03   -0.18281E-03   -0.17245E-03  5697   0.410E-01    0.344E-01
DAV:   5    -0.193220550864E+03    0.14351E-03   -0.69631E-04  4032   0.269E-01    0.193E-01
DAV:   6    -0.193220505779E+03    0.45085E-04   -0.22078E-04  3555   0.174E-01
   4 F= -.19322051E+03 E0= -.19321468E+03  d E =0.207236E-03  mag=    25.3322
quench:  g(F)=  0.000E+00 g(S)=  0.000E+00 dE (1.order)= 0.000E+00
 bond charge predicted
       N       E                     dE             d eps       ncg     rms          rms(c)
DAV:   1    -0.193219392098E+03    0.11588E-02   -0.37659E-01  5982   0.117E+00    0.205E-01
DAV:   2    -0.193225202763E+03   -0.58107E-02   -0.18092E-02  8667   0.971E-01    0.141E+00
DAV:   3    -0.193224108356E+03    0.10944E-02   -0.20851E-02  6528   0.119E+00    0.133E+00
DAV:   4    -0.193220137173E+03    0.39712E-02   -0.98111E-03  6390   0.836E-01    0.299E-01
DAV:   5    -0.193220859636E+03   -0.72246E-03   -0.14257E-03  6270   0.407E-01    0.417E-01
DAV:   6    -0.193220399342E+03    0.46029E-03   -0.87164E-04  5871   0.348E-01    0.105E-01
DAV:   7    -0.193220517616E+03   -0.11827E-03   -0.28517E-04  3366   0.199E-01    0.179E-01
DAV:   8    -0.193220497728E+03    0.19887E-04   -0.20843E-04  3456   0.157E-01
   5 F= -.19322050E+03 E0= -.19321459E+03  d E =0.805061E-05  mag=    25.3316
quench:  g(F)=  0.000E+00 g(S)=  0.000E+00 dE (1.order)= 0.000E+00
 bond charge predicted
       N       E                     dE             d eps       ncg     rms          rms(c)
DAV:   1    -0.193218958616E+03    0.15590E-02   -0.60154E-01  5976   0.148E+00    0.225E-01
DAV:   2    -0.193222968550E+03   -0.40099E-02   -0.21553E-02  8085   0.736E-01    0.101E+00
DAV:   3    -0.193223791190E+03   -0.82264E-03   -0.15015E-02  6435   0.103E+00    0.127E+00
DAV:   4    -0.193220865127E+03    0.29261E-02   -0.97908E-03  6429   0.802E-01    0.502E-01
DAV:   5    -0.193221009332E+03   -0.14420E-03   -0.15621E-03  6258   0.413E-01    0.370E-01
DAV:   6    -0.193220699300E+03    0.31003E-03   -0.72067E-04  5691   0.323E-01    0.122E-01
DAV:   7    -0.193220925817E+03   -0.22652E-03   -0.42259E-04  3561   0.225E-01    0.260E-01
DAV:   8    -0.193220823788E+03    0.10203E-03   -0.36257E-04  3630   0.215E-01    0.168E-01
DAV:   9    -0.193220824733E+03   -0.94446E-06   -0.19386E-04  3459   0.148E-01
   6 F= -.19322082E+03 E0= -.19321485E+03  d E =-.327004E-03  mag=    25.3316
quench:  g(F)=  0.000E+00 g(S)=  0.000E+00 dE (1.order)= 0.000E+00
 bond charge predicted
       N       E                     dE             d eps       ncg     rms          rms(c)
DAV:   1    -0.193218755779E+03    0.20680E-02   -0.49978E-01  6036   0.125E+00    0.237E-01
DAV:   2    -0.193222265484E+03   -0.35097E-02   -0.26169E-02  8019   0.607E-01    0.867E-01
DAV:   3    -0.193224114535E+03   -0.18491E-02   -0.17736E-02  7236   0.102E+00    0.133E+00
DAV:   4    -0.193221112361E+03    0.30022E-02   -0.82366E-03  6600   0.802E-01    0.585E-01
DAV:   5    -0.193220493229E+03    0.61913E-03   -0.17307E-03  6867   0.458E-01    0.248E-01
DAV:   6    -0.193220576091E+03   -0.82863E-04   -0.91455E-04  5949   0.339E-01
   7 F= -.19322058E+03 E0= -.19321472E+03  d E =0.248641E-03  mag=    25.3308
quench:  g(F)=  0.000E+00 g(S)=  0.000E+00 dE (1.order)= 0.000E+00
 bond charge predicted
       N       E                     dE             d eps       ncg     rms          rms(c)
DAV:   1    -0.193221666004E+03   -0.11728E-02   -0.17121E-01  6120   0.767E-01    0.270E-01
DAV:   2    -0.193240374076E+03   -0.18708E-01   -0.33309E-02  7716   0.182E+00    0.259E+00
DAV:   3    -0.193232125471E+03    0.82486E-02   -0.62299E-02  6666   0.209E+00    0.223E+00
DAV:   4    -0.193221819879E+03    0.10306E-01   -0.24293E-02  6480   0.129E+00    0.406E-01
DAV:   5    -0.193222521469E+03   -0.70159E-03   -0.18617E-03  6699   0.431E-01    0.339E-01
DAV:   6    -0.193222260782E+03    0.26069E-03   -0.94676E-04  6210   0.306E-01    0.168E-01
DAV:   7    -0.193222270160E+03   -0.93774E-05   -0.43261E-04  4779   0.214E-01
   8 F= -.19322227E+03 E0= -.19321634E+03  d E =-.169407E-02  mag=    25.3306
quench:  g(F)=  0.000E+00 g(S)=  0.000E+00 dE (1.order)= 0.000E+00
 bond charge predicted
       N       E                     dE             d eps       ncg     rms          rms(c)
DAV:   1    -0.193222802405E+03   -0.54162E-03   -0.88908E-02  6093   0.607E-01    0.160E-01
DAV:   2    -0.193227245873E+03   -0.44435E-02   -0.91789E-03  7896   0.958E-01    0.126E+00
DAV:   3    -0.193224694132E+03    0.25517E-02   -0.11508E-02  6498   0.100E+00    0.942E-01
DAV:   4    -0.193222881809E+03    0.18123E-02   -0.42673E-03  6429   0.522E-01    0.172E-01
DAV:   5    -0.193223122877E+03   -0.24107E-03   -0.49280E-04  4536   0.244E-01    0.202E-01
DAV:   6    -0.193223045857E+03    0.77021E-04   -0.26486E-04  3549   0.179E-01
   9 F= -.19322305E+03 E0= -.19321705E+03  d E =-.775697E-03  mag=    25.3304
quench:  g(F)=  0.000E+00 g(S)=  0.000E+00 dE (1.order)= 0.000E+00
 bond charge predicted
       N       E                     dE             d eps       ncg     rms          rms(c)
DAV:   1    -0.193223984958E+03   -0.86208E-03   -0.20384E-01  5988   0.883E-01    0.142E-01
DAV:   2    -0.193225231885E+03   -0.12469E-02   -0.70258E-03  8460   0.441E-01    0.543E-01
DAV:   3    -0.193225337660E+03   -0.10578E-03   -0.43162E-03  6642   0.591E-01    0.652E-01
DAV:   4    -0.193224843754E+03    0.49391E-03   -0.38948E-03  5766   0.497E-01    0.442E-01
DAV:   5    -0.193224581580E+03    0.26217E-03   -0.76780E-04  3840   0.274E-01    0.184E-01
DAV:   6    -0.193224510424E+03    0.71157E-04   -0.25048E-04  3486   0.200E-01
  10 F= -.19322451E+03 E0= -.19321859E+03  d E =-.146457E-02  mag=    25.3297
quench:  g(F)=  0.000E+00 g(S)=  0.000E+00 dE (1.order)= 0.000E+00
 bond charge predicted
       N       E                     dE             d eps       ncg     rms          rms(c)
DAV:   1    -0.193226034542E+03   -0.14530E-02   -0.36828E-01  5976   0.120E+00    0.235E-01
DAV:   2    -0.193234053498E+03   -0.80190E-02   -0.20758E-02  8343   0.120E+00    0.166E+00
DAV:   3    -0.193232261306E+03    0.17922E-02   -0.30332E-02  6468   0.145E+00    0.166E+00
DAV:   4    -0.193226517076E+03    0.57442E-02   -0.12614E-02  6363   0.942E-01    0.326E-01
DAV:   5    -0.193227415061E+03   -0.89798E-03   -0.19294E-03  6387   0.490E-01    0.430E-01
DAV:   6    -0.193226885041E+03    0.53002E-03   -0.10133E-03  6282   0.377E-01    0.141E-01
DAV:   7    -0.193226939063E+03   -0.54022E-04   -0.33326E-04  3525   0.200E-01
  11 F= -.19322694E+03 E0= -.19322096E+03  d E =-.242864E-02  mag=    25.3285
quench:  g(F)=  0.000E+00 g(S)=  0.000E+00 dE (1.order)= 0.000E+00
 bond charge predicted
       N       E                     dE             d eps       ncg     rms          rms(c)
DAV:   1    -0.193228931064E+03   -0.20460E-02   -0.54479E-01  5976   0.143E+00    0.243E-01
DAV:   2    -0.193244581590E+03   -0.15651E-01   -0.39178E-02  9819   0.136E+00    0.256E+00
DAV:   3    -0.193230455552E+03    0.14126E-01   -0.38675E-02  7014   0.152E+00    0.837E-01
DAV:   4    -0.193230589447E+03   -0.13390E-03   -0.54475E-03  6441   0.759E-01    0.446E-01
DAV:   5    -0.193230625772E+03   -0.36324E-04   -0.19708E-03  6786   0.462E-01    0.374E-01
DAV:   6    -0.193230229559E+03    0.39621E-03   -0.99943E-04  6516   0.368E-01    0.108E-01
DAV:   7    -0.193230546267E+03   -0.31671E-03   -0.50174E-04  4341   0.259E-01    0.309E-01
DAV:   8    -0.193230277591E+03    0.26868E-03   -0.43832E-04  3681   0.248E-01    0.895E-02
DAV:   9    -0.193230352868E+03   -0.75276E-04   -0.20997E-04  3444   0.164E-01
  12 F= -.19323035E+03 E0= -.19322423E+03  d E =-.341380E-02  mag=    25.3254
quench:  g(F)=  0.000E+00 g(S)=  0.000E+00 dE (1.order)= 0.000E+00
 bond charge predicted
       N       E                     dE             d eps       ncg     rms          rms(c)
DAV:   1    -0.193229913200E+03    0.36439E-03   -0.58790E-01  5976   0.146E+00    0.243E-01
DAV:   2    -0.193234036437E+03   -0.41232E-02   -0.24592E-02  8445   0.708E-01    0.951E-01
DAV:   3    -0.193234827059E+03   -0.79062E-03   -0.16542E-02  6645   0.102E+00    0.126E+00
DAV:   4    -0.193232391443E+03    0.24356E-02   -0.10872E-02  6453   0.889E-01    0.619E-01
DAV:   5    -0.193232085592E+03    0.30585E-03   -0.25216E-03  6552   0.498E-01    0.365E-01
DAV:   6    -0.193231763002E+03    0.32259E-03   -0.10493E-03  6204   0.378E-01    0.152E-01
DAV:   7    -0.193232058446E+03   -0.29544E-03   -0.62899E-04  4677   0.284E-01    0.334E-01
DAV:   8    -0.193231778483E+03    0.27996E-03   -0.52315E-04  3996   0.269E-01    0.146E-01
DAV:   9    -0.193231805629E+03   -0.27146E-04   -0.19160E-04  3420   0.167E-01
  13 F= -.19323181E+03 E0= -.19322569E+03  d E =-.145276E-02  mag=    25.3234
quench:  g(F)=  0.000E+00 g(S)=  0.000E+00 dE (1.order)= 0.000E+00
 bond charge predicted
       N       E                     dE             d eps       ncg     rms          rms(c)
DAV:   1    -0.193233116814E+03   -0.13383E-02   -0.17777E-01  5994   0.688E-01    0.176E-01
DAV:   2    -0.193236986383E+03   -0.38696E-02   -0.14840E-02  8358   0.707E-01    0.117E+00
DAV:   3    -0.193235378033E+03    0.16083E-02   -0.13937E-02  7353   0.909E-01    0.899E-01
DAV:   4    -0.193233937068E+03    0.14410E-02   -0.39493E-03  6492   0.572E-01    0.317E-01
DAV:   5    -0.193233914748E+03    0.22320E-04   -0.74595E-04  5382   0.300E-01
  14 F= -.19323391E+03 E0= -.19322776E+03  d E =-.210912E-02  mag=    25.3224
quench:  g(F)=  0.000E+00 g(S)=  0.000E+00 dE (1.order)= 0.000E+00
 bond charge predicted
       N       E                     dE             d eps       ncg     rms          rms(c)
DAV:   1    -0.193234797431E+03   -0.86036E-03   -0.47218E-02  6147   0.512E-01    0.137E-01
DAV:   2    -0.193240877920E+03   -0.60805E-02   -0.10096E-02  7437   0.945E-01    0.158E+00
DAV:   3    -0.193237114696E+03    0.37632E-02   -0.18828E-02  6498   0.109E+00    0.108E+00
DAV:   4    -0.193234746686E+03    0.23680E-02   -0.47593E-03  5961   0.598E-01    0.136E-01
DAV:   5    -0.193235002290E+03   -0.25560E-03   -0.42761E-04  4251   0.226E-01    0.188E-01
DAV:   6    -0.193234924702E+03    0.77588E-04   -0.27428E-04  3534   0.177E-01
  15 F= -.19323492E+03 E0= -.19322885E+03  d E =-.100995E-02  mag=    25.3212
quench:  g(F)=  0.000E+00 g(S)=  0.000E+00 dE (1.order)= 0.000E+00
 bond charge predicted
       N       E                     dE             d eps       ncg     rms          rms(c)
DAV:   1    -0.193236753278E+03   -0.17510E-02   -0.14361E-01  5982   0.725E-01    0.121E-01
DAV:   2    -0.193237911864E+03   -0.11586E-02   -0.50899E-03  8667   0.448E-01    0.550E-01
DAV:   3    -0.193237635226E+03    0.27664E-03   -0.33681E-03  6555   0.535E-01    0.537E-01
DAV:   4    -0.193237239956E+03    0.39527E-03   -0.24496E-03  4866   0.393E-01    0.311E-01
DAV:   5    -0.193237188129E+03    0.51827E-04   -0.56075E-04  3570   0.227E-01
  16 F= -.19323719E+03 E0= -.19323105E+03  d E =-.226343E-02  mag=    25.3198
quench:  g(F)=  0.000E+00 g(S)=  0.000E+00 dE (1.order)= 0.000E+00
 bond charge predicted
       N       E                     dE             d eps       ncg     rms          rms(c)
DAV:   1    -0.193239458074E+03   -0.22181E-02   -0.31337E-01  6048   0.108E+00    0.171E-01
DAV:   2    -0.193241638482E+03   -0.21804E-02   -0.10091E-02  8568   0.563E-01    0.795E-01
DAV:   3    -0.193241901280E+03   -0.26280E-03   -0.85711E-03  6435   0.778E-01    0.922E-01
DAV:   4    -0.193240370919E+03    0.15304E-02   -0.55747E-03  6384   0.608E-01    0.385E-01
DAV:   5    -0.193240417336E+03   -0.46418E-04   -0.87806E-04  5283   0.322E-01
  17 F= -.19324042E+03 E0= -.19323415E+03  d E =-.322921E-02  mag=    25.3179
quench:  g(F)=  0.000E+00 g(S)=  0.000E+00 dE (1.order)= 0.000E+00
 bond charge predicted
       N       E                     dE             d eps       ncg     rms          rms(c)
DAV:   1    -0.193242647474E+03   -0.22766E-02   -0.55396E-01  5976   0.145E+00    0.232E-01
DAV:   2    -0.193247086026E+03   -0.44386E-02   -0.19181E-02  8631   0.801E-01    0.113E+00
DAV:   3    -0.193247154893E+03   -0.68866E-04   -0.18076E-02  6597   0.111E+00    0.128E+00
DAV:   4    -0.193244233561E+03    0.29213E-02   -0.93008E-03  6465   0.790E-01    0.490E-01
DAV:   5    -0.193244282344E+03   -0.48783E-04   -0.14895E-03  6012   0.397E-01    0.337E-01
DAV:   6    -0.193244029593E+03    0.25275E-03   -0.81598E-04  5589   0.321E-01    0.136E-01
DAV:   7    -0.193244298004E+03   -0.26841E-03   -0.41895E-04  3792   0.236E-01    0.271E-01
DAV:   8    -0.193244099013E+03    0.19899E-03   -0.37772E-04  3531   0.235E-01    0.109E-01
DAV:   9    -0.193244154648E+03   -0.55634E-04   -0.18168E-04  3456   0.158E-01
  18 F= -.19324415E+03 E0= -.19323794E+03  d E =-.373731E-02  mag=    25.3119
quench:  g(F)=  0.000E+00 g(S)=  0.000E+00 dE (1.order)= 0.000E+00
 bond charge predicted
       N       E                     dE             d eps       ncg     rms          rms(c)
DAV:   1    -0.193246378498E+03   -0.22795E-02   -0.82914E-01  5976   0.175E+00    0.233E-01
DAV:   2    -0.193251814215E+03   -0.54357E-02   -0.26290E-02  8307   0.746E-01    0.126E+00
DAV:   3    -0.193249503001E+03    0.23112E-02   -0.16406E-02  6474   0.999E-01    0.849E-01
DAV:   4    -0.193249381498E+03    0.12150E-03   -0.54284E-03  6354   0.748E-01    0.599E-01
DAV:   5    -0.193248462522E+03    0.91898E-03   -0.17141E-03  6405   0.502E-01    0.216E-01
DAV:   6    -0.193248467686E+03   -0.51645E-05   -0.49869E-04  4602   0.267E-01
  19 F= -.19324847E+03 E0= -.19324231E+03  d E =-.431304E-02  mag=    25.3084
quench:  g(F)=  0.000E+00 g(S)=  0.000E+00 dE (1.order)= 0.000E+00
 bond charge predicted
       N       E                     dE             d eps       ncg     rms          rms(c)
DAV:   1    -0.193250830730E+03   -0.23682E-02   -0.11160E+00  5976   0.202E+00    0.382E-01
DAV:   2    -0.193286988563E+03   -0.36158E-01   -0.82905E-02  9279   0.231E+00    0.367E+00
DAV:   3    -0.193264500578E+03    0.22488E-01   -0.11410E-01  6858   0.269E+00    0.251E+00
DAV:   4    -0.193252415382E+03    0.12085E-01   -0.26903E-02  6426   0.151E+00    0.492E-01
DAV:   5    -0.193254330610E+03   -0.19152E-02   -0.47940E-03  6783   0.730E-01    0.673E-01
DAV:   6    -0.193253111516E+03    0.12191E-02   -0.26950E-03  6771   0.588E-01    0.212E-01
DAV:   7    -0.193253341127E+03   -0.22961E-03   -0.94670E-04  6270   0.342E-01    0.265E-01
DAV:   8    -0.193253323281E+03    0.17846E-04   -0.61512E-04  4848   0.268E-01
  20 F= -.19325332E+03 E0= -.19324703E+03  d E =-.485559E-02  mag=    25.3040
quench:  g(F)=  0.000E+00 g(S)=  0.000E+00 dE (1.order)= 0.000E+00
 bond charge predicted
       N       E                     dE             d eps       ncg     rms          rms(c)
DAV:   1    -0.193250959901E+03    0.23812E-02   -0.13503E+00  6072   0.216E+00    0.344E-01
DAV:   2    -0.193263386146E+03   -0.12426E-01   -0.56768E-02  8208   0.130E+00    0.192E+00
DAV:   3    -0.193262691232E+03    0.69491E-03   -0.44210E-02  6717   0.174E+00    0.199E+00
DAV:   4    -0.193254697121E+03    0.79941E-02   -0.19613E-02  6417   0.114E+00    0.543E-01
DAV:   5    -0.193255686071E+03   -0.98895E-03   -0.31708E-03  7164   0.554E-01    0.563E-01
DAV:   6    -0.193254920746E+03    0.76532E-03   -0.20423E-03  6624   0.513E-01    0.192E-01
DAV:   7    -0.193255699698E+03   -0.77895E-03   -0.14789E-03  6264   0.419E-01    0.487E-01
DAV:   8    -0.193255085652E+03    0.61405E-03   -0.10594E-03  6102   0.390E-01    0.228E-01
DAV:   9    -0.193255137532E+03   -0.51880E-04   -0.44701E-04  3888   0.243E-01
  21 F= -.19325514E+03 E0= -.19324879E+03  d E =-.181425E-02  mag=    25.2994
quench:  g(F)=  0.000E+00 g(S)=  0.000E+00 dE (1.order)= 0.000E+00
 bond charge predicted
       N       E                     dE             d eps       ncg     rms          rms(c)
DAV:   1    -0.193256874458E+03   -0.17888E-02   -0.31526E-01  6006   0.889E-01    0.231E-01
DAV:   2    -0.193260184580E+03   -0.33101E-02   -0.19807E-02  8052   0.697E-01    0.925E-01
DAV:   3    -0.193261411719E+03   -0.12271E-02   -0.14589E-02  7008   0.986E-01    0.128E+00
DAV:   4    -0.193258376830E+03    0.30349E-02   -0.10197E-02  6429   0.809E-01    0.506E-01
DAV:   5    -0.193258232243E+03    0.14459E-03   -0.19650E-03  6570   0.443E-01    0.351E-01
DAV:   6    -0.193257980132E+03    0.25211E-03   -0.91188E-04  6159   0.343E-01    0.166E-01
DAV:   7    -0.193258347522E+03   -0.36739E-03   -0.84933E-04  5859   0.335E-01    0.379E-01
DAV:   8    -0.193257914560E+03    0.43296E-03   -0.72996E-04  5085   0.325E-01    0.111E-01
DAV:   9    -0.193257962613E+03   -0.48053E-04   -0.20481E-04  3492   0.167E-01
  22 F= -.19325796E+03 E0= -.19325165E+03  d E =-.282508E-02  mag=    25.2953
quench:  g(F)=  0.000E+00 g(S)=  0.000E+00 dE (1.order)= 0.000E+00
 bond charge predicted
       N       E                     dE             d eps       ncg     rms          rms(c)
DAV:   1    -0.193258657370E+03   -0.74281E-03   -0.44202E-02  6081   0.411E-01    0.101E-01
DAV:   2    -0.193264540509E+03   -0.58831E-02   -0.10691E-02  7617   0.866E-01    0.158E+00
DAV:   3    -0.193259260824E+03    0.52797E-02   -0.14343E-02  6783   0.933E-01    0.636E-01
DAV:   4    -0.193258715493E+03    0.54533E-03   -0.16507E-03  4527   0.373E-01    0.807E-02
DAV:   5    -0.193258850795E+03   -0.13530E-03   -0.22032E-04  3708   0.165E-01    0.147E-01
DAV:   6    -0.193258804192E+03    0.46603E-04   -0.17706E-04  3465   0.138E-01
  23 F= -.19325880E+03 E0= -.19325254E+03  d E =-.841580E-03  mag=    25.2940
quench:  g(F)=  0.000E+00 g(S)=  0.000E+00 dE (1.order)= 0.000E+00
 bond charge predicted
       N       E                     dE             d eps       ncg     rms          rms(c)
DAV:   1    -0.193259906502E+03   -0.10557E-02   -0.13684E-01  5988   0.692E-01    0.103E-01
DAV:   2    -0.193260693349E+03   -0.78685E-03   -0.42588E-03  8175   0.347E-01    0.408E-01
DAV:   3    -0.193260251922E+03    0.44143E-03   -0.12198E-03  6315   0.382E-01    0.147E-01
DAV:   4    -0.193261095592E+03   -0.84367E-03   -0.17249E-03  3786   0.338E-01    0.621E-01
DAV:   5    -0.193260284934E+03    0.81066E-03   -0.20041E-03  3825   0.347E-01    0.192E-01
DAV:   6    -0.193260261326E+03    0.23608E-04   -0.21794E-04  3477   0.164E-01
  24 F= -.19326026E+03 E0= -.19325392E+03  d E =-.145713E-02  mag=    25.2925
quench:  g(F)=  0.000E+00 g(S)=  0.000E+00 dE (1.order)= 0.000E+00
 bond charge predicted
       N       E                     dE             d eps       ncg     rms          rms(c)
DAV:   1    -0.193261619032E+03   -0.13341E-02   -0.32985E-01  5976   0.108E+00    0.189E-01
DAV:   2    -0.193266639922E+03   -0.50209E-02   -0.14831E-02  9171   0.954E-01    0.123E+00
DAV:   3    -0.193265309830E+03    0.13301E-02   -0.16425E-02  6597   0.112E+00    0.124E+00
DAV:   4    -0.193262225948E+03    0.30839E-02   -0.76782E-03  6498   0.695E-01    0.279E-01
DAV:   5    -0.193262741455E+03   -0.51551E-03   -0.12495E-03  6048   0.380E-01    0.336E-01
DAV:   6    -0.193262438207E+03    0.30325E-03   -0.71639E-04  5697   0.307E-01    0.137E-01
DAV:   7    -0.193262452101E+03   -0.13894E-04   -0.25760E-04  3432   0.179E-01
  25 F= -.19326245E+03 E0= -.19325614E+03  d E =-.219077E-02  mag=    25.2898
quench:  g(F)=  0.000E+00 g(S)=  0.000E+00 dE (1.order)= 0.000E+00
 bond charge predicted
       N       E                     dE             d eps       ncg     rms          rms(c)
DAV:   1    -0.193263624944E+03   -0.11867E-02   -0.61545E-01  5976   0.145E+00    0.211E-01
DAV:   2    -0.193270468628E+03   -0.68437E-02   -0.24921E-02  8889   0.910E-01    0.153E+00
DAV:   3    -0.193266559219E+03    0.39094E-02   -0.20248E-02  6756   0.111E+00    0.948E-01
DAV:   4    -0.193265337741E+03    0.12215E-02   -0.57159E-03  6363   0.698E-01    0.383E-01
DAV:   5    -0.193265418012E+03   -0.80271E-04   -0.12033E-03  6252   0.360E-01    0.302E-01
DAV:   6    -0.193265194239E+03    0.22377E-03   -0.70874E-04  5874   0.311E-01    0.119E-01
DAV:   7    -0.193265457646E+03   -0.26341E-03   -0.44599E-04  3843   0.245E-01    0.284E-01
DAV:   8    -0.193265262175E+03    0.19547E-03   -0.35823E-04  3636   0.222E-01    0.981E-02
DAV:   9    -0.193265295569E+03   -0.33394E-04   -0.14624E-04  3390   0.144E-01
  26 F= -.19326530E+03 E0= -.19325892E+03  d E =-.284347E-02  mag=    25.2855
quench:  g(F)=  0.000E+00 g(S)=  0.000E+00 dE (1.order)= 0.000E+00
 bond charge predicted
       N       E                     dE             d eps       ncg     rms          rms(c)
DAV:   1    -0.193265574576E+03   -0.31240E-03   -0.97461E-01  5976   0.183E+00    0.244E-01
DAV:   2    -0.193270625489E+03   -0.50509E-02   -0.29873E-02  8103   0.762E-01    0.104E+00
DAV:   3    -0.193271184469E+03   -0.55898E-03   -0.16534E-02  6600   0.104E+00    0.127E+00
DAV:   4    -0.193268827331E+03    0.23571E-02   -0.12394E-02  6465   0.925E-01    0.665E-01
DAV:   5    -0.193268581657E+03    0.24567E-03   -0.26538E-03  6321   0.549E-01    0.399E-01
DAV:   6    -0.193268116328E+03    0.46533E-03   -0.86856E-04  5883   0.378E-01    0.127E-01
DAV:   7    -0.193268432651E+03   -0.31632E-03   -0.59863E-04  4446   0.280E-01    0.298E-01
DAV:   8    -0.193268250845E+03    0.18181E-03   -0.48395E-04  4140   0.252E-01    0.142E-01
DAV:   9    -0.193268259336E+03   -0.84916E-05   -0.17627E-04  3399   0.151E-01
  27 F= -.19326826E+03 E0= -.19326183E+03  d E =-.296377E-02  mag=    25.2816
quench:  g(F)=  0.000E+00 g(S)=  0.000E+00 dE (1.order)= 0.000E+00
 bond charge predicted
       N       E                     dE             d eps       ncg     rms          rms(c)
DAV:   1    -0.193266155595E+03    0.20952E-02   -0.63642E-01  6087   0.135E+00    0.275E-01
DAV:   2    -0.193270428065E+03   -0.42725E-02   -0.31745E-02  7893   0.745E-01    0.940E-01
DAV:   3    -0.193274090863E+03   -0.36628E-02   -0.23025E-02  7380   0.121E+00    0.168E+00
DAV:   4    -0.193268789623E+03    0.53012E-02   -0.16549E-02  6588   0.104E+00    0.666E-01
DAV:   5    -0.193268329113E+03    0.46051E-03   -0.28119E-03  7188   0.531E-01    0.369E-01
DAV:   6    -0.193268149159E+03    0.17995E-03   -0.10892E-03  6639   0.369E-01    0.217E-01
DAV:   7    -0.193268552434E+03   -0.40327E-03   -0.10906E-03  6207   0.361E-01    0.412E-01
DAV:   8    -0.193268039099E+03    0.51334E-03   -0.88570E-04  5904   0.353E-01    0.107E-01
DAV:   9    -0.193268231084E+03   -0.19198E-03   -0.36760E-04  3879   0.243E-01    0.235E-01
DAV:  10    -0.193268090194E+03    0.14089E-03   -0.27722E-04  3510   0.205E-01    0.108E-01
DAV:  11    -0.193268068474E+03    0.21720E-04   -0.67249E-05  3465   0.885E-02
  28 F= -.19326807E+03 E0= -.19326165E+03  d E =0.190863E-03  mag=    25.2767
quench:  g(F)=  0.000E+00 g(S)=  0.000E+00 dE (1.order)= 0.000E+00
 bond charge predicted
       N       E                     dE             d eps       ncg     rms          rms(c)
DAV:   1    -0.193269884776E+03   -0.17946E-02   -0.31668E-01  6030   0.924E-01    0.203E-01
DAV:   2    -0.193274289457E+03   -0.44047E-02   -0.20049E-02  8205   0.672E-01    0.120E+00
DAV:   3    -0.193271381575E+03    0.29079E-02   -0.10496E-02  7530   0.777E-01    0.534E-01
DAV:   4    -0.193271639239E+03   -0.25766E-03   -0.32551E-03  6702   0.569E-01    0.505E-01
DAV:   5    -0.193271093935E+03    0.54530E-03   -0.15448E-03  6381   0.397E-01    0.215E-01
DAV:   6    -0.193271156596E+03   -0.62661E-04   -0.84755E-04  5904   0.324E-01
  29 F= -.19327116E+03 E0= -.19326489E+03  d E =-.308812E-02  mag=    25.2754
quench:  g(F)=  0.000E+00 g(S)=  0.000E+00 dE (1.order)= 0.000E+00
 bond charge predicted
       N       E                     dE             d eps       ncg     rms          rms(c)
DAV:   1    -0.193271907204E+03   -0.81327E-03   -0.10990E-01  6063   0.677E-01    0.274E-01
DAV:   2    -0.193288895201E+03   -0.16988E-01   -0.26324E-02  7062   0.187E+00    0.241E+00
DAV:   3    -0.193274805504E+03    0.14090E-01   -0.30239E-02  6588   0.181E+00    0.131E+00
DAV:   4    -0.193271885496E+03    0.29200E-02   -0.88764E-03  6585   0.749E-01    0.302E-01
DAV:   5    -0.193272051115E+03   -0.16562E-03   -0.95769E-04  5991   0.299E-01    0.150E-01
DAV:   6    -0.193272103159E+03   -0.52044E-04   -0.31795E-04  3603   0.185E-01
  30 F= -.19327210E+03 E0= -.19326566E+03  d E =-.946563E-03  mag=    25.2745
quench:  g(F)=  0.000E+00 g(S)=  0.000E+00 dE (1.order)= 0.000E+00
 bond charge predicted
       N       E                     dE             d eps       ncg     rms          rms(c)
DAV:   1    -0.193272859642E+03   -0.80853E-03   -0.26788E-01  5982   0.961E-01    0.138E-01
DAV:   2    -0.193274552522E+03   -0.16929E-02   -0.90945E-03  8289   0.431E-01    0.681E-01
DAV:   3    -0.193274308077E+03    0.24444E-03   -0.60176E-03  6636   0.602E-01    0.644E-01
DAV:   4    -0.193273714968E+03    0.59311E-03   -0.27328E-03  5955   0.465E-01    0.320E-01
DAV:   5    -0.193273588909E+03    0.12606E-03   -0.46568E-04  3894   0.239E-01    0.134E-01
DAV:   6    -0.193273584199E+03    0.47094E-05   -0.23000E-04  3627   0.187E-01
  31 F= -.19327358E+03 E0= -.19326722E+03  d E =-.148104E-02  mag=    25.2729
quench:  g(F)=  0.000E+00 g(S)=  0.000E+00 dE (1.order)= 0.000E+00
 bond charge predicted
       N       E                     dE             d eps       ncg     rms          rms(c)
DAV:   1    -0.193274493982E+03   -0.90507E-03   -0.48089E-01  5976   0.128E+00    0.255E-01
DAV:   2    -0.193287377438E+03   -0.12883E-01   -0.30131E-02  8997   0.148E+00    0.211E+00
DAV:   3    -0.193281805104E+03    0.55723E-02   -0.38582E-02  6795   0.168E+00    0.177E+00
DAV:   4    -0.193275146129E+03    0.66590E-02   -0.15799E-02  6696   0.102E+00    0.332E-01
DAV:   5    -0.193275993769E+03   -0.84764E-03   -0.19519E-03  6498   0.469E-01    0.376E-01
DAV:   6    -0.193275607794E+03    0.38598E-03   -0.10131E-03  6543   0.366E-01    0.156E-01
DAV:   7    -0.193275678494E+03   -0.70700E-04   -0.40449E-04  3882   0.224E-01
  32 F= -.19327568E+03 E0= -.19326926E+03  d E =-.209429E-02  mag=    25.2711
quench:  g(F)=  0.000E+00 g(S)=  0.000E+00 dE (1.order)= 0.000E+00
 bond charge predicted
       N       E                     dE             d eps       ncg     rms          rms(c)
DAV:   1    -0.193275705472E+03   -0.97678E-04   -0.75208E-01  5976   0.161E+00    0.257E-01
DAV:   2    -0.193284400717E+03   -0.86952E-02   -0.31973E-02  8610   0.114E+00    0.166E+00
DAV:   3    -0.193282407507E+03    0.19932E-02   -0.31477E-02  6519   0.144E+00    0.162E+00
DAV:   4    -0.193277294365E+03    0.51131E-02   -0.11840E-02  6501   0.916E-01    0.326E-01
DAV:   5    -0.193278220257E+03   -0.92589E-03   -0.16901E-03  6654   0.454E-01    0.471E-01
DAV:   6    -0.193277621498E+03    0.59876E-03   -0.12135E-03  6471   0.422E-01    0.127E-01
DAV:   7    -0.193277943544E+03   -0.32205E-03   -0.62368E-04  5064   0.291E-01    0.286E-01
DAV:   8    -0.193277815664E+03    0.12788E-03   -0.47510E-04  4185   0.252E-01    0.189E-01
DAV:   9    -0.193277785344E+03    0.30320E-04   -0.19517E-04  3393   0.164E-01
  33 F= -.19327779E+03 E0= -.19327132E+03  d E =-.210685E-02  mag=    25.2692
quench:  g(F)=  0.000E+00 g(S)=  0.000E+00 dE (1.order)= 0.000E+00
 bond charge predicted
       N       E                     dE             d eps       ncg     rms          rms(c)
DAV:   1    -0.193277024150E+03    0.79151E-03   -0.34012E-01  6117   0.965E-01    0.225E-01
DAV:   2    -0.193283968075E+03   -0.69439E-02   -0.25709E-02  8496   0.956E-01    0.154E+00
DAV:   3    -0.193280673687E+03    0.32944E-02   -0.25110E-02  7896   0.121E+00    0.119E+00
DAV:   4    -0.193278299780E+03    0.23739E-02   -0.59375E-03  6546   0.714E-01    0.378E-01
DAV:   5    -0.193278328811E+03   -0.29032E-04   -0.11830E-03  6369   0.364E-01    0.336E-01
DAV:   6    -0.193278093676E+03    0.23514E-03   -0.89959E-04  6240   0.330E-01    0.161E-01
DAV:   7    -0.193278478782E+03   -0.38511E-03   -0.79425E-04  5736   0.319E-01    0.362E-01
DAV:   8    -0.193278055736E+03    0.42305E-03   -0.64744E-04  4788   0.310E-01    0.991E-02
DAV:   9    -0.193278125651E+03   -0.69915E-04   -0.21402E-04  3477   0.175E-01
  34 F= -.19327813E+03 E0= -.19327161E+03  d E =-.340307E-03  mag=    25.2666
quench:  g(F)=  0.000E+00 g(S)=  0.000E+00 dE (1.order)= 0.000E+00
 bond charge predicted
       N       E                     dE             d eps       ncg     rms          rms(c)
DAV:   1    -0.193279107460E+03   -0.10517E-02   -0.16068E-01  6096   0.684E-01    0.176E-01
DAV:   2    -0.193287791573E+03   -0.86841E-02   -0.21393E-02  9003   0.104E+00    0.190E+00
DAV:   3    -0.193280368617E+03    0.74230E-02   -0.23904E-02  7194   0.118E+00    0.821E-01
DAV:   4    -0.193279684802E+03    0.68381E-03   -0.32739E-03  6456   0.550E-01    0.236E-01
DAV:   5    -0.193279918873E+03   -0.23407E-03   -0.90756E-04  5967   0.331E-01    0.315E-01
DAV:   6    -0.193279637875E+03    0.28100E-03   -0.63335E-04  5787   0.293E-01    0.111E-01
DAV:   7    -0.193279769810E+03   -0.13194E-03   -0.37453E-04  3615   0.227E-01    0.217E-01
DAV:   8    -0.193279651500E+03    0.11831E-03   -0.26582E-04  3573   0.188E-01    0.112E-01
DAV:   9    -0.193279631386E+03    0.20113E-04   -0.83324E-05  3453   0.110E-01
  35 F= -.19327963E+03 E0= -.19327317E+03  d E =-.150574E-02  mag=    25.2660
quench:  g(F)=  0.000E+00 g(S)=  0.000E+00 dE (1.order)= 0.000E+00
 bond charge predicted
       N       E                     dE             d eps       ncg     rms          rms(c)
DAV:   1    -0.193280166249E+03   -0.51475E-03   -0.45109E-02  6000   0.403E-01    0.961E-02
DAV:   2    -0.193284755336E+03   -0.45891E-02   -0.92180E-03  8208   0.773E-01    0.135E+00
DAV:   3    -0.193280592288E+03    0.41630E-02   -0.11052E-02  6693   0.811E-01    0.576E-01
DAV:   4    -0.193280236513E+03    0.35577E-03   -0.12606E-03  4689   0.361E-01    0.925E-02
DAV:   5    -0.193280348687E+03   -0.11217E-03   -0.21856E-04  3618   0.162E-01    0.164E-01
DAV:   6    -0.193280262532E+03    0.86155E-04   -0.17057E-04  3396   0.139E-01
  36 F= -.19328026E+03 E0= -.19327382E+03  d E =-.631146E-03  mag=    25.2658
quench:  g(F)=  0.000E+00 g(S)=  0.000E+00 dE (1.order)= 0.000E+00
 bond charge predicted
       N       E                     dE             d eps       ncg     rms          rms(c)
DAV:   1    -0.193280965754E+03   -0.61707E-03   -0.11410E-01  6030   0.648E-01    0.124E-01
DAV:   2    -0.193283433056E+03   -0.24673E-02   -0.64701E-03  8907   0.657E-01    0.916E-01
DAV:   3    -0.193282575766E+03    0.85729E-03   -0.86912E-03  6465   0.779E-01    0.849E-01
DAV:   4    -0.193281093199E+03    0.14826E-02   -0.34627E-03  5430   0.477E-01    0.151E-01
DAV:   5    -0.193281345617E+03   -0.25242E-03   -0.42933E-04  4140   0.226E-01    0.232E-01
DAV:   6    -0.193281219654E+03    0.12596E-03   -0.30867E-04  3435   0.200E-01    0.805E-02
DAV:   7    -0.193281252152E+03   -0.32498E-04   -0.11576E-04  3513   0.124E-01
  37 F= -.19328125E+03 E0= -.19327479E+03  d E =-.989620E-03  mag=    25.2662
quench:  g(F)=  0.000E+00 g(S)=  0.000E+00 dE (1.order)= 0.000E+00
 bond charge predicted
       N       E                     dE             d eps       ncg     rms          rms(c)
DAV:   1    -0.193281885804E+03   -0.66615E-03   -0.18684E-01  6000   0.831E-01    0.144E-01
DAV:   2    -0.193283369089E+03   -0.14833E-02   -0.76702E-03  8463   0.500E-01    0.635E-01
DAV:   3    -0.193283458441E+03   -0.89353E-04   -0.59550E-03  6942   0.647E-01    0.762E-01
DAV:   4    -0.193282560288E+03    0.89815E-03   -0.44803E-03  6177   0.537E-01    0.393E-01
DAV:   5    -0.193282463918E+03    0.96370E-04   -0.71644E-04  4602   0.281E-01
  38 F= -.19328246E+03 E0= -.19327603E+03  d E =-.121177E-02  mag=    25.2668
quench:  g(F)=  0.000E+00 g(S)=  0.000E+00 dE (1.order)= 0.000E+00
 bond charge predicted
       N       E                     dE             d eps       ncg     rms          rms(c)
DAV:   1    -0.193282246257E+03    0.31403E-03   -0.25073E-01  5976   0.972E-01    0.179E-01
DAV:   2    -0.193292559211E+03   -0.10313E-01   -0.23594E-02  9429   0.108E+00    0.208E+00
DAV:   3    -0.193282578868E+03    0.99803E-02   -0.20628E-02  7656   0.112E+00    0.531E-01
DAV:   4    -0.193282934868E+03   -0.35600E-03   -0.22972E-03  6345   0.475E-01    0.304E-01
DAV:   5    -0.193283043805E+03   -0.10894E-03   -0.93659E-04  5700   0.292E-01    0.250E-01
DAV:   6    -0.193282965142E+03    0.78663E-04   -0.45657E-04  4746   0.264E-01
  39 F= -.19328297E+03 E0= -.19327646E+03  d E =-.501224E-03  mag=    25.2691
quench:  g(F)=  0.000E+00 g(S)=  0.000E+00 dE (1.order)= 0.000E+00
 bond charge predicted
       N       E                     dE             d eps       ncg     rms          rms(c)
DAV:   1    -0.193283192858E+03   -0.14905E-03   -0.10377E-01  6030   0.595E-01    0.240E-01
DAV:   2    -0.193298939531E+03   -0.15747E-01   -0.27334E-02  7560   0.165E+00    0.246E+00
DAV:   3    -0.193291097562E+03    0.78420E-02   -0.52684E-02  6840   0.188E+00    0.198E+00
DAV:   4    -0.193283023260E+03    0.80743E-02   -0.18051E-02  6594   0.111E+00    0.306E-01
DAV:   5    -0.193283683903E+03   -0.66064E-03   -0.12547E-03  6633   0.362E-01    0.282E-01
DAV:   6    -0.193283521340E+03    0.16256E-03   -0.73687E-04  5778   0.274E-01    0.171E-01
DAV:   7    -0.193283505522E+03    0.15818E-04   -0.34538E-04  3807   0.198E-01
  40 F= -.19328351E+03 E0= -.19327699E+03  d E =-.540380E-03  mag=    25.2709
quench:  g(F)=  0.000E+00 g(S)=  0.000E+00 dE (1.order)= 0.000E+00
 bond charge predicted
       N       E                     dE             d eps       ncg     rms          rms(c)
DAV:   1    -0.193283639144E+03   -0.11780E-03   -0.30018E-02  6087   0.347E-01    0.130E-01
DAV:   2    -0.193286582325E+03   -0.29432E-02   -0.51070E-03  7188   0.807E-01    0.102E+00
DAV:   3    -0.193283915256E+03    0.26671E-02   -0.42825E-03  6462   0.764E-01    0.434E-01
DAV:   4    -0.193283742688E+03    0.17257E-03   -0.14049E-03  3909   0.295E-01    0.209E-01
DAV:   5    -0.193283695620E+03    0.47068E-04   -0.31004E-04  3537   0.168E-01
  41 F= -.19328370E+03 E0= -.19327720E+03  d E =-.190098E-03  mag=    25.2722
quench:  g(F)=  0.000E+00 g(S)=  0.000E+00 dE (1.order)= 0.000E+00
 bond charge predicted
       N       E                     dE             d eps       ncg     rms          rms(c)
DAV:   1    -0.193283541842E+03    0.20085E-03   -0.65728E-02  6108   0.477E-01    0.126E-01
DAV:   2    -0.193289313505E+03   -0.57717E-02   -0.11025E-02  8373   0.885E-01    0.155E+00
DAV:   3    -0.193284600722E+03    0.47128E-02   -0.15290E-02  6690   0.966E-01    0.768E-01
DAV:   4    -0.193283580759E+03    0.10200E-02   -0.25150E-03  5655   0.470E-01    0.141E-01
DAV:   5    -0.193283760818E+03   -0.18006E-03   -0.45986E-04  4533   0.245E-01    0.203E-01
DAV:   6    -0.193283674873E+03    0.85944E-04   -0.26611E-04  3639   0.183E-01
  42 F= -.19328367E+03 E0= -.19327728E+03  d E =0.207462E-04  mag=    25.2742
quench:  g(F)=  0.000E+00 g(S)=  0.000E+00 dE (1.order)= 0.000E+00
 bond charge predicted
       N       E                     dE             d eps       ncg     rms          rms(c)
DAV:   1    -0.193282825086E+03    0.93573E-03   -0.17413E-01  5976   0.748E-01    0.165E-01
DAV:   2    -0.193295845168E+03   -0.13020E-01   -0.26597E-02  9630   0.121E+00    0.237E+00
DAV:   3    -0.193282759277E+03    0.13086E-01   -0.26449E-02  7524   0.126E+00    0.549E-01
DAV:   4    -0.193283132558E+03   -0.37328E-03   -0.19369E-03  6423   0.450E-01    0.196E-01
DAV:   5    -0.193283376203E+03   -0.24365E-03   -0.70356E-04  5544   0.277E-01    0.281E-01
DAV:   6    -0.193283194112E+03    0.18209E-03   -0.47795E-04  4527   0.264E-01    0.144E-01
DAV:   7    -0.193283269580E+03   -0.75468E-04   -0.23065E-04  3528   0.177E-01
  43 F= -.19328327E+03 E0= -.19327685E+03  d E =0.405294E-03  mag=    25.2783
quench:  g(F)=  0.000E+00 g(S)=  0.000E+00 dE (1.order)= 0.000E+00
 bond charge predicted
       N       E                     dE             d eps       ncg     rms          rms(c)
DAV:   1    -0.193281416365E+03    0.17777E-02   -0.33283E-01  6054   0.102E+00    0.186E-01
DAV:   2    -0.193284751299E+03   -0.33349E-02   -0.12802E-02  8712   0.714E-01    0.107E+00
DAV:   3    -0.193283993943E+03    0.75736E-03   -0.12470E-02  6687   0.894E-01    0.978E-01
DAV:   4    -0.193282215206E+03    0.17787E-02   -0.63662E-03  6375   0.680E-01    0.375E-01
DAV:   5    -0.193282576287E+03   -0.36108E-03   -0.12217E-03  6186   0.396E-01    0.405E-01
DAV:   6    -0.193282078218E+03    0.49807E-03   -0.71481E-04  5514   0.345E-01    0.110E-01
DAV:   7    -0.193282223283E+03   -0.14507E-03   -0.32784E-04  3567   0.219E-01    0.208E-01
DAV:   8    -0.193282157528E+03    0.65756E-04   -0.29354E-04  3459   0.189E-01
  44 F= -.19328216E+03 E0= -.19327572E+03  d E =0.111205E-02  mag=    25.2840
quench:  g(F)=  0.000E+00 g(S)=  0.000E+00 dE (1.order)= 0.000E+00
 bond charge predicted
       N       E                     dE             d eps       ncg     rms          rms(c)
DAV:   1    -0.193279002794E+03    0.32205E-02   -0.55698E-01  5976   0.133E+00    0.213E-01
DAV:   2    -0.193281706158E+03   -0.27034E-02   -0.17136E-02  8280   0.567E-01    0.800E-01
DAV:   3    -0.193281769905E+03   -0.63747E-04   -0.10168E-02  6795   0.797E-01    0.910E-01
DAV:   4    -0.193280745510E+03    0.10244E-02   -0.60589E-03  6477   0.675E-01    0.518E-01
DAV:   5    -0.193280545604E+03    0.19991E-03   -0.14535E-03  5982   0.414E-01    0.331E-01
DAV:   6    -0.193280317474E+03    0.22813E-03   -0.71321E-04  4992   0.327E-01    0.159E-01
DAV:   7    -0.193280558471E+03   -0.24100E-03   -0.48950E-04  4257   0.268E-01    0.285E-01
DAV:   8    -0.193280335040E+03    0.22343E-03   -0.44396E-04  3813   0.256E-01    0.115E-01
DAV:   9    -0.193280344771E+03   -0.97311E-05   -0.12209E-04  3429   0.117E-01
  45 F= -.19328034E+03 E0= -.19327390E+03  d E =0.181276E-02  mag=    25.2915
quench:  g(F)=  0.000E+00 g(S)=  0.000E+00 dE (1.order)= 0.000E+00
 bond charge predicted
       N       E                     dE             d eps       ncg     rms          rms(c)
DAV:   1    -0.193275301751E+03    0.50333E-02   -0.74945E-01  5976   0.151E+00    0.257E-01
DAV:   2    -0.193285363456E+03   -0.10062E-01   -0.34194E-02  9222   0.106E+00    0.196E+00
DAV:   3    -0.193277110463E+03    0.82530E-02   -0.24145E-02  7497   0.119E+00    0.688E-01
DAV:   4    -0.193277567674E+03   -0.45721E-03   -0.48492E-03  6570   0.739E-01    0.527E-01
DAV:   5    -0.193277173631E+03    0.39404E-03   -0.21939E-03  6807   0.492E-01    0.343E-01
DAV:   6    -0.193277008827E+03    0.16480E-03   -0.10681E-03  6282   0.380E-01    0.244E-01
DAV:   7    -0.193277201441E+03   -0.19261E-03   -0.71702E-04  5253   0.305E-01    0.304E-01
DAV:   8    -0.193276966450E+03    0.23499E-03   -0.57024E-04  4545   0.283E-01    0.149E-01
DAV:   9    -0.193277046486E+03   -0.80036E-04   -0.22965E-04  3438   0.177E-01
  46 F= -.19327705E+03 E0= -.19327060E+03  d E =0.329829E-02  mag=    25.2995
quench:  g(F)=  0.000E+00 g(S)=  0.000E+00 dE (1.order)= 0.000E+00
 bond charge predicted
       N       E                     dE             d eps       ncg     rms          rms(c)
DAV:   1    -0.193272707919E+03    0.42585E-02   -0.51714E-01  5982   0.119E+00    0.241E-01
DAV:   2    -0.193277059703E+03   -0.43518E-02   -0.27685E-02  7869   0.651E-01    0.108E+00
DAV:   3    -0.193276770851E+03    0.28885E-03   -0.16997E-02  7200   0.981E-01    0.105E+00
DAV:   4    -0.193275439612E+03    0.13312E-02   -0.66020E-03  6735   0.750E-01    0.659E-01
DAV:   5    -0.193274486603E+03    0.95301E-03   -0.18727E-03  7335   0.489E-01    0.223E-01
DAV:   6    -0.193274822776E+03   -0.33617E-03   -0.10098E-03  6294   0.366E-01    0.355E-01
DAV:   7    -0.193274668317E+03    0.15446E-03   -0.76779E-04  5667   0.315E-01    0.250E-01
DAV:   8    -0.193274499806E+03    0.16851E-03   -0.45902E-04  4125   0.267E-01    0.109E-01
DAV:   9    -0.193274591072E+03   -0.91266E-04   -0.27060E-04  3555   0.181E-01
  47 F= -.19327459E+03 E0= -.19326819E+03  d E =0.245541E-02  mag=    25.3048
quench:  g(F)=  0.000E+00 g(S)=  0.000E+00 dE (1.order)= 0.000E+00
 bond charge predicted
       N       E                     dE             d eps       ncg     rms          rms(c)
DAV:   1    -0.193274433054E+03    0.66753E-04   -0.19814E-01  6060   0.721E-01    0.168E-01
DAV:   2    -0.193276461734E+03   -0.20287E-02   -0.12473E-02  7911   0.476E-01    0.766E-01
DAV:   3    -0.193276529894E+03   -0.68160E-04   -0.90682E-03  7095   0.719E-01    0.811E-01
DAV:   4    -0.193275446143E+03    0.10838E-02   -0.38734E-03  6366   0.548E-01    0.391E-01
DAV:   5    -0.193275146134E+03    0.30001E-03   -0.73921E-04  4611   0.297E-01    0.157E-01
DAV:   6    -0.193275241993E+03   -0.95859E-04   -0.52804E-04  4995   0.245E-01
  48 F= -.19327524E+03 E0= -.19326896E+03  d E =-.650921E-03  mag=    25.3081
quench:  g(F)=  0.000E+00 g(S)=  0.000E+00 dE (1.order)= 0.000E+00
 bond charge predicted
       N       E                     dE             d eps       ncg     rms          rms(c)
DAV:   1    -0.193273613362E+03    0.15328E-02   -0.87141E-02  6120   0.572E-01    0.228E-01
DAV:   2    -0.193283439282E+03   -0.98259E-02   -0.15870E-02  7164   0.148E+00    0.181E+00
DAV:   3    -0.193274560400E+03    0.88789E-02   -0.15026E-02  6522   0.138E+00    0.793E-01
DAV:   4    -0.193274017563E+03    0.54284E-03   -0.49168E-03  6279   0.550E-01    0.425E-01
DAV:   5    -0.193273719083E+03    0.29848E-03   -0.97997E-04  5076   0.286E-01    0.106E-01
DAV:   6    -0.193273840920E+03   -0.12184E-03   -0.27751E-04  3480   0.172E-01    0.192E-01
DAV:   7    -0.193273745155E+03    0.95765E-04   -0.23079E-04  3552   0.165E-01
  49 F= -.19327375E+03 E0= -.19326742E+03  d E =0.149684E-02  mag=    25.3109
quench:  g(F)=  0.000E+00 g(S)=  0.000E+00 dE (1.order)= 0.000E+00
 bond charge predicted
       N       E                     dE             d eps       ncg     rms          rms(c)
DAV:   1    -0.193270444178E+03    0.33967E-02   -0.24160E-01  5976   0.838E-01    0.175E-01
DAV:   2    -0.193274415154E+03   -0.39710E-02   -0.11458E-02  8835   0.855E-01    0.113E+00
DAV:   3    -0.193273216882E+03    0.11983E-02   -0.12679E-02  6417   0.996E-01    0.107E+00
DAV:   4    -0.193270842871E+03    0.23740E-02   -0.60429E-03  6420   0.614E-01    0.217E-01
DAV:   5    -0.193271288815E+03   -0.44594E-03   -0.86654E-04  5646   0.331E-01    0.326E-01
DAV:   6    -0.193271032650E+03    0.25616E-03   -0.56914E-04  5049   0.289E-01    0.128E-01
DAV:   7    -0.193271077752E+03   -0.45102E-04   -0.23711E-04  3522   0.177E-01
  50 F= -.19327108E+03 E0= -.19326479E+03  d E =0.266740E-02  mag=    25.3149
quench:  g(F)=  0.000E+00 g(S)=  0.000E+00 dE (1.order)= 0.000E+00
 bond charge predicted
       N       E                     dE             d eps       ncg     rms          rms(c)
DAV:   1    -0.193265492913E+03    0.55397E-02   -0.49702E-01  6072   0.122E+00    0.212E-01
DAV:   2    -0.193269360494E+03   -0.38676E-02   -0.17654E-02  8799   0.835E-01    0.984E-01
DAV:   3    -0.193269111200E+03    0.24929E-03   -0.11743E-02  6717   0.998E-01    0.113E+00
DAV:   4    -0.193266743957E+03    0.23672E-02   -0.85068E-03  6474   0.713E-01    0.422E-01
DAV:   5    -0.193267245592E+03   -0.50164E-03   -0.23460E-03  6381   0.481E-01    0.442E-01
DAV:   6    -0.193266692467E+03    0.55313E-03   -0.90387E-04  6000   0.376E-01    0.156E-01
DAV:   7    -0.193266776543E+03   -0.84076E-04   -0.36986E-04  3615   0.230E-01
  51 F= -.19326678E+03 E0= -.19326062E+03  d E =0.430121E-02  mag=    25.3196
quench:  g(F)=  0.000E+00 g(S)=  0.000E+00 dE (1.order)= 0.000E+00
 bond charge predicted
       N       E                     dE             d eps       ncg     rms          rms(c)
DAV:   1    -0.193258502558E+03    0.81899E-02   -0.85723E-01  5976   0.162E+00    0.285E-01
DAV:   2    -0.193267396391E+03   -0.88938E-02   -0.33827E-02  8790   0.123E+00    0.158E+00
DAV:   3    -0.193265902257E+03    0.14941E-02   -0.27688E-02  6480   0.147E+00    0.165E+00
DAV:   4    -0.193260571772E+03    0.53305E-02   -0.16981E-02  6480   0.103E+00    0.521E-01
DAV:   5    -0.193261500719E+03   -0.92895E-03   -0.33184E-03  6819   0.604E-01    0.545E-01
DAV:   6    -0.193260640642E+03    0.86008E-03   -0.15855E-03  6495   0.504E-01    0.188E-01
DAV:   7    -0.193260876617E+03   -0.23597E-03   -0.74735E-04  5355   0.321E-01    0.295E-01
DAV:   8    -0.193260799240E+03    0.77377E-04   -0.59080E-04  4167   0.268E-01
  52 F= -.19326080E+03 E0= -.19325459E+03  d E =0.597730E-02  mag=    25.3256
quench:  g(F)=  0.000E+00 g(S)=  0.000E+00 dE (1.order)= 0.000E+00
 bond charge predicted
       N       E                     dE             d eps       ncg     rms          rms(c)
DAV:   1    -0.193249868942E+03    0.11008E-01   -0.12583E+00  5976   0.199E+00    0.285E-01
DAV:   2    -0.193253863543E+03   -0.39946E-02   -0.36040E-02  7740   0.619E-01    0.598E-01
DAV:   3    -0.193254215249E+03   -0.35171E-03   -0.67355E-03  6903   0.872E-01    0.751E-01
DAV:   4    -0.193262224217E+03   -0.80090E-02   -0.23974E-02  6735   0.119E+00    0.207E+00
DAV:   5    -0.193252705388E+03    0.95188E-02   -0.17871E-02  6525   0.104E+00    0.412E-01
DAV:   6    -0.193253095040E+03   -0.38965E-03   -0.10005E-03  5265   0.388E-01    0.190E-01
DAV:   7    -0.193253425589E+03   -0.33055E-03   -0.62364E-04  5124   0.274E-01    0.298E-01
DAV:   8    -0.193253200817E+03    0.22477E-03   -0.57081E-04  4365   0.280E-01    0.106E-01
DAV:   9    -0.193253318106E+03   -0.11729E-03   -0.25144E-04  3444   0.179E-01    0.179E-01
DAV:  10    -0.193253252514E+03    0.65592E-04   -0.17153E-04  3459   0.149E-01
  53 F= -.19325325E+03 E0= -.19324715E+03  d E =0.754673E-02  mag=    25.3335
quench:  g(F)=  0.000E+00 g(S)=  0.000E+00 dE (1.order)= 0.000E+00
 bond charge predicted
       N       E                     dE             d eps       ncg     rms          rms(c)
DAV:   1    -0.193241158059E+03    0.12160E-01   -0.11090E+00  5976   0.176E+00    0.325E-01
DAV:   2    -0.193254582422E+03   -0.13424E-01   -0.62755E-02  8364   0.116E+00    0.215E+00
DAV:   3    -0.193244732992E+03    0.98494E-02   -0.31458E-02  8181   0.130E+00    0.674E-01
DAV:   4    -0.193246260108E+03   -0.15271E-02   -0.61969E-03  6786   0.811E-01    0.860E-01
DAV:   5    -0.193244393669E+03    0.18664E-02   -0.39777E-03  7680   0.647E-01    0.218E-01
DAV:   6    -0.193245353376E+03   -0.95971E-03   -0.19656E-03  6771   0.517E-01    0.544E-01
DAV:   7    -0.193244748697E+03    0.60468E-03   -0.17181E-03  6405   0.467E-01    0.306E-01
DAV:   8    -0.193244674958E+03    0.73738E-04   -0.75756E-04  5379   0.331E-01
  54 F= -.19324467E+03 E0= -.19323857E+03  d E =0.857756E-02  mag=    25.3399
quench:  g(F)=  0.000E+00 g(S)=  0.000E+00 dE (1.order)= 0.000E+00
 bond charge predicted
       N       E                     dE             d eps       ncg     rms          rms(c)
DAV:   1    -0.193245611849E+03   -0.86315E-03   -0.47858E-01  6009   0.113E+00    0.358E-01
DAV:   2    -0.193281064287E+03   -0.35452E-01   -0.79367E-02  8772   0.220E+00    0.383E+00
DAV:   3    -0.193256281870E+03    0.24782E-01   -0.10791E-01  7035   0.255E+00    0.227E+00
DAV:   4    -0.193246934488E+03    0.93474E-02   -0.20051E-02  6573   0.131E+00    0.426E-01
DAV:   5    -0.193248118837E+03   -0.11843E-02   -0.37437E-03  7095   0.656E-01    0.587E-01
DAV:   6    -0.193247217218E+03    0.90162E-03   -0.24892E-03  7161   0.537E-01    0.239E-01
DAV:   7    -0.193247531468E+03   -0.31425E-03   -0.14423E-03  6693   0.424E-01    0.361E-01
DAV:   8    -0.193247367801E+03    0.16367E-03   -0.97379E-04  5781   0.356E-01    0.303E-01
DAV:   9    -0.193247144748E+03    0.22305E-03   -0.39887E-04  3915   0.248E-01    0.105E-01
DAV:  10    -0.193247180361E+03   -0.35613E-04   -0.17278E-04  3561   0.128E-01
  55 F= -.19324718E+03 E0= -.19324110E+03  d E =-.250540E-02  mag=    25.3427
quench:  g(F)=  0.000E+00 g(S)=  0.000E+00 dE (1.order)= 0.000E+00
 bond charge predicted
       N       E                     dE             d eps       ncg     rms          rms(c)
DAV:   1    -0.193246109739E+03    0.10350E-02   -0.36389E-02  5982   0.345E-01    0.917E-02
DAV:   2    -0.193254214784E+03   -0.81050E-02   -0.16120E-02  7731   0.934E-01    0.190E+00
DAV:   3    -0.193245537692E+03    0.86771E-02   -0.15901E-02  7194   0.946E-01    0.255E-01
DAV:   4    -0.193246209548E+03   -0.67186E-03   -0.46545E-04  4212   0.232E-01    0.130E-01
DAV:   5    -0.193246223608E+03   -0.14060E-04   -0.18468E-04  3564   0.127E-01
  56 F= -.19324622E+03 E0= -.19324016E+03  d E =0.956753E-03  mag=    25.3438
quench:  g(F)=  0.000E+00 g(S)=  0.000E+00 dE (1.order)= 0.000E+00
 bond charge predicted
       N       E                     dE             d eps       ncg     rms          rms(c)
DAV:   1    -0.193243582486E+03    0.26271E-02   -0.10495E-01  6090   0.588E-01    0.936E-02
DAV:   2    -0.193244475745E+03   -0.89326E-03   -0.40099E-03  7848   0.351E-01    0.507E-01
DAV:   3    -0.193244330493E+03    0.14525E-03   -0.26233E-03  5583   0.433E-01    0.490E-01
DAV:   4    -0.193243874488E+03    0.45601E-03   -0.15175E-03  3708   0.310E-01    0.165E-01
DAV:   5    -0.193243940506E+03   -0.66018E-04   -0.24693E-04  3393   0.156E-01
  57 F= -.19324394E+03 E0= -.19323793E+03  d E =0.228310E-02  mag=    25.3453
quench:  g(F)=  0.000E+00 g(S)=  0.000E+00 dE (1.order)= 0.000E+00
 bond charge predicted
       N       E                     dE             d eps       ncg     rms          rms(c)
DAV:   1    -0.193239902112E+03    0.39724E-02   -0.23965E-01  6054   0.891E-01    0.142E-01
DAV:   2    -0.193244723487E+03   -0.48214E-02   -0.13965E-02  9171   0.732E-01    0.139E+00
DAV:   3    -0.193240568894E+03    0.41546E-02   -0.10695E-02  6888   0.800E-01    0.429E-01
DAV:   4    -0.193240689217E+03   -0.12032E-03   -0.16866E-03  6054   0.396E-01    0.287E-01
DAV:   5    -0.193240648544E+03    0.40672E-04   -0.58247E-04  4371   0.252E-01
  58 F= -.19324065E+03 E0= -.19323464E+03  d E =0.329196E-02  mag=    25.3469
quench:  g(F)=  0.000E+00 g(S)=  0.000E+00 dE (1.order)= 0.000E+00
 bond charge predicted
       N       E                     dE             d eps       ncg     rms          rms(c)
DAV:   1    -0.193235477442E+03    0.52118E-02   -0.42528E-01  6123   0.120E+00    0.189E-01
DAV:   2    -0.193239940853E+03   -0.44634E-02   -0.17628E-02  8379   0.754E-01    0.122E+00
DAV:   3    -0.193238249769E+03    0.16911E-02   -0.14305E-02  6555   0.949E-01    0.960E-01
DAV:   4    -0.193236578739E+03    0.16710E-02   -0.50712E-03  6381   0.608E-01    0.296E-01
DAV:   5    -0.193236966567E+03   -0.38783E-03   -0.99812E-04  5508   0.319E-01    0.356E-01
DAV:   6    -0.193236656500E+03    0.31007E-03   -0.60978E-04  4635   0.280E-01    0.915E-02
DAV:   7    -0.193236906017E+03   -0.24952E-03   -0.29635E-04  3618   0.211E-01    0.224E-01
DAV:   8    -0.193236768870E+03    0.13715E-03   -0.28507E-04  3612   0.210E-01    0.820E-02
DAV:   9    -0.193236799137E+03   -0.30266E-04   -0.11153E-04  3465   0.116E-01
  59 F= -.19323680E+03 E0= -.19323077E+03  d E =0.384941E-02  mag=    25.3502
quench:  g(F)=  0.000E+00 g(S)=  0.000E+00 dE (1.order)= 0.000E+00
 bond charge predicted
       N       E                     dE             d eps       ncg     rms          rms(c)
DAV:   1    -0.193232310172E+03    0.44587E-02   -0.37906E-01  5982   0.105E+00    0.184E-01
DAV:   2    -0.193235766762E+03   -0.34566E-02   -0.18773E-02  8058   0.586E-01    0.103E+00
DAV:   3    -0.193233847040E+03    0.19197E-02   -0.92986E-03  7917   0.709E-01    0.524E-01
DAV:   4    -0.193234008982E+03   -0.16194E-03   -0.28175E-03  6483   0.541E-01    0.495E-01
DAV:   5    -0.193233418589E+03    0.59039E-03   -0.11538E-03  5985   0.368E-01    0.163E-01
DAV:   6    -0.193233529409E+03   -0.11082E-03   -0.51369E-04  4821   0.261E-01    0.222E-01
DAV:   7    -0.193233598193E+03   -0.68784E-04   -0.49383E-04  4212   0.248E-01
  60 F= -.19323360E+03 E0= -.19322760E+03  d E =0.320094E-02  mag=    25.3526
quench:  g(F)=  0.000E+00 g(S)=  0.000E+00 dE (1.order)= 0.000E+00
 bond charge predicted
       N       E                     dE             d eps       ncg     rms          rms(c)
DAV:   1    -0.193233204948E+03    0.32446E-03   -0.14368E-01  6042   0.674E-01    0.152E-01
DAV:   2    -0.193241777208E+03   -0.85723E-02   -0.19922E-02  9147   0.979E-01    0.191E+00
DAV:   3    -0.193233446197E+03    0.83310E-02   -0.17457E-02  7884   0.992E-01    0.458E-01
DAV:   4    -0.193233884128E+03   -0.43793E-03   -0.21280E-03  6201   0.454E-01    0.321E-01
DAV:   5    -0.193233809737E+03    0.74391E-04   -0.73426E-04  4977   0.259E-01
  61 F= -.19323381E+03 E0= -.19322776E+03  d E =-.211544E-03  mag=    25.3533
quench:  g(F)=  0.000E+00 g(S)=  0.000E+00 dE (1.order)= 0.000E+00
 bond charge predicted
       N       E                     dE             d eps       ncg     rms          rms(c)
DAV:   1    -0.193232523634E+03    0.13605E-02   -0.47079E-02  6174   0.472E-01    0.132E-01
DAV:   2    -0.193241049792E+03   -0.85262E-02   -0.14243E-02  7248   0.110E+00    0.186E+00
DAV:   3    -0.193234394543E+03    0.66552E-02   -0.22599E-02  6828   0.120E+00    0.104E+00
DAV:   4    -0.193232532855E+03    0.18617E-02   -0.45095E-03  6228   0.571E-01    0.108E-01
DAV:   5    -0.193232759405E+03   -0.22655E-03   -0.37326E-04  3816   0.193E-01    0.202E-01
DAV:   6    -0.193232677357E+03    0.82047E-04   -0.27004E-04  3432   0.170E-01
  62 F= -.19323268E+03 E0= -.19322677E+03  d E =0.113238E-02  mag=    25.3541
quench:  g(F)=  0.000E+00 g(S)=  0.000E+00 dE (1.order)= 0.000E+00
 bond charge predicted
       N       E                     dE             d eps       ncg     rms          rms(c)
DAV:   1    -0.193230414043E+03    0.23454E-02   -0.12894E-01  6099   0.652E-01    0.108E-01
DAV:   2    -0.193232361536E+03   -0.19475E-02   -0.61256E-03  8397   0.538E-01    0.832E-01
DAV:   3    -0.193231581489E+03    0.78005E-03   -0.61764E-03  6396   0.637E-01    0.668E-01
DAV:   4    -0.193230690076E+03    0.89141E-03   -0.25539E-03  4833   0.418E-01    0.163E-01
DAV:   5    -0.193230882076E+03   -0.19200E-03   -0.33968E-04  3882   0.200E-01    0.213E-01
DAV:   6    -0.193230766212E+03    0.11586E-03   -0.23778E-04  3477   0.177E-01    0.605E-02
DAV:   7    -0.193230801293E+03   -0.35081E-04   -0.93173E-05  3519   0.107E-01
  63 F= -.19323080E+03 E0= -.19322485E+03  d E =0.187606E-02  mag=    25.3555
quench:  g(F)=  0.000E+00 g(S)=  0.000E+00 dE (1.order)= 0.000E+00
 bond charge predicted
       N       E                     dE             d eps       ncg     rms          rms(c)
DAV:   1    -0.193227927279E+03    0.28389E-02   -0.22985E-01  6099   0.867E-01    0.129E-01
DAV:   2    -0.193230115809E+03   -0.21885E-02   -0.92656E-03  8109   0.560E-01    0.798E-01
DAV:   3    -0.193229753985E+03    0.36182E-03   -0.72622E-03  6732   0.687E-01    0.771E-01
DAV:   4    -0.193228570776E+03    0.11832E-02   -0.37554E-03  6009   0.503E-01    0.239E-01
DAV:   5    -0.193228675322E+03   -0.10455E-03   -0.55524E-04  4113   0.248E-01    0.222E-01
DAV:   6    -0.193228565029E+03    0.11029E-03   -0.28497E-04  3867   0.201E-01    0.723E-02
DAV:   7    -0.193228666435E+03   -0.10141E-03   -0.19270E-04  3540   0.160E-01    0.181E-01
DAV:   8    -0.193228592279E+03    0.74156E-04   -0.16568E-04  3462   0.146E-01
  64 F= -.19322859E+03 E0= -.19322271E+03  d E =0.220901E-02  mag=    25.3568
quench:  g(F)=  0.000E+00 g(S)=  0.000E+00 dE (1.order)= 0.000E+00
 bond charge predicted
       N       E                     dE             d eps       ncg     rms          rms(c)
DAV:   1    -0.193225809941E+03    0.28565E-02   -0.27110E-01  5976   0.914E-01    0.156E-01
DAV:   2    -0.193228341112E+03   -0.25312E-02   -0.11722E-02  8148   0.604E-01    0.838E-01
DAV:   3    -0.193227979792E+03    0.36132E-03   -0.87355E-03  6603   0.747E-01    0.848E-01
DAV:   4    -0.193226643765E+03    0.13360E-02   -0.46060E-03  6195   0.575E-01    0.313E-01
DAV:   5    -0.193226754089E+03   -0.11032E-03   -0.75337E-04  4632   0.279E-01    0.280E-01
DAV:   6    -0.193226575938E+03    0.17815E-03   -0.46960E-04  4329   0.244E-01    0.901E-02
DAV:   7    -0.193226710911E+03   -0.13497E-03   -0.22967E-04  3471   0.188E-01    0.203E-01
DAV:   8    -0.193226598248E+03    0.11266E-03   -0.21313E-04  3618   0.180E-01    0.790E-02
DAV:   9    -0.193226611041E+03   -0.12793E-04   -0.80792E-05  3420   0.105E-01
  65 F= -.19322661E+03 E0= -.19322076E+03  d E =0.198124E-02  mag=    25.3576
quench:  g(F)=  0.000E+00 g(S)=  0.000E+00 dE (1.order)= 0.000E+00
 bond charge predicted
       N       E                     dE             d eps       ncg     rms          rms(c)
DAV:   1    -0.193226116452E+03    0.48180E-03   -0.78207E-02  5994   0.462E-01    0.101E-01
DAV:   2    -0.193226793231E+03   -0.67678E-03   -0.43224E-03  7902   0.301E-01    0.410E-01
DAV:   3    -0.193227138237E+03   -0.34501E-03   -0.33880E-03  5898   0.458E-01    0.599E-01
DAV:   4    -0.193226406515E+03    0.73172E-03   -0.18761E-03  4158   0.356E-01    0.198E-01
DAV:   5    -0.193226376106E+03    0.30409E-04   -0.21152E-04  3987   0.152E-01
  66 F= -.19322638E+03 E0= -.19322051E+03  d E =0.234935E-03  mag=    25.3580
quench:  g(F)=  0.000E+00 g(S)=  0.000E+00 dE (1.order)= 0.000E+00
 bond charge predicted
       N       E                     dE             d eps       ncg     rms          rms(c)
DAV:   1    -0.193224365116E+03    0.20414E-02   -0.91156E-02  6006   0.566E-01    0.113E-01
DAV:   2    -0.193226487994E+03   -0.21229E-02   -0.52836E-03  7869   0.632E-01    0.843E-01
DAV:   3    -0.193225083488E+03    0.14045E-02   -0.42340E-03  6465   0.645E-01    0.521E-01
DAV:   4    -0.193224598112E+03    0.48538E-03   -0.16756E-03  3840   0.319E-01    0.156E-01
DAV:   5    -0.193224720885E+03   -0.12277E-03   -0.30427E-04  3579   0.191E-01    0.184E-01
DAV:   6    -0.193224638797E+03    0.82088E-04   -0.18238E-04  3510   0.157E-01
  67 F= -.19322464E+03 E0= -.19321876E+03  d E =0.173731E-02  mag=    25.3588
quench:  g(F)=  0.000E+00 g(S)=  0.000E+00 dE (1.order)= 0.000E+00
 bond charge predicted
       N       E                     dE             d eps       ncg     rms          rms(c)
DAV:   1    -0.193221269023E+03    0.34519E-02   -0.23113E-01  5976   0.869E-01    0.138E-01
DAV:   2    -0.193225490878E+03   -0.42219E-02   -0.12341E-02  8769   0.762E-01    0.123E+00
DAV:   3    -0.193223085736E+03    0.24051E-02   -0.12081E-02  6651   0.865E-01    0.822E-01
DAV:   4    -0.193221799994E+03    0.12857E-02   -0.34488E-03  6126   0.508E-01    0.178E-01
DAV:   5    -0.193222052509E+03   -0.25251E-03   -0.62490E-04  4779   0.273E-01    0.251E-01
DAV:   6    -0.193221887312E+03    0.16520E-03   -0.38088E-04  3864   0.235E-01    0.109E-01
DAV:   7    -0.193221941681E+03   -0.54369E-04   -0.17362E-04  3378   0.149E-01
  68 F= -.19322194E+03 E0= -.19321607E+03  d E =0.269712E-02  mag=    25.3602
quench:  g(F)=  0.000E+00 g(S)=  0.000E+00 dE (1.order)= 0.000E+00
 bond charge predicted
       N       E                     dE             d eps       ncg     rms          rms(c)
DAV:   1    -0.193217514976E+03    0.43723E-02   -0.41283E-01  5982   0.116E+00    0.168E-01
DAV:   2    -0.193228173423E+03   -0.10658E-01   -0.28246E-02  9168   0.110E+00    0.209E+00
DAV:   3    -0.193218350248E+03    0.98232E-02   -0.21990E-02  7164   0.113E+00    0.541E-01
DAV:   4    -0.193218653524E+03   -0.30328E-03   -0.22533E-03  6444   0.485E-01    0.281E-01
DAV:   5    -0.193218862266E+03   -0.20874E-03   -0.84341E-04  5595   0.315E-01    0.306E-01
DAV:   6    -0.193218603034E+03    0.25923E-03   -0.49765E-04  4566   0.281E-01    0.827E-02
DAV:   7    -0.193218756427E+03   -0.15339E-03   -0.24722E-04  3417   0.188E-01    0.199E-01
DAV:   8    -0.193218690980E+03    0.65447E-04   -0.22375E-04  3513   0.174E-01
  69 F= -.19321869E+03 E0= -.19321290E+03  d E =0.325070E-02  mag=    25.3618
quench:  g(F)=  0.000E+00 g(S)=  0.000E+00 dE (1.order)= 0.000E+00
 bond charge predicted
       N       E                     dE             d eps       ncg     rms          rms(c)
DAV:   1    -0.193214581332E+03    0.41751E-02   -0.39016E-01  6078   0.109E+00    0.185E-01
DAV:   2    -0.193217903756E+03   -0.33224E-02   -0.18331E-02  7965   0.613E-01    0.964E-01
DAV:   3    -0.193216821328E+03    0.10824E-02   -0.10435E-02  7545   0.779E-01    0.754E-01
DAV:   4    -0.193216229975E+03    0.59135E-03   -0.48581E-03  6426   0.620E-01    0.481E-01
DAV:   5    -0.193215776782E+03    0.45319E-03   -0.12254E-03  5556   0.341E-01    0.212E-01
DAV:   6    -0.193215804225E+03   -0.27443E-04   -0.55039E-04  4803   0.255E-01
  70 F= -.19321580E+03 E0= -.19320990E+03  d E =0.288675E-02  mag=    25.3634
quench:  g(F)=  0.000E+00 g(S)=  0.000E+00 dE (1.order)= 0.000E+00
 bond charge predicted
       N       E                     dE             d eps       ncg     rms          rms(c)
DAV:   1    -0.193215217164E+03    0.55962E-03   -0.12873E-01  6054   0.630E-01    0.217E-01
DAV:   2    -0.193242767332E+03   -0.27550E-01   -0.54156E-02  7920   0.189E+00    0.342E+00
DAV:   3    -0.193217359175E+03    0.25408E-01   -0.65856E-02  7065   0.196E+00    0.123E+00
DAV:   4    -0.193215498160E+03    0.18610E-02   -0.71219E-03  6915   0.844E-01    0.305E-01
DAV:   5    -0.193215804686E+03   -0.30653E-03   -0.11374E-03  6339   0.344E-01    0.315E-01
DAV:   6    -0.193215604145E+03    0.20054E-03   -0.64048E-04  5313   0.268E-01    0.135E-01
DAV:   7    -0.193215610508E+03   -0.63629E-05   -0.27428E-04  3702   0.179E-01
  71 F= -.19321561E+03 E0= -.19320978E+03  d E =0.193717E-03  mag=    25.3645
quench:  g(F)=  0.000E+00 g(S)=  0.000E+00 dE (1.order)= 0.000E+00
 bond charge predicted
       N       E                     dE             d eps       ncg     rms          rms(c)
DAV:   1    -0.193212870756E+03    0.27334E-02   -0.14091E-01  6054   0.688E-01    0.150E-01
DAV:   2    -0.193218608560E+03   -0.57378E-02   -0.12574E-02  8007   0.977E-01    0.145E+00
DAV:   3    -0.193215931951E+03    0.26766E-02   -0.19095E-02  6519   0.111E+00    0.120E+00
DAV:   4    -0.193212993143E+03    0.29388E-02   -0.61286E-03  6474   0.654E-01    0.163E-01
DAV:   5    -0.193213302302E+03   -0.30916E-03   -0.60000E-04  4971   0.254E-01    0.193E-01
DAV:   6    -0.193213242085E+03    0.60217E-04   -0.27984E-04  3528   0.182E-01
  72 F= -.19321324E+03 E0= -.19320752E+03  d E =0.236842E-02  mag=    25.3655
quench:  g(F)=  0.000E+00 g(S)=  0.000E+00 dE (1.order)= 0.000E+00
 bond charge predicted
       N       E                     dE             d eps       ncg     rms          rms(c)
DAV:   1    -0.193208825528E+03    0.44768E-02   -0.34247E-01  5976   0.105E+00    0.161E-01
DAV:   2    -0.193220293128E+03   -0.11468E-01   -0.27162E-02  9327   0.113E+00    0.216E+00
DAV:   3    -0.193209389180E+03    0.10904E-01   -0.22634E-02  7332   0.117E+00    0.530E-01
DAV:   4    -0.193209703099E+03   -0.31392E-03   -0.17491E-03  6453   0.439E-01    0.230E-01
DAV:   5    -0.193209888283E+03   -0.18518E-03   -0.63688E-04  5259   0.257E-01    0.246E-01
DAV:   6    -0.193209766900E+03    0.12138E-03   -0.39180E-04  3552   0.230E-01    0.130E-01
DAV:   7    -0.193209844676E+03   -0.77776E-04   -0.20796E-04  3354   0.171E-01
  73 F= -.19320984E+03 E0= -.19320409E+03  d E =0.339741E-02  mag=    25.3674
quench:  g(F)=  0.000E+00 g(S)=  0.000E+00 dE (1.order)= 0.000E+00
 bond charge predicted
       N       E                     dE             d eps       ncg     rms          rms(c)
DAV:   1    -0.193204196467E+03    0.55704E-02   -0.60068E-01  6156   0.140E+00    0.193E-01
DAV:   2    -0.193215297333E+03   -0.11101E-01   -0.33646E-02  8550   0.110E+00    0.210E+00
DAV:   3    -0.193205670703E+03    0.96266E-02   -0.25188E-02  6960   0.121E+00    0.594E-01
DAV:   4    -0.193206050872E+03   -0.38017E-03   -0.31346E-03  6513   0.558E-01    0.381E-01
DAV:   5    -0.193205998011E+03    0.52861E-04   -0.97083E-04  6234   0.332E-01
  74 F= -.19320600E+03 E0= -.19320023E+03  d E =0.384667E-02  mag=    25.3688
quench:  g(F)=  0.000E+00 g(S)=  0.000E+00 dE (1.order)= 0.000E+00
 bond charge predicted
       N       E                     dE             d eps       ncg     rms          rms(c)
DAV:   1    -0.193199751166E+03    0.62997E-02   -0.71650E-01  5976   0.151E+00    0.232E-01
DAV:   2    -0.193203290759E+03   -0.35396E-02   -0.25031E-02  7968   0.699E-01    0.760E-01
DAV:   3    -0.193201926996E+03    0.13638E-02   -0.46815E-03  6630   0.759E-01    0.394E-01
DAV:   4    -0.193207058178E+03   -0.51312E-02   -0.11754E-02  6360   0.838E-01    0.154E+00
DAV:   5    -0.193201762150E+03    0.52960E-02   -0.11889E-02  6531   0.847E-01    0.421E-01
DAV:   6    -0.193201902383E+03   -0.14023E-03   -0.83321E-04  5052   0.338E-01    0.184E-01
DAV:   7    -0.193202233252E+03   -0.33087E-03   -0.68605E-04  5274   0.303E-01    0.326E-01
DAV:   8    -0.193201975627E+03    0.25762E-03   -0.53614E-04  4551   0.284E-01    0.127E-01
DAV:   9    -0.193202037879E+03   -0.62253E-04   -0.23089E-04  3510   0.170E-01
  75 F= -.19320204E+03 E0= -.19319626E+03  d E =0.396013E-02  mag=    25.3706
quench:  g(F)=  0.000E+00 g(S)=  0.000E+00 dE (1.order)= 0.000E+00
 bond charge predicted
       N       E                     dE             d eps       ncg     rms          rms(c)
DAV:   1    -0.193201725377E+03    0.25025E-03   -0.16423E-01  6012   0.681E-01    0.162E-01
DAV:   2    -0.193209731377E+03   -0.80060E-02   -0.19928E-02  9081   0.951E-01    0.184E+00
DAV:   3    -0.193202103806E+03    0.76276E-02   -0.16645E-02  8010   0.978E-01    0.449E-01
DAV:   4    -0.193202437613E+03   -0.33381E-03   -0.18880E-03  6381   0.467E-01    0.316E-01
DAV:   5    -0.193202346626E+03    0.90988E-04   -0.81524E-04  5223   0.283E-01
  76 F= -.19320235E+03 E0= -.19319663E+03  d E =-.308746E-03  mag=    25.3714
quench:  g(F)=  0.000E+00 g(S)=  0.000E+00 dE (1.order)= 0.000E+00
 bond charge predicted
       N       E                     dE             d eps       ncg     rms          rms(c)
DAV:   1    -0.193200475761E+03    0.19619E-02   -0.10693E-01  6012   0.649E-01    0.128E-01
DAV:   2    -0.193204819667E+03   -0.43439E-02   -0.99129E-03  7968   0.801E-01    0.131E+00
DAV:   3    -0.193202362616E+03    0.24571E-02   -0.14175E-02  6714   0.933E-01    0.924E-01
DAV:   4    -0.193200639073E+03    0.17235E-02   -0.36598E-03  5841   0.516E-01    0.130E-01
DAV:   5    -0.193200913883E+03   -0.27481E-03   -0.44009E-04  4143   0.223E-01    0.230E-01
DAV:   6    -0.193200793645E+03    0.12024E-03   -0.28243E-04  3543   0.189E-01    0.735E-02
DAV:   7    -0.193200836190E+03   -0.42545E-04   -0.84897E-05  3447   0.102E-01
  77 F= -.19320084E+03 E0= -.19319506E+03  d E =0.151044E-02  mag=    25.3730
quench:  g(F)=  0.000E+00 g(S)=  0.000E+00 dE (1.order)= 0.000E+00
 bond charge predicted
       N       E                     dE             d eps       ncg     rms          rms(c)
DAV:   1    -0.193197923169E+03    0.28705E-02   -0.26705E-01  5976   0.939E-01    0.123E-01
DAV:   2    -0.193200305050E+03   -0.23819E-02   -0.10220E-02  8019   0.523E-01    0.876E-01
DAV:   3    -0.193199078250E+03    0.12268E-02   -0.66063E-03  6282   0.629E-01    0.524E-01
DAV:   4    -0.193198716680E+03    0.36157E-03   -0.18159E-03  5109   0.388E-01    0.258E-01
DAV:   5    -0.193198759912E+03   -0.43232E-04   -0.40338E-04  3759   0.233E-01
  78 F= -.19319876E+03 E0= -.19319299E+03  d E =0.207628E-02  mag=    25.3741
quench:  g(F)=  0.000E+00 g(S)=  0.000E+00 dE (1.order)= 0.000E+00
 bond charge predicted
       N       E                     dE             d eps       ncg     rms          rms(c)
DAV:   1    -0.193194976601E+03    0.37401E-02   -0.49038E-01  5976   0.128E+00    0.170E-01
DAV:   2    -0.193198875029E+03   -0.38984E-02   -0.17865E-02  8208   0.634E-01    0.111E+00
DAV:   3    -0.193196673913E+03    0.22011E-02   -0.98985E-03  6585   0.760E-01    0.586E-01
DAV:   4    -0.193196628296E+03    0.45617E-04   -0.29388E-03  6234   0.527E-01    0.429E-01
DAV:   5    -0.193196361874E+03    0.26642E-03   -0.90572E-04  4725   0.327E-01    0.185E-01
DAV:   6    -0.193196371208E+03   -0.93342E-05   -0.27936E-04  3522   0.214E-01
  79 F= -.19319637E+03 E0= -.19319069E+03  d E =0.238870E-02  mag=    25.3756
quench:  g(F)=  0.000E+00 g(S)=  0.000E+00 dE (1.order)= 0.000E+00
 bond charge predicted
       N       E                     dE             d eps       ncg     rms          rms(c)
DAV:   1    -0.193192419240E+03    0.39426E-02   -0.62786E-01  6093   0.145E+00    0.256E-01
DAV:   2    -0.193213315270E+03   -0.20896E-01   -0.54227E-02  8778   0.163E+00    0.287E+00
DAV:   3    -0.193196585323E+03    0.16730E-01   -0.56329E-02  6888   0.184E+00    0.133E+00
DAV:   4    -0.193194014183E+03    0.25711E-02   -0.79162E-03  6537   0.838E-01    0.293E-01
DAV:   5    -0.193194632969E+03   -0.61879E-03   -0.17023E-03  6858   0.417E-01    0.404E-01
DAV:   6    -0.193194243332E+03    0.38964E-03   -0.11914E-03  6651   0.379E-01    0.136E-01
DAV:   7    -0.193194540650E+03   -0.29732E-03   -0.63844E-04  5079   0.290E-01    0.306E-01
DAV:   8    -0.193194334254E+03    0.20640E-03   -0.49163E-04  3867   0.257E-01    0.137E-01
DAV:   9    -0.193194366318E+03   -0.32064E-04   -0.19811E-04  3510   0.163E-01
  80 F= -.19319437E+03 E0= -.19318866E+03  d E =0.200489E-02  mag=    25.3780
quench:  g(F)=  0.000E+00 g(S)=  0.000E+00 dE (1.order)= 0.000E+00
 bond charge predicted
       N       E                     dE             d eps       ncg     rms          rms(c)
DAV:   1    -0.193194153319E+03    0.18094E-03   -0.21051E-01  5988   0.754E-01    0.181E-01
DAV:   2    -0.193199333904E+03   -0.51806E-02   -0.16127E-02  8631   0.826E-01    0.141E+00
DAV:   3    -0.193196350250E+03    0.29837E-02   -0.16899E-02  7269   0.102E+00    0.903E-01
DAV:   4    -0.193194944574E+03    0.14057E-02   -0.44888E-03  6420   0.584E-01    0.290E-01
DAV:   5    -0.193195020535E+03   -0.75961E-04   -0.83075E-04  5688   0.304E-01
  81 F= -.19319502E+03 E0= -.19318935E+03  d E =-.654217E-03  mag=    25.3784
quench:  g(F)=  0.000E+00 g(S)=  0.000E+00 dE (1.order)= 0.000E+00
 bond charge predicted
[...]
DAV:   3    -0.192948675523E+03   -0.27519E-03   -0.11026E-02  6699   0.846E-01    0.992E-01
DAV:   4    -0.192947065727E+03    0.16098E-02   -0.75143E-03  6450   0.689E-01    0.481E-01
DAV:   5    -0.192947103294E+03   -0.37567E-04   -0.17301E-03  5556   0.432E-01    0.347E-01
DAV:   6    -0.192946803762E+03    0.29953E-03   -0.51266E-04  4404   0.301E-01    0.138E-01
DAV:   7    -0.192947022609E+03   -0.21885E-03   -0.42869E-04  3549   0.224E-01    0.242E-01
DAV:   8    -0.192946877096E+03    0.14551E-03   -0.32331E-04  3690   0.216E-01    0.849E-02
DAV:   9    -0.192946957119E+03   -0.80023E-04   -0.16856E-04  3345   0.141E-01
 210 F= -.19294696E+03 E0= -.19294302E+03  d E =0.119391E-01  mag=    25.5120
quench:  g(F)=  0.000E+00 g(S)=  0.000E+00 dE (1.order)= 0.000E+00
 bond charge predicted
       N       E                     dE             d eps       ncg     rms          rms(c)
DAV:   1    -0.192923369842E+03    0.23507E-01   -0.12693E+00  5982   0.207E+00    0.298E-01
DAV:   2    -0.192932719454E+03   -0.93496E-02   -0.49677E-02  7992   0.977E-01    0.162E+00
DAV:   3    -0.192929365429E+03    0.33540E-02   -0.30776E-02  6606   0.131E+00    0.114E+00
DAV:   4    -0.192928515893E+03    0.84954E-03   -0.83534E-03  6444   0.934E-01    0.730E-01
DAV:   5    -0.192927417360E+03    0.10985E-02   -0.27972E-03  6549   0.644E-01    0.394E-01
DAV:   6    -0.192927187264E+03    0.23010E-03   -0.87269E-04  6141   0.355E-01    0.204E-01
DAV:   7    -0.192927465726E+03   -0.27846E-03   -0.71108E-04  4509   0.283E-01    0.319E-01
DAV:   8    -0.192927222541E+03    0.24318E-03   -0.56327E-04  4803   0.272E-01    0.125E-01
DAV:   9    -0.192927343842E+03   -0.12130E-03   -0.36838E-04  3513   0.202E-01    0.203E-01
DAV:  10    -0.192927265398E+03    0.78443E-04   -0.18405E-04  3360   0.160E-01
 211 F= -.19292727E+03 E0= -.19292347E+03  d E =0.196917E-01  mag=    25.5177
quench:  g(F)=  0.000E+00 g(S)=  0.000E+00 dE (1.order)= 0.000E+00
 bond charge predicted
       N       E                     dE             d eps       ncg     rms          rms(c)
DAV:   1    -0.192892707359E+03    0.34636E-01   -0.24047E+00  5976   0.283E+00    0.417E-01
DAV:   2    -0.192907783332E+03   -0.15076E-01   -0.90839E-02  8022   0.128E+00    0.186E+00
DAV:   3    -0.192908509518E+03   -0.72619E-03   -0.60885E-02  6768   0.187E+00    0.206E+00
DAV:   4    -0.192901643479E+03    0.68660E-02   -0.25677E-02  6444   0.145E+00    0.923E-01
DAV:   5    -0.192900646566E+03    0.99691E-03   -0.54405E-03  7002   0.842E-01    0.592E-01
DAV:   6    -0.192900059762E+03    0.58680E-03   -0.21157E-03  7137   0.546E-01    0.298E-01
DAV:   7    -0.192900378523E+03   -0.31876E-03   -0.11936E-03  5523   0.347E-01    0.358E-01
DAV:   8    -0.192900125875E+03    0.25265E-03   -0.85081E-04  6240   0.344E-01    0.204E-01
DAV:   9    -0.192900360998E+03   -0.23512E-03   -0.74543E-04  4443   0.289E-01    0.304E-01
DAV:  10    -0.192900208148E+03    0.15285E-03   -0.39452E-04  4050   0.248E-01    0.169E-01
DAV:  11    -0.192900233520E+03   -0.25372E-04   -0.14817E-04  3444   0.129E-01
 212 F= -.19290023E+03 E0= -.19289658E+03  d E =0.270319E-01  mag=    25.5257
quench:  g(F)=  0.000E+00 g(S)=  0.000E+00 dE (1.order)= 0.000E+00
 bond charge predicted
       N       E                     dE             d eps       ncg     rms          rms(c)
DAV:   1    -0.192861515387E+03    0.38693E-01   -0.35400E+00  5976   0.347E+00    0.498E-01
DAV:   2    -0.192873278949E+03   -0.11764E-01   -0.11650E-01  6723   0.898E-01    0.778E-01
DAV:   3    -0.192876175286E+03   -0.28963E-02   -0.17083E-02  6717   0.149E+00    0.119E+00
DAV:   4    -0.192877378400E+03   -0.12031E-02   -0.17395E-02  7197   0.122E+00    0.156E+00
DAV:   5    -0.192874110449E+03    0.32680E-02   -0.22106E-02  6621   0.112E+00    0.974E-01
DAV:   6    -0.192872393729E+03    0.17167E-02   -0.54424E-03  6447   0.696E-01    0.329E-01
DAV:   7    -0.192873212672E+03   -0.81894E-03   -0.17636E-03  6762   0.463E-01    0.543E-01
DAV:   8    -0.192872386521E+03    0.82615E-03   -0.15705E-03  6696   0.460E-01    0.151E-01
DAV:   9    -0.192872723201E+03   -0.33668E-03   -0.58693E-04  4617   0.291E-01    0.311E-01
DAV:  10    -0.192872482856E+03    0.24035E-03   -0.36064E-04  3723   0.235E-01    0.156E-01
DAV:  11    -0.192872490085E+03   -0.72297E-05   -0.11648E-04  3408   0.107E-01
 213 F= -.19287249E+03 E0= -.19286894E+03  d E =0.277434E-01  mag=    25.5336
quench:  g(F)=  0.000E+00 g(S)=  0.000E+00 dE (1.order)= 0.000E+00
 bond charge predicted
       N       E                     dE             d eps       ncg     rms          rms(c)
DAV:   1    -0.192866514388E+03    0.59685E-02   -0.89460E-01  6087   0.155E+00    0.343E-01
DAV:   2    -0.192871668039E+03   -0.51537E-02   -0.51986E-02  7311   0.648E-01    0.794E-01
DAV:   3    -0.192879234994E+03   -0.75670E-02   -0.33459E-02  7446   0.135E+00    0.203E+00
DAV:   4    -0.192871844503E+03    0.73905E-02   -0.27335E-02  6894   0.133E+00    0.988E-01
DAV:   5    -0.192870097637E+03    0.17469E-02   -0.43369E-03  8484   0.699E-01    0.306E-01
DAV:   6    -0.192870640480E+03   -0.54284E-03   -0.18931E-03  7461   0.518E-01    0.448E-01
DAV:   7    -0.192870613370E+03    0.27110E-04   -0.16072E-03  6471   0.448E-01    0.415E-01
DAV:   8    -0.192870264664E+03    0.34871E-03   -0.94251E-04  5661   0.362E-01    0.205E-01
DAV:   9    -0.192870492327E+03   -0.22766E-03   -0.60806E-04  4302   0.254E-01    0.238E-01
DAV:  10    -0.192870422005E+03    0.70321E-04   -0.28215E-04  3816   0.202E-01
 214 F= -.19287042E+03 E0= -.19286701E+03  d E =0.206808E-02  mag=    25.5382
quench:  g(F)=  0.000E+00 g(S)=  0.000E+00 dE (1.order)= 0.000E+00
 bond charge predicted
       N       E                     dE             d eps       ncg     rms          rms(c)
DAV:   1    -0.192867311416E+03    0.31809E-02   -0.27014E-01  5976   0.928E-01    0.209E-01
DAV:   2    -0.192886638256E+03   -0.19327E-01   -0.42606E-02  9522   0.153E+00    0.282E+00
DAV:   3    -0.192868254846E+03    0.18383E-01   -0.46609E-02  7704   0.162E+00    0.798E-01
DAV:   4    -0.192868341420E+03   -0.86574E-04   -0.31672E-03  6741   0.570E-01    0.293E-01
DAV:   5    -0.192868628130E+03   -0.28671E-03   -0.12802E-03  6708   0.372E-01    0.342E-01
DAV:   6    -0.192868298345E+03    0.32978E-03   -0.87557E-04  6405   0.337E-01    0.102E-01
DAV:   7    -0.192868502412E+03   -0.20407E-03   -0.41957E-04  3807   0.235E-01    0.252E-01
DAV:   8    -0.192868348504E+03    0.15391E-03   -0.32044E-04  3681   0.204E-01    0.897E-02
DAV:   9    -0.192868359761E+03   -0.11258E-04   -0.88716E-05  3450   0.110E-01
 215 F= -.19286836E+03 E0= -.19286493E+03  d E =0.206224E-02  mag=    25.5409
quench:  g(F)=  0.000E+00 g(S)=  0.000E+00 dE (1.order)= 0.000E+00
 bond charge predicted
       N       E                     dE             d eps       ncg     rms          rms(c)
DAV:   1    -0.192860101953E+03    0.82466E-02   -0.41171E-01  5976   0.120E+00    0.179E-01
DAV:   2    -0.192862202163E+03   -0.21002E-02   -0.15090E-02  7950   0.546E-01    0.590E-01
DAV:   3    -0.192861618335E+03    0.58383E-03   -0.39506E-03  6561   0.649E-01    0.449E-01
DAV:   4    -0.192864211830E+03   -0.25935E-02   -0.90555E-03  6264   0.718E-01    0.116E+00
DAV:   5    -0.192861289212E+03    0.29226E-02   -0.63017E-03  5739   0.616E-01    0.270E-01
DAV:   6    -0.192861289516E+03   -0.30403E-06   -0.43441E-04  4116   0.260E-01
 216 F= -.19286129E+03 E0= -.19285790E+03  d E =0.707025E-02  mag=    25.5423
quench:  g(F)=  0.000E+00 g(S)=  0.000E+00 dE (1.order)= 0.000E+00
 bond charge predicted
       N       E                     dE             d eps       ncg     rms          rms(c)
DAV:   1    -0.192848796673E+03    0.12493E-01   -0.96475E-01  5976   0.186E+00    0.338E-01
DAV:   2    -0.192865741743E+03   -0.16945E-01   -0.51960E-02  8814   0.171E+00    0.233E+00
DAV:   3    -0.192860399210E+03    0.53425E-02   -0.58629E-02  6609   0.202E+00    0.219E+00
DAV:   4    -0.192851255344E+03    0.91439E-02   -0.28537E-02  6465   0.132E+00    0.570E-01
DAV:   5    -0.192852722777E+03   -0.14674E-02   -0.44685E-03  6816   0.698E-01    0.659E-01
DAV:   6    -0.192851597007E+03    0.11258E-02   -0.23146E-03  6426   0.558E-01    0.235E-01
DAV:   7    -0.192851634049E+03   -0.37042E-04   -0.67747E-04  5448   0.303E-01
 217 F= -.19285163E+03 E0= -.19284833E+03  d E =0.965547E-02  mag=    25.5444
quench:  g(F)=  0.000E+00 g(S)=  0.000E+00 dE (1.order)= 0.000E+00
 bond charge predicted
       N       E                     dE             d eps       ncg     rms          rms(c)
DAV:   1    -0.192836240321E+03    0.15357E-01   -0.14618E+00  5976   0.227E+00    0.413E-01
DAV:   2    -0.192852007754E+03   -0.15767E-01   -0.69717E-02  8529   0.174E+00    0.200E+00
DAV:   3    -0.192841907870E+03    0.10100E-01   -0.28313E-02  6597   0.178E+00    0.940E-01
DAV:   4    -0.192847433839E+03   -0.55260E-02   -0.27557E-02  7293   0.125E+00    0.180E+00
DAV:   5    -0.192841831148E+03    0.56027E-02   -0.19238E-02  7161   0.118E+00    0.743E-01
DAV:   6    -0.192840731143E+03    0.11000E-02   -0.27860E-03  7527   0.640E-01    0.245E-01
DAV:   7    -0.192841322640E+03   -0.59150E-03   -0.14977E-03  6693   0.448E-01    0.418E-01
DAV:   8    -0.192841070522E+03    0.25212E-03   -0.11510E-03  6135   0.391E-01    0.239E-01
DAV:   9    -0.192841028763E+03    0.41758E-04   -0.53423E-04  4944   0.281E-01
 218 F= -.19284103E+03 E0= -.19283785E+03  d E =0.106053E-01  mag=    25.5478
quench:  g(F)=  0.000E+00 g(S)=  0.000E+00 dE (1.order)= 0.000E+00
 bond charge predicted
       N       E                     dE             d eps       ncg     rms          rms(c)
DAV:   1    -0.192830893786E+03    0.10177E-01   -0.12151E+00  5976   0.197E+00    0.405E-01
DAV:   2    -0.192851243402E+03   -0.20350E-01   -0.72959E-02  8364   0.171E+00    0.268E+00
DAV:   3    -0.192846590423E+03    0.46530E-02   -0.80407E-02  6720   0.220E+00    0.237E+00
DAV:   4    -0.192834342556E+03    0.12248E-01   -0.28175E-02  6450   0.138E+00    0.531E-01
DAV:   5    -0.192836087163E+03   -0.17446E-02   -0.45188E-03  7707   0.719E-01    0.707E-01
DAV:   6    -0.192834711166E+03    0.13760E-02   -0.33743E-03  6855   0.667E-01    0.247E-01
DAV:   7    -0.192835589155E+03   -0.87799E-03   -0.20387E-03  6567   0.527E-01    0.544E-01
DAV:   8    -0.192834783518E+03    0.80564E-03   -0.14596E-03  6654   0.460E-01    0.232E-01
DAV:   9    -0.192834772332E+03    0.11186E-04   -0.40907E-04  4128   0.237E-01
 219 F= -.19283477E+03 E0= -.19283163E+03  d E =0.625643E-02  mag=    25.5495
quench:  g(F)=  0.000E+00 g(S)=  0.000E+00 dE (1.order)= 0.000E+00
 bond charge predicted
       N       E                     dE             d eps       ncg     rms          rms(c)
DAV:   1    -0.192834444828E+03    0.33869E-03   -0.36098E-01  6102   0.100E+00    0.260E-01
DAV:   2    -0.192839612495E+03   -0.51677E-02   -0.25550E-02  8445   0.102E+00    0.112E+00
DAV:   3    -0.192835963938E+03    0.36486E-02   -0.84993E-03  6591   0.104E+00    0.358E-01
DAV:   4    -0.192836663464E+03   -0.69953E-03   -0.26881E-03  7578   0.528E-01    0.580E-01
DAV:   5    -0.192837440106E+03   -0.77664E-03   -0.69938E-03  6831   0.649E-01    0.898E-01
DAV:   6    -0.192835685670E+03    0.17544E-02   -0.40002E-03  5985   0.493E-01    0.159E-01
DAV:   7    -0.192836295647E+03   -0.60998E-03   -0.10266E-03  6216   0.353E-01    0.387E-01
DAV:   8    -0.192835928706E+03    0.36694E-03   -0.81751E-04  5700   0.330E-01    0.162E-01
DAV:   9    -0.192835957473E+03   -0.28766E-04   -0.26628E-04  3447   0.204E-01
 220 F= -.19283596E+03 E0= -.19283285E+03  d E =-.118514E-02  mag=    25.5510
quench:  g(F)=  0.000E+00 g(S)=  0.000E+00 dE (1.order)= 0.000E+00
 bond charge predicted
       N       E                     dE             d eps       ncg     rms          rms(c)
DAV:   1    -0.192831832941E+03    0.40958E-02   -0.24900E-01  6069   0.959E-01    0.183E-01
DAV:   2    -0.192838305393E+03   -0.64725E-02   -0.16933E-02  8685   0.103E+00    0.154E+00
DAV:   3    -0.192835845417E+03    0.24600E-02   -0.22546E-02  6573   0.119E+00    0.127E+00
DAV:   4    -0.192832265119E+03    0.35803E-02   -0.80573E-03  6435   0.728E-01    0.179E-01
DAV:   5    -0.192832892091E+03   -0.62697E-03   -0.96621E-04  6150   0.348E-01    0.321E-01
DAV:   6    -0.192832623172E+03    0.26892E-03   -0.60251E-04  5175   0.287E-01    0.113E-01
DAV:   7    -0.192832637753E+03   -0.14581E-04   -0.16586E-04  3459   0.143E-01
 221 F= -.19283264E+03 E0= -.19282959E+03  d E =0.331972E-02  mag=    25.5517
quench:  g(F)=  0.000E+00 g(S)=  0.000E+00 dE (1.order)= 0.000E+00
 bond charge predicted
       N       E                     dE             d eps       ncg     rms          rms(c)
DAV:   1    -0.192825274576E+03    0.73486E-02   -0.58911E-01  5976   0.145E+00    0.226E-01
DAV:   2    -0.192829343196E+03   -0.40686E-02   -0.22311E-02  8439   0.805E-01    0.927E-01
DAV:   3    -0.192828577677E+03    0.76552E-03   -0.94912E-03  6705   0.966E-01    0.925E-01
DAV:   4    -0.192828136185E+03    0.44149E-03   -0.10878E-02  6588   0.784E-01    0.774E-01
DAV:   5    -0.192827435327E+03    0.70086E-03   -0.41066E-03  6630   0.571E-01    0.411E-01
DAV:   6    -0.192827001043E+03    0.43428E-03   -0.84489E-04  5895   0.368E-01    0.117E-01
DAV:   7    -0.192827180439E+03   -0.17940E-03   -0.36194E-04  3702   0.233E-01    0.221E-01
DAV:   8    -0.192827153137E+03    0.27302E-04   -0.32169E-04  3429   0.198E-01
 222 F= -.19282715E+03 E0= -.19282423E+03  d E =0.548462E-02  mag=    25.5527
quench:  g(F)=  0.000E+00 g(S)=  0.000E+00 dE (1.order)= 0.000E+00
 bond charge predicted
       N       E                     dE             d eps       ncg     rms          rms(c)
DAV:   1    -0.192818604861E+03    0.85756E-02   -0.11060E+00  5976   0.200E+00    0.279E-01
DAV:   2    -0.192822412713E+03   -0.38079E-02   -0.36353E-02  6699   0.554E-01    0.537E-01
DAV:   3    -0.192826567402E+03   -0.41547E-02   -0.14131E-02  6693   0.101E+00    0.149E+00
DAV:   4    -0.192826112781E+03    0.45462E-03   -0.27187E-02  6528   0.126E+00    0.132E+00
DAV:   5    -0.192821965113E+03    0.41477E-02   -0.82597E-03  6408   0.810E-01    0.323E-01
DAV:   6    -0.192822045752E+03   -0.80639E-04   -0.59457E-04  4377   0.316E-01
 223 F= -.19282205E+03 E0= -.19281910E+03  d E =0.510739E-02  mag=    25.5534
quench:  g(F)=  0.000E+00 g(S)=  0.000E+00 dE (1.order)= 0.000E+00
 bond charge predicted
       N       E                     dE             d eps       ncg     rms          rms(c)
DAV:   1    -0.192813686695E+03    0.82784E-02   -0.12990E+00  5976   0.213E+00    0.423E-01
DAV:   2    -0.192836223205E+03   -0.22537E-01   -0.81046E-02  8733   0.193E+00    0.274E+00
DAV:   3    -0.192830144014E+03    0.60792E-02   -0.82265E-02  6759   0.226E+00    0.243E+00
DAV:   4    -0.192818447691E+03    0.11696E-01   -0.42268E-02  6423   0.163E+00    0.854E-01
DAV:   5    -0.192819438904E+03   -0.99121E-03   -0.54334E-03  7224   0.796E-01    0.710E-01
DAV:   6    -0.192818079803E+03    0.13591E-02   -0.33312E-03  7167   0.641E-01    0.244E-01
DAV:   7    -0.192818722671E+03   -0.64287E-03   -0.16528E-03  6525   0.483E-01    0.450E-01
DAV:   8    -0.192818344260E+03    0.37841E-03   -0.12642E-03  6291   0.404E-01    0.214E-01
DAV:   9    -0.192818407752E+03   -0.63493E-04   -0.51026E-04  4566   0.275E-01
 224 F= -.19281841E+03 E0= -.19281566E+03  d E =0.363800E-02  mag=    25.5541
quench:  g(F)=  0.000E+00 g(S)=  0.000E+00 dE (1.order)= 0.000E+00
 bond charge predicted
       N       E                     dE             d eps       ncg     rms          rms(c)
DAV:   1    -0.192818273901E+03    0.70358E-04   -0.42527E-01  5997   0.113E+00    0.305E-01
DAV:   2    -0.192843009227E+03   -0.24735E-01   -0.58885E-02  8787   0.184E+00    0.316E+00
DAV:   3    -0.192825412833E+03    0.17596E-01   -0.77973E-02  6945   0.213E+00    0.179E+00
DAV:   4    -0.192819371565E+03    0.60413E-02   -0.13909E-02  6579   0.105E+00    0.355E-01
DAV:   5    -0.192820406024E+03   -0.10345E-02   -0.26333E-03  7116   0.556E-01    0.505E-01
DAV:   6    -0.192819671350E+03    0.73467E-03   -0.19075E-03  6951   0.490E-01    0.166E-01
DAV:   7    -0.192820099233E+03   -0.42788E-03   -0.11068E-03  6333   0.377E-01    0.380E-01
DAV:   8    -0.192819763415E+03    0.33582E-03   -0.83797E-04  5469   0.322E-01    0.205E-01
DAV:   9    -0.192819704482E+03    0.58932E-04   -0.25104E-04  3447   0.182E-01
 225 F= -.19281970E+03 E0= -.19281698E+03  d E =-.129673E-02  mag=    25.5536
quench:  g(F)=  0.000E+00 g(S)=  0.000E+00 dE (1.order)= 0.000E+00
 bond charge predicted
       N       E                     dE             d eps       ncg     rms          rms(c)
DAV:   1    -0.192819464643E+03    0.29877E-03   -0.83061E-02  6024   0.535E-01    0.145E-01
DAV:   2    -0.192824138076E+03   -0.46734E-02   -0.10540E-02  8769   0.898E-01    0.130E+00
DAV:   3    -0.192822065020E+03    0.20731E-02   -0.17026E-02  6972   0.105E+00    0.110E+00
DAV:   4    -0.192819590806E+03    0.24742E-02   -0.58417E-03  6381   0.603E-01    0.171E-01
DAV:   5    -0.192819853781E+03   -0.26297E-03   -0.62180E-04  4980   0.252E-01    0.216E-01
DAV:   6    -0.192819743027E+03    0.11075E-03   -0.32122E-04  3960   0.187E-01    0.756E-02
DAV:   7    -0.192819791394E+03   -0.48366E-04   -0.15279E-04  3444   0.141E-01
 226 F= -.19281979E+03 E0= -.19281702E+03  d E =-.869110E-04  mag=    25.5536
quench:  g(F)=  0.000E+00 g(S)=  0.000E+00 dE (1.order)= 0.000E+00
 bond charge predicted
       N       E                     dE             d eps       ncg     rms          rms(c)
DAV:   1    -0.192818127302E+03    0.16157E-02   -0.19599E-01  6012   0.857E-01    0.148E-01
DAV:   2    -0.192823650612E+03   -0.55233E-02   -0.15240E-02  9138   0.866E-01    0.142E+00
DAV:   3    -0.192819421001E+03    0.42296E-02   -0.15752E-02  6591   0.963E-01    0.751E-01
DAV:   4    -0.192818693350E+03    0.72765E-03   -0.33100E-03  6345   0.527E-01    0.237E-01
DAV:   5    -0.192818928988E+03   -0.23564E-03   -0.75636E-04  5418   0.308E-01    0.258E-01
DAV:   6    -0.192818730898E+03    0.19809E-03   -0.41421E-04  4566   0.253E-01    0.881E-02
DAV:   7    -0.192818786313E+03   -0.55415E-04   -0.12673E-04  3465   0.127E-01
 227 F= -.19281879E+03 E0= -.19281608E+03  d E =0.100508E-02  mag=    25.5534
quench:  g(F)=  0.000E+00 g(S)=  0.000E+00 dE (1.order)= 0.000E+00
 bond charge predicted
       N       E                     dE             d eps       ncg     rms          rms(c)
DAV:   1    -0.192816365812E+03    0.23651E-02   -0.44661E-01  5976   0.128E+00    0.201E-01
DAV:   2    -0.192819813876E+03   -0.34481E-02   -0.17999E-02  8451   0.727E-01    0.929E-01
DAV:   3    -0.192819271382E+03    0.54249E-03   -0.10900E-02  6621   0.877E-01    0.911E-01
DAV:   4    -0.192818072494E+03    0.11989E-02   -0.75873E-03  6381   0.687E-01    0.525E-01
DAV:   5    -0.192818122215E+03   -0.49721E-04   -0.15646E-03  5967   0.428E-01    0.388E-01
DAV:   6    -0.192817702029E+03    0.42019E-03   -0.59685E-04  5169   0.321E-01    0.816E-02
DAV:   7    -0.192817874627E+03   -0.17260E-03   -0.23984E-04  3495   0.194E-01    0.190E-01
DAV:   8    -0.192817838783E+03    0.35844E-04   -0.25066E-04  3378   0.176E-01
 228 F= -.19281784E+03 E0= -.19281526E+03  d E =0.947529E-03  mag=    25.5529
quench:  g(F)=  0.000E+00 g(S)=  0.000E+00 dE (1.order)= 0.000E+00
 bond charge predicted
       N       E                     dE             d eps       ncg     rms          rms(c)
DAV:   1    -0.192815273928E+03    0.26007E-02   -0.78657E-01  5976   0.170E+00    0.244E-01
DAV:   2    -0.192818354990E+03   -0.30811E-02   -0.28250E-02  7215   0.547E-01    0.550E-01
DAV:   3    -0.192821437503E+03   -0.30825E-02   -0.13515E-02  6843   0.972E-01    0.130E+00
DAV:   4    -0.192819476254E+03    0.19612E-02   -0.16377E-02  6507   0.987E-01    0.965E-01
DAV:   5    -0.192817892699E+03    0.15836E-02   -0.35326E-03  6141   0.579E-01    0.302E-01
