 vasp.5.4.4.18Apr17-6-g9f103f2a35 (build Feb 06 2024 13:54:16) complex          
  
 POSCAR found type information on POSCAR  Ni N  O 
 04/POSCAR found :  3 types and      40 ions
 scaLAPACK will be used

 ----------------------------------------------------------------------------- 
|                                                                             |
|  ADVICE TO THIS USER RUNNING 'VASP/VAMP'   (HEAR YOUR MASTER'S VOICE ...):  |
|                                                                             |
|      You enforced a specific xc-type in the INCAR file,                     |
|      a different type was found on the POTCAR file                          |
|          I HOPE YOU KNOW, WHAT YOU ARE  DOING                               |
|                                                                             |
 ----------------------------------------------------------------------------- 

 LDA part: xc-table for Pade appr. of Perdew
 POSCAR found type information on POSCAR  Ni N  O 
 00/POSCAR found :  3 types and      40 ions
 POSCAR found type information on POSCAR  Ni N  O 
 06/POSCAR found :  3 types and      40 ions
 Jacobian:    19.9387148800365     
 POSCAR, INCAR and KPOINTS ok, starting setup
 FFT: planning ...
 WAVECAR not read
 entering main loop
       N       E                     dE             d eps       ncg     rms          rms(c)
DAV:   1     0.245050982514E+04    0.24505E+04   -0.12446E+05  1992   0.109E+03
DAV:   2     0.806018849701E+02   -0.23699E+04   -0.22409E+04  1992   0.306E+02
DAV:   3    -0.195802562544E+03   -0.27640E+03   -0.24096E+03  2490   0.122E+02
DAV:   4    -0.219923569565E+03   -0.24121E+02   -0.23017E+02  2346   0.326E+01
DAV:   5    -0.220656612365E+03   -0.73304E+00   -0.67976E+00  2157   0.497E+00    0.576E+01
RMM:   6    -0.234680374637E+03   -0.14024E+02   -0.41134E+02  2000   0.693E+01    0.821E+01
RMM:   7    -0.281300097094E+03   -0.46620E+02   -0.10490E+02  1992   0.307E+01    0.117E+02
RMM:   8    -0.201828057945E+03    0.79472E+02   -0.31132E+01  1997   0.173E+01    0.627E+01
RMM:   9    -0.205034577367E+03   -0.32065E+01   -0.44476E+01  2003   0.199E+01    0.713E+01
RMM:  10    -0.196108410436E+03    0.89262E+01   -0.37787E+01  2006   0.179E+01    0.572E+01
RMM:  11    -0.187168298017E+03    0.89401E+01   -0.21818E+01  2009   0.145E+01    0.486E+01
RMM:  12    -0.188697895739E+03   -0.15296E+01   -0.15449E+01  2012   0.117E+01    0.515E+01
RMM:  13    -0.183369048077E+03    0.53288E+01   -0.12302E+01  2013   0.109E+01    0.487E+01
RMM:  14    -0.185239697208E+03   -0.18706E+01   -0.66973E+00  2012   0.798E+00    0.617E+01
RMM:  15    -0.181333087425E+03    0.39066E+01   -0.32514E+00  2020   0.532E+00    0.444E+01
RMM:  16    -0.178855498991E+03    0.24776E+01   -0.13818E+00  2010   0.350E+00    0.316E+01
RMM:  17    -0.179147451945E+03   -0.29195E+00   -0.17496E+00  2018   0.392E+00    0.305E+01
RMM:  18    -0.179186856325E+03   -0.39404E-01   -0.16547E+00  2019   0.384E+00    0.218E+01
RMM:  19    -0.179317074724E+03   -0.13022E+00   -0.11303E+00  2018   0.320E+00    0.184E+01
RMM:  20    -0.179368226246E+03   -0.51152E-01   -0.80751E-01  2017   0.269E+00    0.144E+01
RMM:  21    -0.180005010899E+03   -0.63678E+00   -0.64490E-01  2013   0.235E+00    0.167E+01
RMM:  22    -0.180168685925E+03   -0.16368E+00   -0.56940E-01  2006   0.224E+00    0.124E+01
RMM:  23    -0.180936148083E+03   -0.76746E+00   -0.53816E-01  2006   0.210E+00    0.126E+01
RMM:  24    -0.182676218200E+03   -0.17401E+01   -0.87643E-01  2006   0.242E+00    0.115E+01
RMM:  25    -0.183168264954E+03   -0.49205E+00   -0.30105E-01  2010   0.151E+00    0.102E+01
RMM:  26    -0.183557315121E+03   -0.38905E+00   -0.10705E-01  2014   0.785E-01    0.962E+00
RMM:  27    -0.183954348146E+03   -0.39703E+00   -0.10086E-01  2003   0.794E-01    0.101E+01
RMM:  28    -0.184289146922E+03   -0.33480E+00   -0.10439E-01  2001   0.746E-01    0.981E+00
RMM:  29    -0.184842030696E+03   -0.55288E+00   -0.25824E-01  2003   0.104E+00    0.837E+00
RMM:  30    -0.185505220515E+03   -0.66319E+00   -0.33504E-01  2003   0.133E+00    0.899E+00
RMM:  31    -0.186358065667E+03   -0.85285E+00   -0.59245E-01  2000   0.150E+00    0.840E+00
RMM:  32    -0.186449103534E+03   -0.91038E-01   -0.76392E-02  2005   0.749E-01    0.614E+00
RMM:  33    -0.186629827222E+03   -0.18072E+00   -0.40992E-02  2002   0.547E-01    0.536E+00
RMM:  34    -0.186730069845E+03   -0.10024E+00   -0.28027E-02  2004   0.473E-01    0.378E+00
RMM:  35    -0.187124406873E+03   -0.39434E+00   -0.83735E-02  1997   0.647E-01    0.386E+00
RMM:  36    -0.187306630505E+03   -0.18222E+00   -0.37407E-02  2005   0.479E-01    0.283E+00
RMM:  37    -0.187510496480E+03   -0.20387E+00   -0.38387E-02  2001   0.477E-01    0.353E+00
RMM:  38    -0.187821784266E+03   -0.31129E+00   -0.72900E-02  1997   0.569E-01    0.323E+00
RMM:  39    -0.187963750504E+03   -0.14197E+00   -0.27418E-02  2011   0.406E-01    0.316E+00
RMM:  40    -0.188172536237E+03   -0.20879E+00   -0.41054E-02  1997   0.441E-01    0.262E+00
RMM:  41    -0.188205880037E+03   -0.33344E-01   -0.55409E-03  1994   0.205E-01    0.245E+00
RMM:  42    -0.188300313220E+03   -0.94433E-01   -0.10167E-02  1995   0.240E-01    0.205E+00
RMM:  43    -0.188349566567E+03   -0.49253E-01   -0.74559E-03  1992   0.235E-01    0.197E+00
RMM:  44    -0.188522516836E+03   -0.17295E+00   -0.27004E-02  1996   0.339E-01    0.200E+00
RMM:  45    -0.188575640710E+03   -0.53124E-01   -0.96831E-03  2004   0.255E-01    0.185E+00
RMM:  46    -0.188719148319E+03   -0.14351E+00   -0.27526E-02  1997   0.338E-01    0.188E+00
RMM:  47    -0.188746082620E+03   -0.26934E-01   -0.50623E-03  2002   0.185E-01    0.160E+00
RMM:  48    -0.188833765213E+03   -0.87683E-01   -0.12111E-02  1999   0.229E-01    0.167E+00
RMM:  49    -0.188849188041E+03   -0.15423E-01   -0.22354E-03  1982   0.125E-01    0.133E+00
RMM:  50    -0.188879765927E+03   -0.30578E-01   -0.37608E-03  1994   0.144E-01    0.751E-01
RMM:  51    -0.188887764958E+03   -0.79990E-02   -0.17653E-03  1984   0.120E-01    0.107E+00
RMM:  52    -0.188893015079E+03   -0.52501E-02   -0.62501E-04  1771   0.676E-02    0.793E-01
RMM:  53    -0.188896003221E+03   -0.29881E-02   -0.34679E-04  1430   0.538E-02    0.719E-01
RMM:  54    -0.188901473737E+03   -0.54705E-02   -0.84102E-04  1898   0.748E-02    0.461E-01
RMM:  55    -0.188904739824E+03   -0.32661E-02   -0.41559E-04  1602   0.586E-02    0.511E-01
RMM:  56    -0.188905351146E+03   -0.61132E-03   -0.66956E-04  1848   0.782E-02    0.459E-01
RMM:  57    -0.188920506061E+03   -0.15155E-01   -0.12677E-03  1972   0.902E-02    0.435E-01
RMM:  58    -0.188929903205E+03   -0.93971E-02   -0.78522E-04  1850   0.747E-02    0.302E-01
RMM:  59    -0.188944737017E+03   -0.14834E-01   -0.89325E-04  1754   0.632E-02    0.365E-01
RMM:  60    -0.188948205754E+03   -0.34687E-02   -0.23223E-04  1244   0.451E-02    0.313E-01
RMM:  61    -0.188953438798E+03   -0.52330E-02   -0.21134E-04  1253   0.332E-02    0.223E-01
RMM:  62    -0.188955221475E+03   -0.17827E-02   -0.84337E-05  1164   0.270E-02    0.139E-01
RMM:  63    -0.188957930980E+03   -0.27095E-02   -0.11571E-04  1188   0.276E-02    0.119E-01
RMM:  64    -0.188961853856E+03   -0.39229E-02   -0.17928E-04  1257   0.274E-02    0.128E-01
RMM:  65    -0.188963150844E+03   -0.12970E-02   -0.57375E-05  1163   0.208E-02    0.106E-01
RMM:  66    -0.188964084400E+03   -0.93356E-03   -0.41126E-05  1155   0.144E-02    0.170E-01
RMM:  67    -0.188965052013E+03   -0.96761E-03   -0.31605E-05  1151   0.152E-02    0.143E-01
RMM:  68    -0.188966034608E+03   -0.98260E-03   -0.33303E-05  1157   0.123E-02    0.892E-02
RMM:  69    -0.188966722259E+03   -0.68765E-03   -0.25664E-05  1143   0.105E-02    0.100E-01
RMM:  70    -0.188967256623E+03   -0.53436E-03   -0.21929E-05  1145   0.947E-03    0.769E-02
RMM:  71    -0.188967157848E+03    0.98775E-04   -0.11788E-05  1071   0.951E-03
   1 F= -.18896716E+03 E0= -.18897638E+03  d E =-.188967E+03  mag=    26.4898
quench:  g(F)=  0.000E+00 g(S)=  0.000E+00 dE (1.order)= 0.000E+00
 bond charge predicted
       N       E                     dE             d eps       ncg     rms          rms(c)
DAV:   1    -0.189033581499E+03   -0.66325E-01   -0.98301E-01  2085   0.180E+00    0.366E-01
RMM:   2    -0.189057882417E+03   -0.24301E-01   -0.49916E-02  2157   0.436E-01    0.264E+00
RMM:   3    -0.189037342825E+03    0.20540E-01   -0.48669E-03  2019   0.200E-01    0.108E+00
RMM:   4    -0.189036886299E+03    0.45653E-03   -0.27434E-03  2011   0.156E-01    0.740E-01
RMM:   5    -0.189038925471E+03   -0.20392E-02   -0.23973E-03  1999   0.142E-01    0.105E+00
RMM:   6    -0.189037009797E+03    0.19157E-02   -0.19755E-03  1996   0.138E-01    0.472E-01
RMM:   7    -0.189037598453E+03   -0.58866E-03   -0.12512E-03  1961   0.105E-01    0.686E-01
RMM:   8    -0.189036843517E+03    0.75494E-03   -0.11457E-03  1953   0.102E-01    0.483E-01
RMM:   9    -0.189036428877E+03    0.41464E-03   -0.72261E-04  1824   0.833E-02    0.315E-01
RMM:  10    -0.189036228521E+03    0.20036E-03   -0.35891E-04  1425   0.577E-02    0.254E-01
RMM:  11    -0.189036127202E+03    0.10132E-03   -0.18385E-04  1126   0.473E-02    0.115E-01
RMM:  12    -0.189036188573E+03   -0.61371E-04   -0.69128E-05  1087   0.268E-02
   2 F= -.18903619E+03 E0= -.18904582E+03  d E =-.690307E-01  mag=    26.5138
quench:  g(F)=  0.000E+00 g(S)=  0.000E+00 dE (1.order)= 0.000E+00
 bond charge predicted
       N       E                     dE             d eps       ncg     rms          rms(c)
DAV:   1    -0.189127701575E+03   -0.91574E-01   -0.32022E+00  2040   0.333E+00    0.646E-01
RMM:   2    -0.189189673337E+03   -0.61972E-01   -0.14500E-01  2137   0.780E-01    0.406E+00
RMM:   3    -0.189140890969E+03    0.48782E-01   -0.15499E-02  2020   0.362E-01    0.209E+00
RMM:   4    -0.189138531933E+03    0.23590E-02   -0.78225E-03  2039   0.262E-01    0.145E+00
RMM:   5    -0.189142863246E+03   -0.43313E-02   -0.69934E-03  2009   0.245E-01    0.185E+00
RMM:   6    -0.189136234683E+03    0.66286E-02   -0.55859E-03  2021   0.234E-01    0.834E-01
RMM:   7    -0.189137659281E+03   -0.14246E-02   -0.35821E-03  1999   0.178E-01    0.119E+00
RMM:   8    -0.189135167847E+03    0.24914E-02   -0.33289E-03  1995   0.173E-01    0.866E-01
RMM:   9    -0.189133874900E+03    0.12929E-02   -0.20560E-03  1976   0.139E-01    0.613E-01
RMM:  10    -0.189132923678E+03    0.95122E-03   -0.10016E-03  1972   0.924E-02    0.379E-01
RMM:  11    -0.189132766207E+03    0.15747E-03   -0.41097E-04  1590   0.646E-02    0.183E-01
RMM:  12    -0.189133041345E+03   -0.27514E-03   -0.16660E-04  1131   0.403E-02    0.258E-01
RMM:  13    -0.189133160024E+03   -0.11868E-03   -0.11721E-04  1106   0.377E-02    0.937E-02
RMM:  14    -0.189133318028E+03   -0.15800E-03   -0.39451E-05  1077   0.206E-02    0.873E-02
RMM:  15    -0.189133890138E+03   -0.57211E-03   -0.55609E-05  1114   0.213E-02    0.146E-01
RMM:  16    -0.189134265487E+03   -0.37535E-03   -0.45054E-05  1109   0.218E-02    0.590E-02
RMM:  17    -0.189134592745E+03   -0.32726E-03   -0.20724E-05  1097   0.131E-02    0.740E-02
RMM:  18    -0.189135125065E+03   -0.53232E-03   -0.21935E-05  1112   0.130E-02    0.519E-02
RMM:  19    -0.189135268931E+03   -0.14387E-03   -0.64284E-06  1038   0.782E-03    0.366E-02
RMM:  20    -0.189135608076E+03   -0.33914E-03   -0.78449E-06  1040   0.721E-03    0.510E-02
RMM:  21    -0.189136140887E+03   -0.53281E-03   -0.13001E-05  1081   0.824E-03    0.235E-02
RMM:  22    -0.189136345387E+03   -0.20450E-03   -0.52669E-06   948   0.609E-03    0.283E-02
RMM:  23    -0.189136899129E+03   -0.55374E-03   -0.21790E-05  1127   0.820E-03    0.430E-02
RMM:  24    -0.189137042502E+03   -0.14337E-03   -0.60373E-06   953   0.610E-03    0.346E-02
RMM:  25    -0.189137172245E+03   -0.12974E-03   -0.41993E-06   824   0.533E-03    0.313E-02
RMM:  26    -0.189137313749E+03   -0.14150E-03   -0.70949E-06   861   0.548E-03    0.121E-02
RMM:  27    -0.189137344277E+03   -0.30528E-04   -0.13026E-06   454   0.437E-03
   3 F= -.18913734E+03 E0= -.18914766E+03  d E =-.101156E+00  mag=    26.6047
quench:  g(F)=  0.000E+00 g(S)=  0.000E+00 dE (1.order)= 0.000E+00
 bond charge predicted
       N       E                     dE             d eps       ncg     rms          rms(c)
DAV:   1    -0.189227084319E+03   -0.89771E-01   -0.52208E+00  2016   0.439E+00    0.805E-01
RMM:   2    -0.189312972626E+03   -0.85888E-01   -0.22486E-01  2117   0.995E-01    0.470E+00
RMM:   3    -0.189251312713E+03    0.61660E-01   -0.25635E-02  2025   0.468E-01    0.267E+00
RMM:   4    -0.189245270486E+03    0.60422E-02   -0.11666E-02  2036   0.318E-01    0.170E+00
RMM:   5    -0.189252174519E+03   -0.69040E-02   -0.10280E-02  2002   0.298E-01    0.218E+00
RMM:   6    -0.189242643663E+03    0.95309E-02   -0.75081E-03  2019   0.271E-01    0.962E-01
RMM:   7    -0.189245789303E+03   -0.31456E-02   -0.52255E-03  1999   0.213E-01    0.148E+00
RMM:   8    -0.189241746285E+03    0.40430E-02   -0.45167E-03  1998   0.204E-01    0.981E-01
RMM:   9    -0.189239845414E+03    0.19009E-02   -0.26516E-03  1985   0.158E-01    0.551E-01
RMM:  10    -0.189239617647E+03    0.22777E-03   -0.13724E-03  1976   0.109E-01    0.550E-01
RMM:  11    -0.189238897812E+03    0.71983E-03   -0.75145E-04  1862   0.862E-02    0.216E-01
RMM:  12    -0.189239009463E+03   -0.11165E-03   -0.21148E-04  1172   0.449E-02    0.253E-01
RMM:  13    -0.189239024389E+03   -0.14926E-04   -0.13497E-04  1105   0.389E-02
   4 F= -.18923902E+03 E0= -.18924992E+03  d E =-.101680E+00  mag=    26.6338
quench:  g(F)=  0.000E+00 g(S)=  0.000E+00 dE (1.order)= 0.000E+00
 bond charge predicted
       N       E                     dE             d eps       ncg     rms          rms(c)
DAV:   1    -0.189322187925E+03   -0.83178E-01   -0.70044E+00  2016   0.518E+00    0.901E-01
RMM:   2    -0.189410233721E+03   -0.88046E-01   -0.30812E-01  2089   0.115E+00    0.448E+00
RMM:   3    -0.189354929869E+03    0.55304E-01   -0.38982E-02  2010   0.573E-01    0.285E+00
RMM:   4    -0.189351521416E+03    0.34085E-02   -0.13293E-02  2045   0.331E-01    0.225E+00
RMM:   5    -0.189353107863E+03   -0.15864E-02   -0.12577E-02  2011   0.329E-01    0.222E+00
RMM:   6    -0.189343233410E+03    0.98745E-02   -0.84787E-03  2016   0.286E-01    0.846E-01
RMM:   7    -0.189346708284E+03   -0.34749E-02   -0.49435E-03  2010   0.207E-01    0.138E+00
RMM:   8    -0.189344281779E+03    0.24265E-02   -0.39834E-03  1996   0.193E-01    0.980E-01
RMM:   9    -0.189342555585E+03    0.17262E-02   -0.25782E-03  1980   0.157E-01    0.504E-01
RMM:  10    -0.189343381665E+03   -0.82608E-03   -0.18505E-03  1984   0.128E-01    0.713E-01
RMM:  11    -0.189342080678E+03    0.13010E-02   -0.10830E-03  1941   0.105E-01    0.197E-01
RMM:  12    -0.189342135722E+03   -0.55044E-04   -0.16422E-04  1115   0.398E-02
   5 F= -.18934214E+03 E0= -.18935322E+03  d E =-.103111E+00  mag=    26.6554
quench:  g(F)=  0.000E+00 g(S)=  0.000E+00 dE (1.order)= 0.000E+00
 bond charge predicted
       N       E                     dE             d eps       ncg     rms          rms(c)
DAV:   1    -0.189420353810E+03   -0.78273E-01   -0.89428E+00  1992   0.591E+00    0.962E-01
RMM:   2    -0.189505450402E+03   -0.85097E-01   -0.37139E-01  2110   0.123E+00    0.413E+00
RMM:   3    -0.189466756481E+03    0.38694E-01   -0.45926E-02  2014   0.610E-01    0.335E+00
RMM:   4    -0.189458240668E+03    0.85158E-02   -0.17183E-02  2037   0.378E-01    0.247E+00
RMM:   5    -0.189458030941E+03    0.20973E-03   -0.14298E-02  2013   0.361E-01    0.228E+00
RMM:   6    -0.189446865041E+03    0.11166E-01   -0.85710E-03  2011   0.293E-01    0.674E-01
RMM:   7    -0.189449183090E+03   -0.23180E-02   -0.36062E-03  2000   0.176E-01    0.103E+00
RMM:   8    -0.189448787295E+03    0.39580E-03   -0.26288E-03  1993   0.156E-01    0.737E-01
RMM:   9    -0.189448107598E+03    0.67970E-03   -0.17859E-03  1973   0.131E-01    0.471E-01
RMM:  10    -0.189449142642E+03   -0.10350E-02   -0.14069E-03  1986   0.113E-01    0.693E-01
RMM:  11    -0.189448017719E+03    0.11249E-02   -0.87747E-04  1887   0.951E-02    0.185E-01
RMM:  12    -0.189448098922E+03   -0.81202E-04   -0.14786E-04  1120   0.377E-02
   6 F= -.18944810E+03 E0= -.18945923E+03  d E =-.105963E+00  mag=    26.6582
quench:  g(F)=  0.000E+00 g(S)=  0.000E+00 dE (1.order)= 0.000E+00
 bond charge predicted
       N       E                     dE             d eps       ncg     rms          rms(c)
DAV:   1    -0.189519606278E+03   -0.71589E-01   -0.11134E+01  1992   0.664E+00    0.104E+00
RMM:   2    -0.189593780237E+03   -0.74174E-01   -0.47217E-01  2160   0.132E+00    0.325E+00
RMM:   3    -0.189574352645E+03    0.19428E-01   -0.55982E-02  2005   0.659E-01    0.310E+00
RMM:   4    -0.189590353865E+03   -0.16001E-01   -0.20748E-02  2040   0.409E-01    0.403E+00
RMM:   5    -0.189562440634E+03    0.27913E-01   -0.17230E-02  2023   0.402E-01    0.201E+00
RMM:   6    -0.189554263374E+03    0.81773E-02   -0.79676E-03  2008   0.280E-01    0.580E-01
RMM:   7    -0.189557758064E+03   -0.34947E-02   -0.40347E-03  2006   0.186E-01    0.114E+00
RMM:   8    -0.189556347748E+03    0.14103E-02   -0.28398E-03  1998   0.163E-01    0.646E-01
RMM:   9    -0.189556106495E+03    0.24125E-03   -0.17812E-03  1978   0.130E-01    0.481E-01
RMM:  10    -0.189557279617E+03   -0.11731E-02   -0.16349E-03  1991   0.121E-01    0.692E-01
RMM:  11    -0.189556279198E+03    0.10004E-02   -0.10744E-03  1947   0.105E-01    0.268E-01
RMM:  12    -0.189556274608E+03    0.45897E-05   -0.23269E-04  1208   0.472E-02
   7 F= -.18955627E+03 E0= -.18956747E+03  d E =-.108176E+00  mag=    26.6414
quench:  g(F)=  0.000E+00 g(S)=  0.000E+00 dE (1.order)= 0.000E+00
 bond charge predicted
       N       E                     dE             d eps       ncg     rms          rms(c)
DAV:   1    -0.189619416343E+03   -0.63137E-01   -0.13670E+01  1992   0.739E+00    0.114E+00
RMM:   2    -0.189708075578E+03   -0.88659E-01   -0.58315E-01  2212   0.145E+00    0.359E+00
RMM:   3    -0.189700163507E+03    0.79121E-02   -0.64545E-02  2005   0.705E-01    0.420E+00
RMM:   4    -0.189697672960E+03    0.24905E-02   -0.27618E-02  2038   0.481E-01    0.393E+00
RMM:   5    -0.189680159565E+03    0.17513E-01   -0.22927E-02  2025   0.461E-01    0.284E+00
RMM:   6    -0.189662723179E+03    0.17436E-01   -0.12117E-02  2012   0.348E-01    0.642E-01
RMM:   7    -0.189666357460E+03   -0.36343E-02   -0.48460E-03  2006   0.205E-01    0.110E+00
RMM:   8    -0.189664948728E+03    0.14087E-02   -0.28452E-03  1996   0.164E-01    0.616E-01
RMM:   9    -0.189664851344E+03    0.97384E-04   -0.17119E-03  1979   0.127E-01    0.512E-01
RMM:  10    -0.189665980007E+03   -0.11287E-02   -0.15584E-03  1993   0.117E-01    0.679E-01
RMM:  11    -0.189665039388E+03    0.94062E-03   -0.98308E-04  1924   0.100E-01    0.300E-01
RMM:  12    -0.189665071115E+03   -0.31727E-04   -0.28866E-04  1369   0.519E-02
   8 F= -.18966507E+03 E0= -.18967639E+03  d E =-.108797E+00  mag=    26.6068
quench:  g(F)=  0.000E+00 g(S)=  0.000E+00 dE (1.order)= 0.000E+00
 bond charge predicted
       N       E                     dE             d eps       ncg     rms          rms(c)
DAV:   1    -0.189716867970E+03   -0.51829E-01   -0.16320E+01  1992   0.808E+00    0.123E+00
RMM:   2    -0.189812473060E+03   -0.95605E-01   -0.70925E-01  2211   0.158E+00    0.343E+00
RMM:   3    -0.189821696226E+03   -0.92232E-02   -0.75308E-02  2006   0.752E-01    0.483E+00
RMM:   4    -0.189807320242E+03    0.14376E-01   -0.31926E-02  2036   0.518E-01    0.406E+00
RMM:   5    -0.189778173253E+03    0.29147E-01   -0.23861E-02  2019   0.479E-01    0.209E+00
RMM:   6    -0.189769734701E+03    0.84386E-02   -0.92578E-03  2007   0.302E-01    0.783E-01
RMM:   7    -0.189774903788E+03   -0.51691E-02   -0.57848E-03  2008   0.223E-01    0.140E+00
RMM:   8    -0.189771286231E+03    0.36176E-02   -0.38645E-03  1993   0.193E-01    0.582E-01
RMM:   9    -0.189771907376E+03   -0.62114E-03   -0.23627E-03  1986   0.147E-01    0.680E-01
RMM:  10    -0.189772615562E+03   -0.70819E-03   -0.19483E-03  1996   0.131E-01    0.742E-01
RMM:  11    -0.189771612790E+03    0.10028E-02   -0.12504E-03  1964   0.112E-01    0.372E-01
RMM:  12    -0.189771619034E+03   -0.62442E-05   -0.44382E-04  1648   0.634E-02
   9 F= -.18977162E+03 E0= -.18978311E+03  d E =-.106548E+00  mag=    26.5572
quench:  g(F)=  0.000E+00 g(S)=  0.000E+00 dE (1.order)= 0.000E+00
 bond charge predicted
       N       E                     dE             d eps       ncg     rms          rms(c)
DAV:   1    -0.189806838934E+03   -0.35226E-01   -0.18815E+01  1992   0.866E+00    0.133E+00
RMM:   2    -0.189924036346E+03   -0.11720E+00   -0.83947E-01  2164   0.171E+00    0.388E+00
RMM:   3    -0.189917322233E+03    0.67141E-02   -0.88617E-02  2005   0.820E-01    0.467E+00
RMM:   4    -0.189921057446E+03   -0.37352E-02   -0.35743E-02  2038   0.545E-01    0.478E+00
RMM:   5    -0.189884649029E+03    0.36408E-01   -0.29030E-02  2013   0.523E-01    0.284E+00
RMM:   6    -0.189868136734E+03    0.16512E-01   -0.12854E-02  2007   0.358E-01    0.704E-01
RMM:   7    -0.189875236037E+03   -0.70993E-02   -0.74516E-03  2009   0.254E-01    0.157E+00
RMM:   8    -0.189870647023E+03    0.45890E-02   -0.49243E-03  2000   0.218E-01    0.772E-01
RMM:   9    -0.189870640600E+03    0.64231E-05   -0.27272E-03  1985   0.158E-01    0.667E-01
RMM:  10    -0.189871653425E+03   -0.10128E-02   -0.22687E-03  1998   0.140E-01    0.741E-01
RMM:  11    -0.189870711024E+03    0.94240E-03   -0.14194E-03  1973   0.119E-01    0.440E-01
RMM:  12    -0.189870786138E+03   -0.75114E-04   -0.53862E-04  1752   0.699E-02
  10 F= -.18987079E+03 E0= -.18988233E+03  d E =-.991671E-01  mag=    26.4951
quench:  g(F)=  0.000E+00 g(S)=  0.000E+00 dE (1.order)= 0.000E+00
 bond charge predicted
       N       E                     dE             d eps       ncg     rms          rms(c)
DAV:   1    -0.189875970458E+03   -0.52594E-02   -0.20573E+01  1992   0.902E+00    0.140E+00
RMM:   2    -0.189997672310E+03   -0.12170E+00   -0.92073E-01  2330   0.175E+00    0.379E+00
RMM:   3    -0.190010970571E+03   -0.13298E-01   -0.92736E-02  2008   0.835E-01    0.532E+00
RMM:   4    -0.189998572613E+03    0.12398E-01   -0.41370E-02  2034   0.589E-01    0.472E+00
RMM:   5    -0.189951904029E+03    0.46669E-01   -0.29652E-02  2020   0.536E-01    0.188E+00
RMM:   6    -0.189945998749E+03    0.59053E-02   -0.97734E-03  2004   0.309E-01    0.892E-01
RMM:   7    -0.189953761699E+03   -0.77629E-02   -0.78692E-03  2003   0.260E-01    0.181E+00
RMM:   8    -0.189946918793E+03    0.68429E-02   -0.54333E-03  2000   0.231E-01    0.585E-01
RMM:   9    -0.189948183479E+03   -0.12647E-02   -0.33223E-03  1989   0.174E-01    0.766E-01
RMM:  10    -0.189948486685E+03   -0.30321E-03   -0.21522E-03  1996   0.140E-01    0.728E-01
RMM:  11    -0.189947595516E+03    0.89117E-03   -0.12493E-03  1953   0.111E-01    0.386E-01
RMM:  12    -0.189947727706E+03   -0.13219E-03   -0.46478E-04  1659   0.648E-02    0.384E-01
RMM:  13    -0.189947546044E+03    0.18166E-03   -0.24924E-04  1230   0.527E-02    0.148E-01
RMM:  14    -0.189947608335E+03   -0.62291E-04   -0.95643E-05  1084   0.326E-02
  11 F= -.18994761E+03 E0= -.18995901E+03  d E =-.768222E-01  mag=    26.4210
quench:  g(F)=  0.000E+00 g(S)=  0.000E+00 dE (1.order)= 0.000E+00
 bond charge predicted
       N       E                     dE             d eps       ncg     rms          rms(c)
DAV:   1    -0.189934044676E+03    0.13501E-01   -0.72807E+00  2031   0.471E+00    0.945E-01
RMM:   2    -0.189976872512E+03   -0.42828E-01   -0.41443E-01  2063   0.102E+00    0.185E+00
RMM:   3    -0.189975631736E+03    0.12408E-02   -0.42251E-02  2008   0.546E-01    0.243E+00
RMM:   4    -0.190008881249E+03   -0.33250E-01   -0.18979E-02  2028   0.377E-01    0.461E+00
RMM:   5    -0.189962697417E+03    0.46184E-01   -0.16363E-02  2011   0.377E-01    0.156E+00
RMM:   6    -0.189961929357E+03    0.76806E-03   -0.80432E-03  2010   0.265E-01    0.109E+00
RMM:   7    -0.189965654370E+03   -0.37250E-02   -0.69098E-03  2001   0.245E-01    0.156E+00
RMM:   8    -0.189959644761E+03    0.60096E-02   -0.48537E-03  2004   0.218E-01    0.433E-01
RMM:   9    -0.189961012424E+03   -0.13677E-02   -0.26912E-03  1993   0.154E-01    0.740E-01
RMM:  10    -0.189960331879E+03    0.68055E-03   -0.16557E-03  1986   0.128E-01    0.576E-01
RMM:  11    -0.189959678097E+03    0.65378E-03   -0.62699E-04  1808   0.795E-02    0.243E-01
RMM:  12    -0.189959804046E+03   -0.12595E-03   -0.21026E-04  1162   0.448E-02    0.274E-01
RMM:  13    -0.189959753963E+03    0.50083E-04   -0.14975E-04  1114   0.432E-02
  12 F= -.18995975E+03 E0= -.18997128E+03  d E =-.121456E-01  mag=    26.3751
quench:  g(F)=  0.000E+00 g(S)=  0.000E+00 dE (1.order)= 0.000E+00
 bond charge predicted
       N       E                     dE             d eps       ncg     rms          rms(c)
DAV:   1    -0.189974957838E+03   -0.15154E-01   -0.24559E-01  2067   0.783E-01    0.210E-01
RMM:   2    -0.189982645877E+03   -0.76880E-02   -0.16078E-02  2091   0.225E-01    0.165E+00
RMM:   3    -0.189976466741E+03    0.61791E-02   -0.19876E-03  2006   0.124E-01    0.581E-01
RMM:   4    -0.189976585891E+03   -0.11915E-03   -0.12149E-03  1975   0.102E-01    0.511E-01
RMM:   5    -0.189976498696E+03    0.87195E-04   -0.79157E-04  1856   0.779E-02
  13 F= -.18997650E+03 E0= -.18998792E+03  d E =-.167447E-01  mag=    26.3666
quench:  g(F)=  0.000E+00 g(S)=  0.000E+00 dE (1.order)= 0.000E+00
 bond charge predicted
       N       E                     dE             d eps       ncg     rms          rms(c)
DAV:   1    -0.189990589695E+03   -0.14004E-01   -0.69751E-01  2067   0.144E+00    0.378E-01
RMM:   2    -0.190003328540E+03   -0.12739E-01   -0.42966E-02  2145   0.372E-01    0.208E+00
RMM:   3    -0.189995120176E+03    0.82084E-02   -0.55471E-03  2019   0.206E-01    0.115E+00
RMM:   4    -0.189995395236E+03   -0.27506E-03   -0.28937E-03  2006   0.156E-01    0.115E+00
RMM:   5    -0.189993663494E+03    0.17317E-02   -0.27059E-03  1996   0.141E-01    0.734E-01
RMM:   6    -0.189992647631E+03    0.10159E-02   -0.18044E-03  1987   0.127E-01    0.289E-01
RMM:   7    -0.189994008487E+03   -0.13609E-02   -0.15557E-03  1983   0.116E-01    0.717E-01
RMM:   8    -0.189992604661E+03    0.14038E-02   -0.10175E-03  1931   0.101E-01    0.198E-01
RMM:   9    -0.189992693395E+03   -0.88735E-04   -0.24931E-04  1259   0.491E-02
  14 F= -.18999269E+03 E0= -.19000411E+03  d E =-.161947E-01  mag=    26.3500
quench:  g(F)=  0.000E+00 g(S)=  0.000E+00 dE (1.order)= 0.000E+00
 bond charge predicted
       N       E                     dE             d eps       ncg     rms          rms(c)
DAV:   1    -0.190002958176E+03   -0.10354E-01   -0.59706E-01  2058   0.153E+00    0.344E-01
RMM:   2    -0.190025497303E+03   -0.22539E-01   -0.40858E-02  2010   0.467E-01    0.286E+00
RMM:   3    -0.190008319359E+03    0.17178E-01   -0.96893E-03  2012   0.304E-01    0.140E+00
RMM:   4    -0.190005438185E+03    0.28812E-02   -0.22008E-03  2017   0.138E-01    0.636E-01
RMM:   5    -0.190005800002E+03   -0.36182E-03   -0.17153E-03  1983   0.122E-01    0.629E-01
RMM:   6    -0.190005157481E+03    0.64252E-03   -0.99587E-04  1927   0.965E-02    0.350E-01
RMM:   7    -0.190004941404E+03    0.21608E-03   -0.43393E-04  1618   0.657E-02    0.155E-01
RMM:   8    -0.190005210936E+03   -0.26953E-03   -0.28320E-04  1315   0.520E-02    0.329E-01
RMM:   9    -0.190004989411E+03    0.22152E-03   -0.23054E-04  1183   0.537E-02    0.142E-01
RMM:  10    -0.190005009712E+03   -0.20301E-04   -0.88664E-05  1075   0.304E-02
  15 F= -.19000501E+03 E0= -.19001647E+03  d E =-.123163E-01  mag=    26.3342
quench:  g(F)=  0.000E+00 g(S)=  0.000E+00 dE (1.order)= 0.000E+00
 bond charge predicted
       N       E                     dE             d eps       ncg     rms          rms(c)
DAV:   1    -0.190016015912E+03   -0.11027E-01   -0.63656E-01  2040   0.157E+00    0.250E-01
RMM:   2    -0.190020305139E+03   -0.42892E-02   -0.31125E-02  2060   0.323E-01    0.766E-01
RMM:   3    -0.190018574487E+03    0.17307E-02   -0.32909E-03  2007   0.159E-01    0.473E-01
RMM:   4    -0.190021135669E+03   -0.25612E-02   -0.15680E-03  2009   0.116E-01    0.113E+00
RMM:   5    -0.190019275997E+03    0.18597E-02   -0.94375E-04  1891   0.942E-02    0.741E-01
RMM:   6    -0.190018195610E+03    0.10804E-02   -0.52454E-04  1714   0.713E-02    0.158E-01
RMM:   7    -0.190018391468E+03   -0.19586E-03   -0.28612E-04  1341   0.516E-02    0.252E-01
RMM:   8    -0.190018376902E+03    0.14566E-04   -0.20711E-04  1134   0.488E-02
  16 F= -.19001838E+03 E0= -.19002982E+03  d E =-.133672E-01  mag=    26.3232
quench:  g(F)=  0.000E+00 g(S)=  0.000E+00 dE (1.order)= 0.000E+00
 bond charge predicted
       N       E                     dE             d eps       ncg     rms          rms(c)
DAV:   1    -0.190029968083E+03   -0.11577E-01   -0.86494E-01  2004   0.185E+00    0.301E-01
RMM:   2    -0.190037077578E+03   -0.71095E-02   -0.41696E-02  2162   0.382E-01    0.120E+00
RMM:   3    -0.190034426616E+03    0.26510E-02   -0.43226E-03  2007   0.185E-01    0.922E-01
RMM:   4    -0.190035261779E+03   -0.83516E-03   -0.16886E-03  2016   0.119E-01    0.106E+00
RMM:   5    -0.190034228445E+03    0.10333E-02   -0.17720E-03  1981   0.126E-01    0.772E-01
RMM:   6    -0.190032832683E+03    0.13958E-02   -0.11338E-03  1915   0.106E-01    0.195E-01
RMM:   7    -0.190033112110E+03   -0.27943E-03   -0.30768E-04  1413   0.533E-02    0.333E-01
RMM:   8    -0.190033082507E+03    0.29603E-04   -0.28007E-04  1291   0.547E-02
  17 F= -.19003308E+03 E0= -.19004451E+03  d E =-.147056E-01  mag=    26.3098
quench:  g(F)=  0.000E+00 g(S)=  0.000E+00 dE (1.order)= 0.000E+00
 bond charge predicted
       N       E                     dE             d eps       ncg     rms          rms(c)
DAV:   1    -0.190044818648E+03   -0.11707E-01   -0.11166E+00  1992   0.209E+00    0.339E-01
RMM:   2    -0.190053109973E+03   -0.82913E-02   -0.54563E-02  2076   0.435E-01    0.118E+00
RMM:   3    -0.190048906673E+03    0.42033E-02   -0.59331E-03  2006   0.216E-01    0.554E-01
RMM:   4    -0.190054015164E+03   -0.51085E-02   -0.28785E-03  2027   0.158E-01    0.152E+00
RMM:   5    -0.190050932392E+03    0.30828E-02   -0.17051E-03  1970   0.126E-01    0.105E+00
RMM:   6    -0.190048521530E+03    0.24109E-02   -0.11087E-03  1916   0.103E-01    0.213E-01
RMM:   7    -0.190048984008E+03   -0.46248E-03   -0.49163E-04  1685   0.667E-02    0.397E-01
RMM:   8    -0.190048902980E+03    0.81028E-04   -0.36061E-04  1481   0.604E-02
  18 F= -.19004890E+03 E0= -.19006033E+03  d E =-.158205E-01  mag=    26.2951
quench:  g(F)=  0.000E+00 g(S)=  0.000E+00 dE (1.order)= 0.000E+00
 bond charge predicted
       N       E                     dE             d eps       ncg     rms          rms(c)
DAV:   1    -0.190059592532E+03   -0.10609E-01   -0.14099E+00  2019   0.236E+00    0.392E-01
RMM:   2    -0.190072352782E+03   -0.12760E-01   -0.69112E-02  2102   0.500E-01    0.166E+00
RMM:   3    -0.190066463510E+03    0.58893E-02   -0.77547E-03  2005   0.251E-01    0.110E+00
RMM:   4    -0.190068276058E+03   -0.18125E-02   -0.26793E-03  2025   0.149E-01    0.136E+00
RMM:   5    -0.190066889057E+03    0.13870E-02   -0.28929E-03  1993   0.161E-01    0.107E+00
RMM:   6    -0.190064316580E+03    0.25725E-02   -0.19224E-03  1972   0.138E-01    0.277E-01
RMM:   7    -0.190064726553E+03   -0.40997E-03   -0.55274E-04  1711   0.705E-02    0.401E-01
RMM:   8    -0.190064780641E+03   -0.54088E-04   -0.44132E-04  1607   0.658E-02
  19 F= -.19006478E+03 E0= -.19007632E+03  d E =-.158777E-01  mag=    26.2781
quench:  g(F)=  0.000E+00 g(S)=  0.000E+00 dE (1.order)= 0.000E+00
 bond charge predicted
       N       E                     dE             d eps       ncg     rms          rms(c)
DAV:   1    -0.190073680060E+03   -0.89535E-02   -0.15888E+00  2001   0.248E+00    0.409E-01
RMM:   2    -0.190087694011E+03   -0.14014E-01   -0.78510E-02  2045   0.517E-01    0.174E+00
RMM:   3    -0.190082008322E+03    0.56857E-02   -0.76590E-03  2004   0.239E-01    0.128E+00
RMM:   4    -0.190083564645E+03   -0.15563E-02   -0.36484E-03  2030   0.173E-01    0.143E+00
RMM:   5    -0.190080866213E+03    0.26984E-02   -0.30378E-03  1998   0.166E-01    0.927E-01
RMM:   6    -0.190078935191E+03    0.19310E-02   -0.18271E-03  1979   0.134E-01    0.251E-01
RMM:   7    -0.190079839286E+03   -0.90410E-03   -0.82342E-04  1864   0.853E-02    0.591E-01
RMM:   8    -0.190079321136E+03    0.51815E-03   -0.59592E-04  1753   0.769E-02    0.300E-01
RMM:   9    -0.190079277958E+03    0.43179E-04   -0.32368E-04  1436   0.573E-02
  20 F= -.19007928E+03 E0= -.19009060E+03  d E =-.144973E-01  mag=    26.2560
quench:  g(F)=  0.000E+00 g(S)=  0.000E+00 dE (1.order)= 0.000E+00
 bond charge predicted
       N       E                     dE             d eps       ncg     rms          rms(c)
DAV:   1    -0.190084401654E+03   -0.50805E-02   -0.14982E+00  1992   0.238E+00    0.433E-01
RMM:   2    -0.190101850516E+03   -0.17449E-01   -0.79651E-02  2094   0.553E-01    0.205E+00
RMM:   3    -0.190094458447E+03    0.73921E-02   -0.10851E-02  2014   0.305E-01    0.157E+00
RMM:   4    -0.190091718027E+03    0.27404E-02   -0.36443E-03  2031   0.171E-01    0.108E+00
RMM:   5    -0.190092624658E+03   -0.90663E-03   -0.34702E-03  1998   0.175E-01    0.114E+00
RMM:   6    -0.190089568048E+03    0.30566E-02   -0.23101E-03  2000   0.151E-01    0.317E-01
RMM:   7    -0.190089846648E+03   -0.27860E-03   -0.69775E-04  1814   0.783E-02    0.378E-01
RMM:   8    -0.190090026181E+03   -0.17953E-03   -0.51760E-04  1700   0.692E-02    0.382E-01
RMM:   9    -0.190089729669E+03    0.29651E-03   -0.35138E-04  1503   0.624E-02    0.139E-01
RMM:  10    -0.190089925615E+03   -0.19595E-03   -0.23966E-04  1181   0.479E-02    0.236E-01
RMM:  11    -0.190089861006E+03    0.64609E-04   -0.15562E-04  1113   0.452E-02
  21 F= -.19008986E+03 E0= -.19010118E+03  d E =-.105830E-01  mag=    26.2349
quench:  g(F)=  0.000E+00 g(S)=  0.000E+00 dE (1.order)= 0.000E+00
 bond charge predicted
       N       E                     dE             d eps       ncg     rms          rms(c)
DAV:   1    -0.190094052100E+03   -0.41265E-02   -0.35218E-01  2040   0.104E+00    0.210E-01
RMM:   2    -0.190096757668E+03   -0.27056E-02   -0.20187E-02  2030   0.240E-01    0.668E-01
RMM:   3    -0.190095733631E+03    0.10240E-02   -0.20313E-03  2006   0.122E-01    0.445E-01
RMM:   4    -0.190096865926E+03   -0.11323E-02   -0.10618E-03  1969   0.905E-02    0.805E-01
RMM:   5    -0.190096040732E+03    0.82519E-03   -0.61329E-04  1800   0.740E-02    0.558E-01
RMM:   6    -0.190095441616E+03    0.59912E-03   -0.44397E-04  1623   0.635E-02    0.181E-01
RMM:   7    -0.190095847203E+03   -0.40559E-03   -0.38288E-04  1551   0.599E-02    0.407E-01
RMM:   8    -0.190095472307E+03    0.37490E-03   -0.28166E-04  1333   0.575E-02    0.986E-02
RMM:   9    -0.190095568058E+03   -0.95750E-04   -0.12767E-04  1089   0.357E-02
  22 F= -.19009557E+03 E0= -.19010678E+03  d E =-.570705E-02  mag=    26.2216
quench:  g(F)=  0.000E+00 g(S)=  0.000E+00 dE (1.order)= 0.000E+00
 bond charge predicted
       N       E                     dE             d eps       ncg     rms          rms(c)
DAV:   1    -0.190098650836E+03   -0.31785E-02   -0.15128E-01  2034   0.772E-01    0.168E-01
RMM:   2    -0.190103080743E+03   -0.44299E-02   -0.96937E-03  2025   0.229E-01    0.127E+00
RMM:   3    -0.190099442911E+03    0.36378E-02   -0.23010E-03  2002   0.150E-01    0.458E-01
RMM:   4    -0.190099572368E+03   -0.12946E-03   -0.43346E-04  1631   0.611E-02    0.450E-01
RMM:   5    -0.190099460374E+03    0.11199E-03   -0.38238E-04  1572   0.596E-02    0.357E-01
RMM:   6    -0.190099241651E+03    0.21872E-03   -0.23521E-04  1180   0.529E-02    0.156E-01
RMM:   7    -0.190099203387E+03    0.38264E-04   -0.84426E-05  1059   0.312E-02
  23 F= -.19009920E+03 E0= -.19011053E+03  d E =-.363533E-02  mag=    26.2152
quench:  g(F)=  0.000E+00 g(S)=  0.000E+00 dE (1.order)= 0.000E+00
 bond charge predicted
       N       E                     dE             d eps       ncg     rms          rms(c)
DAV:   1    -0.190102795770E+03   -0.35541E-02   -0.18997E-01  2016   0.858E-01    0.192E-01
RMM:   2    -0.190108039983E+03   -0.52442E-02   -0.11463E-02  2017   0.251E-01    0.140E+00
RMM:   3    -0.190103551961E+03    0.44880E-02   -0.30350E-03  2004   0.168E-01    0.435E-01
RMM:   4    -0.190104022885E+03   -0.47092E-03   -0.53554E-04  1770   0.673E-02    0.561E-01
RMM:   5    -0.190103819998E+03    0.20289E-03   -0.50502E-04  1739   0.673E-02    0.423E-01
RMM:   6    -0.190103457046E+03    0.36295E-03   -0.30895E-04  1374   0.592E-02    0.172E-01
RMM:   7    -0.190103424891E+03    0.32155E-04   -0.10729E-04  1092   0.344E-02
  24 F= -.19010342E+03 E0= -.19011473E+03  d E =-.422150E-02  mag=    26.2096
quench:  g(F)=  0.000E+00 g(S)=  0.000E+00 dE (1.order)= 0.000E+00
 bond charge predicted
       N       E                     dE             d eps       ncg     rms          rms(c)
DAV:   1    -0.190107291936E+03   -0.38349E-02   -0.26530E-01  2004   0.102E+00    0.247E-01
RMM:   2    -0.190117070395E+03   -0.97785E-02   -0.17853E-02  2015   0.328E-01    0.188E+00
RMM:   3    -0.190109159943E+03    0.79105E-02   -0.53737E-03  2006   0.228E-01    0.828E-01
RMM:   4    -0.190108392911E+03    0.76703E-03   -0.84861E-04  1931   0.841E-02    0.473E-01
RMM:   5    -0.190108598206E+03   -0.20529E-03   -0.79720E-04  1888   0.839E-02    0.486E-01
RMM:   6    -0.190108202057E+03    0.39615E-03   -0.43902E-04  1648   0.679E-02    0.252E-01
RMM:   7    -0.190108093066E+03    0.10899E-03   -0.18160E-04  1111   0.450E-02    0.116E-01
RMM:   8    -0.190108222400E+03   -0.12933E-03   -0.14033E-04  1081   0.365E-02    0.213E-01
RMM:   9    -0.190108161124E+03    0.61276E-04   -0.10372E-04  1068   0.369E-02
  25 F= -.19010816E+03 E0= -.19011941E+03  d E =-.473623E-02  mag=    26.2017
quench:  g(F)=  0.000E+00 g(S)=  0.000E+00 dE (1.order)= 0.000E+00
 bond charge predicted
       N       E                     dE             d eps       ncg     rms          rms(c)
DAV:   1    -0.190112016219E+03   -0.37938E-02   -0.34750E-01  1992   0.115E+00    0.201E-01
RMM:   2    -0.190116189655E+03   -0.41734E-02   -0.16963E-02  2062   0.253E-01    0.104E+00
RMM:   3    -0.190114029615E+03    0.21600E-02   -0.22060E-03  2004   0.134E-01    0.712E-01
RMM:   4    -0.190113533645E+03    0.49597E-03   -0.72388E-04  1872   0.784E-02    0.494E-01
RMM:   5    -0.190113668300E+03   -0.13465E-03   -0.62647E-04  1765   0.765E-02    0.484E-01
RMM:   6    -0.190113139758E+03    0.52854E-03   -0.38107E-04  1546   0.645E-02    0.117E-01
RMM:   7    -0.190113233769E+03   -0.94011E-04   -0.14243E-04  1116   0.374E-02
  26 F= -.19011323E+03 E0= -.19012458E+03  d E =-.507265E-02  mag=    26.1954
quench:  g(F)=  0.000E+00 g(S)=  0.000E+00 dE (1.order)= 0.000E+00
 bond charge predicted
       N       E                     dE             d eps       ncg     rms          rms(c)
DAV:   1    -0.190117066929E+03   -0.39272E-02   -0.43016E-01  2019   0.128E+00    0.256E-01
RMM:   2    -0.190124991723E+03   -0.79248E-02   -0.22688E-02  2035   0.327E-01    0.166E+00
RMM:   3    -0.190118765759E+03    0.62260E-02   -0.46120E-03  2003   0.205E-01    0.591E-01
RMM:   4    -0.190119862352E+03   -0.10966E-02   -0.10706E-03  1981   0.935E-02    0.856E-01
RMM:   5    -0.190119363758E+03    0.49859E-03   -0.11238E-03  1949   0.992E-02    0.634E-01
RMM:   6    -0.190118473325E+03    0.89043E-03   -0.72918E-04  1863   0.861E-02    0.239E-01
RMM:   7    -0.190118405101E+03    0.68223E-04   -0.21280E-04  1125   0.464E-02
  27 F= -.19011841E+03 E0= -.19012973E+03  d E =-.517133E-02  mag=    26.1896
quench:  g(F)=  0.000E+00 g(S)=  0.000E+00 dE (1.order)= 0.000E+00
 bond charge predicted
       N       E                     dE             d eps       ncg     rms          rms(c)
DAV:   1    -0.190122276183E+03   -0.38029E-02   -0.51104E-01  1992   0.140E+00    0.376E-01
RMM:   2    -0.190152932064E+03   -0.30656E-01   -0.37902E-02  2016   0.499E-01    0.335E+00
RMM:   3    -0.190127589505E+03    0.25343E-01   -0.13397E-02  2004   0.364E-01    0.156E+00
RMM:   4    -0.190123698019E+03    0.38915E-02   -0.21710E-03  2022   0.136E-01    0.498E-01
RMM:   5    -0.190124716066E+03   -0.10180E-02   -0.17386E-03  1978   0.123E-01    0.673E-01
RMM:   6    -0.190123898296E+03    0.81777E-03   -0.93103E-04  1925   0.957E-02    0.340E-01
RMM:   7    -0.190123701584E+03    0.19671E-03   -0.39254E-04  1568   0.634E-02    0.168E-01
RMM:   8    -0.190123935503E+03   -0.23392E-03   -0.25338E-04  1244   0.488E-02    0.319E-01
RMM:   9    -0.190123763200E+03    0.17230E-03   -0.19963E-04  1121   0.507E-02    0.101E-01
RMM:  10    -0.190123794098E+03   -0.30898E-04   -0.91102E-05  1069   0.315E-02
  28 F= -.19012379E+03 E0= -.19013512E+03  d E =-.538900E-02  mag=    26.1795
quench:  g(F)=  0.000E+00 g(S)=  0.000E+00 dE (1.order)= 0.000E+00
 bond charge predicted
       N       E                     dE             d eps       ncg     rms          rms(c)
DAV:   1    -0.190126868824E+03   -0.31056E-02   -0.60421E-01  2016   0.150E+00    0.248E-01
RMM:   2    -0.190131584357E+03   -0.47155E-02   -0.26301E-02  2312   0.304E-01    0.102E+00
RMM:   3    -0.190129980425E+03    0.16039E-02   -0.29907E-03  2005   0.153E-01    0.799E-01
RMM:   4    -0.190130771386E+03   -0.79096E-03   -0.13177E-03  2002   0.104E-01    0.979E-01
RMM:   5    -0.190129420000E+03    0.13514E-02   -0.11106E-03  1937   0.101E-01    0.524E-01
RMM:   6    -0.190128797712E+03    0.62229E-03   -0.55932E-04  1719   0.758E-02    0.123E-01
RMM:   7    -0.190128945006E+03   -0.14729E-03   -0.21758E-04  1139   0.454E-02    0.218E-01
RMM:   8    -0.190128979181E+03   -0.34174E-04   -0.16742E-04  1115   0.450E-02
  29 F= -.19012898E+03 E0= -.19014026E+03  d E =-.518508E-02  mag=    26.1727
quench:  g(F)=  0.000E+00 g(S)=  0.000E+00 dE (1.order)= 0.000E+00
 bond charge predicted
       N       E                     dE             d eps       ncg     rms          rms(c)
DAV:   1    -0.190131461288E+03   -0.25163E-02   -0.58866E-01  1992   0.146E+00    0.243E-01
RMM:   2    -0.190134702405E+03   -0.32411E-02   -0.26870E-02  2065   0.290E-01    0.652E-01
RMM:   3    -0.190134606057E+03    0.96348E-04   -0.28942E-03  2006   0.143E-01    0.788E-01
RMM:   4    -0.190136214667E+03   -0.16086E-02   -0.13111E-03  2006   0.103E-01    0.114E+00
RMM:   5    -0.190133648720E+03    0.25659E-02   -0.11814E-03  1949   0.104E-01    0.469E-01
RMM:   6    -0.190133298812E+03    0.34991E-03   -0.57685E-04  1738   0.749E-02    0.159E-01
RMM:   7    -0.190133677089E+03   -0.37828E-03   -0.34247E-04  1466   0.564E-02    0.394E-01
RMM:   8    -0.190133373526E+03    0.30356E-03   -0.25765E-04  1277   0.548E-02    0.131E-01
RMM:   9    -0.190133421768E+03   -0.48242E-04   -0.13165E-04  1079   0.368E-02
  30 F= -.19013342E+03 E0= -.19014461E+03  d E =-.444259E-02  mag=    26.1643
quench:  g(F)=  0.000E+00 g(S)=  0.000E+00 dE (1.order)= 0.000E+00
 bond charge predicted
       N       E                     dE             d eps       ncg     rms          rms(c)
DAV:   1    -0.190134561766E+03   -0.11882E-02   -0.35902E-01  2016   0.111E+00    0.246E-01
RMM:   2    -0.190141109044E+03   -0.65473E-02   -0.21290E-02  2054   0.314E-01    0.136E+00
RMM:   3    -0.190135820342E+03    0.52887E-02   -0.45279E-03  2008   0.207E-01    0.401E-01
RMM:   4    -0.190136758084E+03   -0.93774E-03   -0.12848E-03  2000   0.102E-01    0.677E-01
RMM:   5    -0.190137483823E+03   -0.72574E-03   -0.74339E-04  1879   0.785E-02    0.873E-01
RMM:   6    -0.190135814616E+03    0.16692E-02   -0.67199E-04  1856   0.792E-02    0.276E-01
RMM:   7    -0.190135782056E+03    0.32559E-04   -0.28227E-04  1346   0.520E-02
  31 F= -.19013578E+03 E0= -.19014710E+03  d E =-.236029E-02  mag=    26.1598
quench:  g(F)=  0.000E+00 g(S)=  0.000E+00 dE (1.order)= 0.000E+00
 bond charge predicted
       N       E                     dE             d eps       ncg     rms          rms(c)
DAV:   1    -0.190136881296E+03   -0.10667E-02   -0.27581E-02  2148   0.369E-01    0.235E-01
RMM:   2    -0.190149365608E+03   -0.12484E-01   -0.11106E-02  2004   0.320E-01    0.223E+00
RMM:   3    -0.190136802305E+03    0.12563E-01   -0.71102E-03  2000   0.268E-01    0.435E-01
RMM:   4    -0.190136895175E+03   -0.92870E-04   -0.63443E-04  1811   0.735E-02
  32 F= -.19013690E+03 E0= -.19014824E+03  d E =-.111312E-02  mag=    26.1581
quench:  g(F)=  0.000E+00 g(S)=  0.000E+00 dE (1.order)= 0.000E+00
 bond charge predicted
       N       E                     dE             d eps       ncg     rms          rms(c)
DAV:   1    -0.190138189095E+03   -0.13868E-02   -0.43529E-02  2061   0.460E-01    0.317E-01
RMM:   2    -0.190256506932E+03   -0.11832E+00   -0.20134E-02  2010   0.410E-01    0.704E+00
RMM:   3    -0.190133465581E+03    0.12304E+00   -0.16440E-02  2007   0.397E-01    0.444E-01
RMM:   4    -0.190138101610E+03   -0.46360E-02   -0.18543E-03  1975   0.135E-01    0.340E-01
RMM:   5    -0.190138648818E+03   -0.54721E-03   -0.69918E-04  1829   0.810E-02    0.455E-01
RMM:   6    -0.190138121490E+03    0.52733E-03   -0.38696E-04  1577   0.657E-02    0.140E-01
RMM:   7    -0.190138128969E+03   -0.74792E-05   -0.72437E-05  1085   0.271E-02
  33 F= -.19013813E+03 E0= -.19014932E+03  d E =-.123379E-02  mag=    26.1544
quench:  g(F)=  0.000E+00 g(S)=  0.000E+00 dE (1.order)= 0.000E+00
 bond charge predicted
       N       E                     dE             d eps       ncg     rms          rms(c)
DAV:   1    -0.190139317447E+03   -0.11960E-02   -0.59662E-02  2034   0.485E-01    0.138E-01
RMM:   2    -0.190144062138E+03   -0.47447E-02   -0.47906E-03  2016   0.188E-01    0.134E+00
RMM:   3    -0.190140443959E+03    0.36182E-02   -0.17429E-03  1986   0.131E-01    0.711E-01
RMM:   4    -0.190139509166E+03    0.93479E-03   -0.48157E-04  1705   0.660E-02    0.215E-01
RMM:   5    -0.190139560832E+03   -0.51667E-04   -0.20539E-04  1141   0.443E-02
  34 F= -.19013956E+03 E0= -.19015081E+03  d E =-.143186E-02  mag=    26.1523
quench:  g(F)=  0.000E+00 g(S)=  0.000E+00 dE (1.order)= 0.000E+00
 bond charge predicted
       N       E                     dE             d eps       ncg     rms          rms(c)
DAV:   1    -0.190140846496E+03   -0.13373E-02   -0.86821E-02  2076   0.594E-01    0.179E-01
RMM:   2    -0.190147434136E+03   -0.65876E-02   -0.75620E-03  2016   0.242E-01    0.163E+00
RMM:   3    -0.190141088081E+03    0.63461E-02   -0.34108E-03  1995   0.186E-01    0.410E-01
RMM:   4    -0.190141264198E+03   -0.17612E-03   -0.35417E-04  1489   0.560E-02    0.367E-01
RMM:   5    -0.190141165813E+03    0.98385E-04   -0.23914E-04  1167   0.476E-02
  35 F= -.19014117E+03 E0= -.19015235E+03  d E =-.160498E-02  mag=    26.1503
quench:  g(F)=  0.000E+00 g(S)=  0.000E+00 dE (1.order)= 0.000E+00
 bond charge predicted
       N       E                     dE             d eps       ncg     rms          rms(c)
DAV:   1    -0.190142507045E+03   -0.12428E-02   -0.11843E-01  2040   0.706E-01    0.238E-01
RMM:   2    -0.190154819850E+03   -0.12313E-01   -0.12467E-02  2015   0.318E-01    0.222E+00
RMM:   3    -0.190143247637E+03    0.11572E-01   -0.63019E-03  2003   0.252E-01    0.667E-01
RMM:   4    -0.190143061043E+03    0.18659E-03   -0.65065E-04  1826   0.740E-02    0.428E-01
RMM:   5    -0.190142892567E+03    0.16848E-03   -0.37669E-04  1532   0.583E-02    0.264E-01
RMM:   6    -0.190142954916E+03   -0.62349E-04   -0.25170E-04  1231   0.520E-02
  36 F= -.19014295E+03 E0= -.19015422E+03  d E =-.178910E-02  mag=    26.1478
quench:  g(F)=  0.000E+00 g(S)=  0.000E+00 dE (1.order)= 0.000E+00
 bond charge predicted
       N       E                     dE             d eps       ncg     rms          rms(c)
DAV:   1    -0.190144124923E+03   -0.12324E-02   -0.15464E-01  2004   0.787E-01    0.144E-01
RMM:   2    -0.190145884866E+03   -0.17599E-02   -0.65492E-03  2081   0.173E-01    0.736E-01
RMM:   3    -0.190144532000E+03    0.13529E-02   -0.11479E-03  1983   0.101E-01    0.210E-01
RMM:   4    -0.190145368989E+03   -0.83699E-03   -0.46289E-04  1656   0.646E-02    0.557E-01
RMM:   5    -0.190145043191E+03    0.32580E-03   -0.26783E-04  1262   0.539E-02    0.485E-01
RMM:   6    -0.190144563844E+03    0.47935E-03   -0.17959E-04  1149   0.450E-02    0.813E-02
RMM:   7    -0.190144692906E+03   -0.12906E-03   -0.11778E-04  1083   0.339E-02    0.204E-01
RMM:   8    -0.190144617522E+03    0.75385E-04   -0.89690E-05  1102   0.332E-02
  37 F= -.19014462E+03 E0= -.19015587E+03  d E =-.166261E-02  mag=    26.1437
quench:  g(F)=  0.000E+00 g(S)=  0.000E+00 dE (1.order)= 0.000E+00
 bond charge predicted
       N       E                     dE             d eps       ncg     rms          rms(c)
DAV:   1    -0.190145923572E+03   -0.12307E-02   -0.19549E-01  2058   0.847E-01    0.133E-01
RMM:   2    -0.190147135480E+03   -0.12119E-02   -0.73538E-03  2191   0.165E-01    0.473E-01
RMM:   3    -0.190146681751E+03    0.45373E-03   -0.89248E-04  1899   0.848E-02    0.341E-01
RMM:   4    -0.190147464650E+03   -0.78290E-03   -0.39068E-04  1530   0.583E-02    0.655E-01
RMM:   5    -0.190146710694E+03    0.75396E-03   -0.34416E-04  1481   0.601E-02    0.325E-01
RMM:   6    -0.190146495028E+03    0.21567E-03   -0.20394E-04  1168   0.491E-02    0.817E-02
RMM:   7    -0.190146562102E+03   -0.67074E-04   -0.81047E-05  1063   0.281E-02
  38 F= -.19014656E+03 E0= -.19015774E+03  d E =-.194458E-02  mag=    26.1403
quench:  g(F)=  0.000E+00 g(S)=  0.000E+00 dE (1.order)= 0.000E+00
 bond charge predicted
       N       E                     dE             d eps       ncg     rms          rms(c)
DAV:   1    -0.190147812098E+03   -0.13171E-02   -0.23831E-01  2001   0.937E-01    0.172E-01
RMM:   2    -0.190151017721E+03   -0.32056E-02   -0.10166E-02  2029   0.225E-01    0.103E+00
RMM:   3    -0.190148484546E+03    0.25332E-02   -0.21251E-03  2004   0.138E-01    0.284E-01
RMM:   4    -0.190148876856E+03   -0.39231E-03   -0.70196E-04  1906   0.784E-02    0.410E-01
RMM:   5    -0.190149517392E+03   -0.64054E-03   -0.34184E-04  1468   0.570E-02    0.681E-01
RMM:   6    -0.190148452180E+03    0.10652E-02   -0.25585E-04  1242   0.535E-02    0.153E-01
RMM:   7    -0.190148495584E+03   -0.43404E-04   -0.11402E-04  1099   0.343E-02
  39 F= -.19014850E+03 E0= -.19015973E+03  d E =-.193348E-02  mag=    26.1372
quench:  g(F)=  0.000E+00 g(S)=  0.000E+00 dE (1.order)= 0.000E+00
 bond charge predicted
       N       E                     dE             d eps       ncg     rms          rms(c)
DAV:   1    -0.190149788945E+03   -0.13368E-02   -0.28808E-01  1992   0.103E+00    0.244E-01
RMM:   2    -0.190159772882E+03   -0.99839E-02   -0.16267E-02  2015   0.327E-01    0.191E+00
RMM:   3    -0.190150370201E+03    0.94027E-02   -0.57498E-03  2004   0.239E-01    0.428E-01
RMM:   4    -0.190151113045E+03   -0.74284E-03   -0.89820E-04  1949   0.867E-02    0.559E-01
RMM:   5    -0.190151245751E+03   -0.13271E-03   -0.48686E-04  1698   0.644E-02    0.582E-01
RMM:   6    -0.190150613465E+03    0.63229E-03   -0.41676E-04  1607   0.662E-02    0.255E-01
RMM:   7    -0.190150509170E+03    0.10429E-03   -0.16850E-04  1097   0.432E-02    0.115E-01
RMM:   8    -0.190150605326E+03   -0.96156E-04   -0.12769E-04  1069   0.346E-02
  40 F= -.19015061E+03 E0= -.19016181E+03  d E =-.210974E-02  mag=    26.1333
quench:  g(F)=  0.000E+00 g(S)=  0.000E+00 dE (1.order)= 0.000E+00
 bond charge predicted
       N       E                     dE             d eps       ncg     rms          rms(c)
DAV:   1    -0.190151921712E+03   -0.14125E-02   -0.32177E-01  2001   0.108E+00    0.171E-01
RMM:   2    -0.190154307264E+03   -0.23856E-02   -0.11957E-02  2039   0.223E-01    0.743E-01
RMM:   3    -0.190153663573E+03    0.64369E-03   -0.14591E-03  2009   0.108E-01    0.647E-01
RMM:   4    -0.190153350734E+03    0.31284E-03   -0.69599E-04  1871   0.771E-02    0.504E-01
RMM:   5    -0.190153142049E+03    0.20868E-03   -0.50077E-04  1681   0.684E-02    0.390E-01
RMM:   6    -0.190152817428E+03    0.32462E-03   -0.28398E-04  1333   0.564E-02    0.119E-01
RMM:   7    -0.190152917839E+03   -0.10041E-03   -0.15405E-04  1086   0.385E-02    0.203E-01
RMM:   8    -0.190152882671E+03    0.35168E-04   -0.11025E-04  1070   0.368E-02
  41 F= -.19015288E+03 E0= -.19016406E+03  d E =-.227734E-02  mag=    26.1295
quench:  g(F)=  0.000E+00 g(S)=  0.000E+00 dE (1.order)= 0.000E+00
 bond charge predicted
       N       E                     dE             d eps       ncg     rms          rms(c)
DAV:   1    -0.190154028612E+03   -0.11108E-02   -0.33052E-01  1992   0.109E+00    0.173E-01
RMM:   2    -0.190156558906E+03   -0.25303E-02   -0.12757E-02  2260   0.217E-01    0.791E-01
RMM:   3    -0.190155405686E+03    0.11532E-02   -0.14516E-03  1997   0.107E-01    0.514E-01
RMM:   4    -0.190155787699E+03   -0.38201E-03   -0.60954E-04  1808   0.717E-02    0.629E-01
RMM:   5    -0.190155253409E+03    0.53429E-03   -0.51684E-04  1701   0.702E-02    0.354E-01
RMM:   6    -0.190154986896E+03    0.26651E-03   -0.29057E-04  1376   0.563E-02    0.112E-01
RMM:   7    -0.190155121891E+03   -0.13499E-03   -0.15489E-04  1094   0.386E-02    0.236E-01
RMM:   8    -0.190155053926E+03    0.67965E-04   -0.12388E-04  1079   0.385E-02
  42 F= -.19015505E+03 E0= -.19016623E+03  d E =-.217126E-02  mag=    26.1257
quench:  g(F)=  0.000E+00 g(S)=  0.000E+00 dE (1.order)= 0.000E+00
 bond charge predicted
       N       E                     dE             d eps       ncg     rms          rms(c)
DAV:   1    -0.190156079723E+03   -0.95783E-03   -0.11414E-01  2040   0.604E-01    0.120E-01
RMM:   2    -0.190157321381E+03   -0.12417E-02   -0.62437E-03  2095   0.142E-01    0.567E-01
RMM:   3    -0.190156847278E+03    0.47410E-03   -0.60371E-04  1716   0.677E-02    0.427E-01
RMM:   4    -0.190156811631E+03    0.35647E-04   -0.40414E-04  1577   0.601E-02
  43 F= -.19015681E+03 E0= -.19016782E+03  d E =-.175771E-02  mag=    26.1242
quench:  g(F)=  0.000E+00 g(S)=  0.000E+00 dE (1.order)= 0.000E+00
 bond charge predicted
       N       E                     dE             d eps       ncg     rms          rms(c)
DAV:   1    -0.190157242779E+03   -0.39550E-03   -0.30487E-02  2259   0.436E-01    0.208E-01
RMM:   2    -0.190167491559E+03   -0.10249E-01   -0.88624E-03  1999   0.280E-01    0.212E+00
RMM:   3    -0.190157289420E+03    0.10202E-01   -0.54698E-03  1989   0.233E-01    0.404E-01
RMM:   4    -0.190157312949E+03   -0.23529E-04   -0.52238E-04  1733   0.677E-02
  44 F= -.19015731E+03 E0= -.19016842E+03  d E =-.501318E-03  mag=    26.1231
quench:  g(F)=  0.000E+00 g(S)=  0.000E+00 dE (1.order)= 0.000E+00
 bond charge predicted
       N       E                     dE             d eps       ncg     rms          rms(c)
DAV:   1    -0.190158293880E+03   -0.10045E-02   -0.34263E-02  2076   0.423E-01    0.295E-01
RMM:   2    -0.190265175662E+03   -0.10688E+00   -0.17358E-02  2006   0.384E-01    0.686E+00
RMM:   3    -0.190152931678E+03    0.11224E+00   -0.14595E-02  1998   0.375E-01    0.374E-01
RMM:   4    -0.190158139579E+03   -0.52079E-02   -0.17892E-03  1979   0.130E-01    0.284E-01
RMM:   5    -0.190158639976E+03   -0.50040E-03   -0.53609E-04  1715   0.718E-02    0.432E-01
RMM:   6    -0.190158193141E+03    0.44683E-03   -0.29353E-04  1342   0.585E-02    0.922E-02
RMM:   7    -0.190158221330E+03   -0.28188E-04   -0.50203E-05  1081   0.224E-02
  45 F= -.19015822E+03 E0= -.19016939E+03  d E =-.908381E-03  mag=    26.1199
quench:  g(F)=  0.000E+00 g(S)=  0.000E+00 dE (1.order)= 0.000E+00
 bond charge predicted
       N       E                     dE             d eps       ncg     rms          rms(c)
DAV:   1    -0.190159174473E+03   -0.98133E-03   -0.51423E-02  2061   0.438E-01    0.968E-02
RMM:   2    -0.190161392905E+03   -0.22184E-02   -0.24981E-03  2015   0.130E-01    0.952E-01
RMM:   3    -0.190159660327E+03    0.17326E-02   -0.76229E-04  1875   0.863E-02    0.443E-01
RMM:   4    -0.190159320591E+03    0.33974E-03   -0.20537E-04  1167   0.447E-02    0.146E-01
RMM:   5    -0.190159405800E+03   -0.85209E-04   -0.13940E-04  1116   0.373E-02
  46 F= -.19015941E+03 E0= -.19017052E+03  d E =-.118447E-02  mag=    26.1185
quench:  g(F)=  0.000E+00 g(S)=  0.000E+00 dE (1.order)= 0.000E+00
 bond charge predicted
       N       E                     dE             d eps       ncg     rms          rms(c)
DAV:   1    -0.190160405145E+03   -0.10846E-02   -0.72433E-02  2031   0.530E-01    0.115E-01
RMM:   2    -0.190162825496E+03   -0.24204E-02   -0.35726E-03  2016   0.157E-01    0.960E-01
RMM:   3    -0.190160825321E+03    0.20002E-02   -0.11313E-03  1959   0.106E-01    0.404E-01
RMM:   4    -0.190160622900E+03    0.20242E-03   -0.17588E-04  1154   0.404E-02    0.209E-01
RMM:   5    -0.190160703064E+03   -0.80164E-04   -0.19072E-04  1124   0.436E-02
  47 F= -.19016070E+03 E0= -.19017185E+03  d E =-.129726E-02  mag=    26.1171
quench:  g(F)=  0.000E+00 g(S)=  0.000E+00 dE (1.order)= 0.000E+00
 bond charge predicted
       N       E                     dE             d eps       ncg     rms          rms(c)
DAV:   1    -0.190161769605E+03   -0.11467E-02   -0.97649E-02  2040   0.620E-01    0.152E-01
RMM:   2    -0.190165913174E+03   -0.41436E-02   -0.55667E-03  2014   0.205E-01    0.131E+00
RMM:   3    -0.190161928676E+03    0.39845E-02   -0.23045E-03  1993   0.152E-01    0.248E-01
RMM:   4    -0.190162164913E+03   -0.23624E-03   -0.32661E-04  1408   0.548E-02    0.289E-01
RMM:   5    -0.190162346797E+03   -0.18188E-03   -0.16162E-04  1130   0.392E-02    0.390E-01
RMM:   6    -0.190162076940E+03    0.26986E-03   -0.14619E-04  1127   0.418E-02    0.191E-01
RMM:   7    -0.190162010195E+03    0.66745E-04   -0.77007E-05  1076   0.307E-02
  48 F= -.19016201E+03 E0= -.19017320E+03  d E =-.130713E-02  mag=    26.1148
quench:  g(F)=  0.000E+00 g(S)=  0.000E+00 dE (1.order)= 0.000E+00
 bond charge predicted
       N       E                     dE             d eps       ncg     rms          rms(c)
DAV:   1    -0.190163316692E+03   -0.12398E-02   -0.12694E-01  2040   0.680E-01    0.168E-01
RMM:   2    -0.190168165254E+03   -0.48486E-02   -0.73419E-03  2011   0.233E-01    0.131E+00
RMM:   3    -0.190163456746E+03    0.47085E-02   -0.31048E-03  2003   0.176E-01    0.218E-01
RMM:   4    -0.190163812963E+03   -0.35622E-03   -0.33741E-04  1457   0.538E-02    0.338E-01
RMM:   5    -0.190164017141E+03   -0.20418E-03   -0.18317E-04  1140   0.424E-02    0.436E-01
RMM:   6    -0.190163602687E+03    0.41445E-03   -0.16203E-04  1132   0.447E-02    0.126E-01
RMM:   7    -0.190163592334E+03    0.10354E-04   -0.66482E-05  1068   0.277E-02
  49 F= -.19016359E+03 E0= -.19017476E+03  d E =-.158214E-02  mag=    26.1128
quench:  g(F)=  0.000E+00 g(S)=  0.000E+00 dE (1.order)= 0.000E+00
 bond charge predicted
       N       E                     dE             d eps       ncg     rms          rms(c)
DAV:   1    -0.190164968202E+03   -0.13655E-02   -0.16059E-01  1992   0.763E-01    0.181E-01
RMM:   2    -0.190171405212E+03   -0.64370E-02   -0.82140E-03  2012   0.244E-01    0.164E+00
RMM:   3    -0.190165219900E+03    0.61853E-02   -0.33412E-03  2008   0.183E-01    0.296E-01
RMM:   4    -0.190165689964E+03   -0.47006E-03   -0.44432E-04  1641   0.624E-02    0.422E-01
RMM:   5    -0.190165646751E+03    0.43213E-04   -0.23580E-04  1176   0.472E-02
  50 F= -.19016565E+03 E0= -.19017663E+03  d E =-.205442E-02  mag=    26.1113
quench:  g(F)=  0.000E+00 g(S)=  0.000E+00 dE (1.order)= 0.000E+00
 bond charge predicted
       N       E                     dE             d eps       ncg     rms          rms(c)
DAV:   1    -0.190166744359E+03   -0.10544E-02   -0.19735E-01  1992   0.887E-01    0.205E-01
RMM:   2    -0.190174198116E+03   -0.74538E-02   -0.10688E-02  2008   0.283E-01    0.170E+00
RMM:   3    -0.190167401043E+03    0.67971E-02   -0.41283E-03  2005   0.203E-01    0.496E-01
RMM:   4    -0.190167618005E+03   -0.21696E-03   -0.49750E-04  1725   0.648E-02    0.455E-01
RMM:   5    -0.190167445440E+03    0.17257E-03   -0.41724E-04  1621   0.610E-02    0.331E-01
RMM:   6    -0.190167345781E+03    0.99659E-04   -0.25791E-04  1294   0.538E-02
  51 F= -.19016735E+03 E0= -.19017861E+03  d E =-.169903E-02  mag=    26.1095
quench:  g(F)=  0.000E+00 g(S)=  0.000E+00 dE (1.order)= 0.000E+00
 bond charge predicted
       N       E                     dE             d eps       ncg     rms          rms(c)
DAV:   1    -0.190168750594E+03   -0.13052E-02   -0.22601E-01  1992   0.914E-01    0.147E-01
RMM:   2    -0.190170650845E+03   -0.19003E-02   -0.72606E-03  2022   0.186E-01    0.762E-01
RMM:   3    -0.190169657691E+03    0.99315E-03   -0.10142E-03  1961   0.930E-02    0.445E-01
RMM:   4    -0.190169882244E+03   -0.22455E-03   -0.42180E-04  1608   0.607E-02    0.507E-01
RMM:   5    -0.190169608444E+03    0.27380E-03   -0.37920E-04  1532   0.617E-02    0.363E-01
RMM:   6    -0.190169326444E+03    0.28200E-03   -0.23945E-04  1242   0.527E-02    0.874E-02
RMM:   7    -0.190169455738E+03   -0.12929E-03   -0.13941E-04  1080   0.370E-02    0.216E-01
RMM:   8    -0.190169379579E+03    0.76159E-04   -0.10834E-04  1070   0.371E-02
  52 F= -.19016938E+03 E0= -.19018059E+03  d E =-.203380E-02  mag=    26.1062
quench:  g(F)=  0.000E+00 g(S)=  0.000E+00 dE (1.order)= 0.000E+00
 bond charge predicted
       N       E                     dE             d eps       ncg     rms          rms(c)
DAV:   1    -0.190170764072E+03   -0.13083E-02   -0.24727E-01  1992   0.943E-01    0.134E-01
RMM:   2    -0.190172137412E+03   -0.13733E-02   -0.82664E-03  2089   0.181E-01    0.519E-01
RMM:   3    -0.190171880726E+03    0.25669E-03   -0.85795E-04  1895   0.823E-02    0.480E-01
RMM:   4    -0.190171829423E+03    0.51303E-04   -0.40395E-04  1560   0.598E-02
  53 F= -.19017183E+03 E0= -.19018312E+03  d E =-.244984E-02  mag=    26.1045
quench:  g(F)=  0.000E+00 g(S)=  0.000E+00 dE (1.order)= 0.000E+00
 bond charge predicted
       N       E                     dE             d eps       ncg     rms          rms(c)
DAV:   1    -0.190172473432E+03   -0.59271E-03   -0.15033E-01  2064   0.793E-01    0.310E-01
RMM:   2    -0.190193651836E+03   -0.21178E-01   -0.21342E-02  2009   0.424E-01    0.289E+00
RMM:   3    -0.190174024391E+03    0.19627E-01   -0.11412E-02  2010   0.340E-01    0.938E-01
RMM:   4    -0.190173243508E+03    0.78088E-03   -0.10448E-03  1979   0.941E-02    0.486E-01
RMM:   5    -0.190172917785E+03    0.32572E-03   -0.50917E-04  1715   0.667E-02    0.254E-01
RMM:   6    -0.190172940225E+03   -0.22440E-04   -0.25777E-04  1222   0.490E-02
  54 F= -.19017294E+03 E0= -.19018406E+03  d E =-.111080E-02  mag=    26.1025
quench:  g(F)=  0.000E+00 g(S)=  0.000E+00 dE (1.order)= 0.000E+00
 bond charge predicted
       N       E                     dE             d eps       ncg     rms          rms(c)
DAV:   1    -0.190173458001E+03   -0.54022E-03   -0.40541E-02  2043   0.432E-01    0.118E-01
RMM:   2    -0.190176788843E+03   -0.33308E-02   -0.32336E-03  2010   0.155E-01    0.121E+00
RMM:   3    -0.190173875048E+03    0.29138E-02   -0.13593E-03  1952   0.114E-01    0.442E-01
RMM:   4    -0.190173616163E+03    0.25888E-03   -0.18018E-04  1161   0.415E-02    0.175E-01
RMM:   5    -0.190173687789E+03   -0.71626E-04   -0.15249E-04  1117   0.396E-02
  55 F= -.19017369E+03 E0= -.19018489E+03  d E =-.747565E-03  mag=    26.1006
quench:  g(F)=  0.000E+00 g(S)=  0.000E+00 dE (1.order)= 0.000E+00
 bond charge predicted
       N       E                     dE             d eps       ncg     rms          rms(c)
DAV:   1    -0.190174314016E+03   -0.69785E-03   -0.36348E-02  2046   0.399E-01    0.107E-01
RMM:   2    -0.190176746643E+03   -0.24326E-02   -0.25696E-03  2007   0.145E-01    0.992E-01
RMM:   3    -0.190174445465E+03    0.23012E-02   -0.12263E-03  1946   0.111E-01    0.279E-01
RMM:   4    -0.190174495607E+03   -0.50142E-04   -0.11135E-04  1130   0.322E-02
  56 F= -.19017450E+03 E0= -.19018553E+03  d E =-.807818E-03  mag=    26.0994
quench:  g(F)=  0.000E+00 g(S)=  0.000E+00 dE (1.order)= 0.000E+00
 bond charge predicted
       N       E                     dE             d eps       ncg     rms          rms(c)
DAV:   1    -0.190175339387E+03   -0.89392E-03   -0.53312E-02  2064   0.476E-01    0.149E-01
RMM:   2    -0.190180939990E+03   -0.56006E-02   -0.47888E-03  2006   0.205E-01    0.152E+00
RMM:   3    -0.190176554480E+03    0.43855E-02   -0.22937E-03  1977   0.150E-01    0.766E-01
RMM:   4    -0.190175500046E+03    0.10544E-02   -0.50663E-04  1768   0.682E-02    0.243E-01
RMM:   5    -0.190175456556E+03    0.43490E-04   -0.16128E-04  1118   0.388E-02
  57 F= -.19017546E+03 E0= -.19018665E+03  d E =-.960949E-03  mag=    26.0975
quench:  g(F)=  0.000E+00 g(S)=  0.000E+00 dE (1.order)= 0.000E+00
 bond charge predicted
       N       E                     dE             d eps       ncg     rms          rms(c)
DAV:   1    -0.190176466737E+03   -0.96669E-03   -0.73091E-02  2058   0.525E-01    0.114E-01
RMM:   2    -0.190178494405E+03   -0.20277E-02   -0.33339E-03  2010   0.154E-01    0.833E-01
RMM:   3    -0.190176948700E+03    0.15457E-02   -0.11452E-03  1976   0.107E-01    0.431E-01
RMM:   4    -0.190176703778E+03    0.24492E-03   -0.18453E-04  1156   0.415E-02    0.225E-01
RMM:   5    -0.190176726940E+03   -0.23162E-04   -0.16768E-04  1114   0.405E-02
  58 F= -.19017673E+03 E0= -.19018793E+03  d E =-.127038E-02  mag=    26.0958
quench:  g(F)=  0.000E+00 g(S)=  0.000E+00 dE (1.order)= 0.000E+00
 bond charge predicted
       N       E                     dE             d eps       ncg     rms          rms(c)
DAV:   1    -0.190177788192E+03   -0.10844E-02   -0.97470E-02  1992   0.615E-01    0.143E-01
RMM:   2    -0.190181864104E+03   -0.40759E-02   -0.52680E-03  2008   0.200E-01    0.122E+00
RMM:   3    -0.190178376172E+03    0.34879E-02   -0.19302E-03  1995   0.140E-01    0.509E-01
RMM:   4    -0.190178088089E+03    0.28808E-03   -0.27423E-04  1303   0.502E-02    0.254E-01
RMM:   5    -0.190178114586E+03   -0.26496E-04   -0.22276E-04  1152   0.463E-02
  59 F= -.19017811E+03 E0= -.19018925E+03  d E =-.138765E-02  mag=    26.0942
quench:  g(F)=  0.000E+00 g(S)=  0.000E+00 dE (1.order)= 0.000E+00
 bond charge predicted
       N       E                     dE             d eps       ncg     rms          rms(c)
DAV:   1    -0.190179277812E+03   -0.11897E-02   -0.12477E-01  1992   0.700E-01    0.177E-01
RMM:   2    -0.190184628091E+03   -0.53503E-02   -0.75011E-03  2007   0.244E-01    0.137E+00
RMM:   3    -0.190179807264E+03    0.48208E-02   -0.32347E-03  2008   0.180E-01    0.507E-01
RMM:   4    -0.190179773654E+03    0.33609E-04   -0.38080E-04  1565   0.580E-02
  60 F= -.19017977E+03 E0= -.19019074E+03  d E =-.165907E-02  mag=    26.0929
quench:  g(F)=  0.000E+00 g(S)=  0.000E+00 dE (1.order)= 0.000E+00
 bond charge predicted
       N       E                     dE             d eps       ncg     rms          rms(c)
DAV:   1    -0.190180963248E+03   -0.11560E-02   -0.15168E-01  1992   0.802E-01    0.250E-01
RMM:   2    -0.190209465618E+03   -0.28502E-01   -0.13046E-02  2008   0.334E-01    0.350E+00
RMM:   3    -0.190183020781E+03    0.26445E-01   -0.65760E-03  2007   0.251E-01    0.119E+00
RMM:   4    -0.190181316646E+03    0.17041E-02   -0.19104E-03  1976   0.133E-01    0.366E-01
RMM:   5    -0.190181338642E+03   -0.21996E-04   -0.57364E-04  1778   0.705E-02
  61 F= -.19018134E+03 E0= -.19019248E+03  d E =-.156499E-02  mag=    26.0906
quench:  g(F)=  0.000E+00 g(S)=  0.000E+00 dE (1.order)= 0.000E+00
 bond charge predicted
       N       E                     dE             d eps       ncg     rms          rms(c)
DAV:   1    -0.190182645833E+03   -0.13292E-02   -0.17674E-01  1992   0.840E-01    0.259E-01
RMM:   2    -0.190196179152E+03   -0.13533E-01   -0.14860E-02  2002   0.354E-01    0.218E+00
RMM:   3    -0.190182816713E+03    0.13362E-01   -0.78265E-03  2004   0.284E-01    0.499E-01
RMM:   4    -0.190183234841E+03   -0.41813E-03   -0.54000E-04  1759   0.662E-02    0.424E-01
RMM:   5    -0.190183182134E+03    0.52707E-04   -0.39820E-04  1594   0.599E-02
  62 F= -.19018318E+03 E0= -.19019418E+03  d E =-.184349E-02  mag=    26.0886
quench:  g(F)=  0.000E+00 g(S)=  0.000E+00 dE (1.order)= 0.000E+00
 bond charge predicted
       N       E                     dE             d eps       ncg     rms          rms(c)
DAV:   1    -0.190184149404E+03   -0.91456E-03   -0.17764E-01  2040   0.850E-01    0.281E-01
RMM:   2    -0.190200882612E+03   -0.16733E-01   -0.17269E-02  2009   0.380E-01    0.266E+00
RMM:   3    -0.190185086606E+03    0.15796E-01   -0.90433E-03  2010   0.298E-01    0.763E-01
RMM:   4    -0.190185106060E+03   -0.19455E-04   -0.10125E-03  1961   0.930E-02    0.568E-01
RMM:   5    -0.190184600855E+03    0.50520E-03   -0.45337E-04  1687   0.631E-02    0.246E-01
RMM:   6    -0.190184702313E+03   -0.10146E-03   -0.27104E-04  1255   0.527E-02    0.289E-01
RMM:   7    -0.190184488781E+03    0.21353E-03   -0.20848E-04  1117   0.512E-02    0.896E-02
RMM:   8    -0.190184614360E+03   -0.12558E-03   -0.11040E-04  1082   0.330E-02    0.222E-01
RMM:   9    -0.190184501755E+03    0.11260E-03   -0.81894E-05  1086   0.328E-02    0.665E-02
RMM:  10    -0.190184517669E+03   -0.15914E-04   -0.31122E-05  1064   0.182E-02
  63 F= -.19018452E+03 E0= -.19019570E+03  d E =-.133553E-02  mag=    26.0835
quench:  g(F)=  0.000E+00 g(S)=  0.000E+00 dE (1.order)= 0.000E+00
 bond charge predicted
       N       E                     dE             d eps       ncg     rms          rms(c)
DAV:   1    -0.190185166807E+03   -0.66505E-03   -0.11927E-01  2022   0.643E-01    0.118E-01
RMM:   2    -0.190186819724E+03   -0.16529E-02   -0.54977E-03  2036   0.157E-01    0.729E-01
RMM:   3    -0.190185679295E+03    0.11404E-02   -0.91333E-04  1929   0.909E-02    0.329E-01
RMM:   4    -0.190185796188E+03   -0.11689E-03   -0.21766E-04  1168   0.447E-02    0.381E-01
RMM:   5    -0.190185685773E+03    0.11041E-03   -0.24394E-04  1222   0.491E-02    0.278E-01
RMM:   6    -0.190185507481E+03    0.17829E-03   -0.16916E-04  1103   0.456E-02    0.811E-02
RMM:   7    -0.190185542645E+03   -0.35163E-04   -0.76688E-05  1062   0.280E-02
  64 F= -.19018554E+03 E0= -.19019673E+03  d E =-.102498E-02  mag=    26.0810
quench:  g(F)=  0.000E+00 g(S)=  0.000E+00 dE (1.order)= 0.000E+00
 bond charge predicted
       N       E                     dE             d eps       ncg     rms          rms(c)
DAV:   1    -0.190186115440E+03   -0.60796E-03   -0.38859E-02  2031   0.383E-01    0.130E-01
RMM:   2    -0.190189787375E+03   -0.36719E-02   -0.41661E-03  2009   0.180E-01    0.122E+00
RMM:   3    -0.190186489445E+03    0.32979E-02   -0.19738E-03  1990   0.140E-01    0.450E-01
RMM:   4    -0.190186269452E+03    0.21999E-03   -0.19816E-04  1159   0.428E-02    0.207E-01
RMM:   5    -0.190186234310E+03    0.35142E-04   -0.12162E-04  1099   0.343E-02
  65 F= -.19018623E+03 E0= -.19019737E+03  d E =-.691665E-03  mag=    26.0797
quench:  g(F)=  0.000E+00 g(S)=  0.000E+00 dE (1.order)= 0.000E+00
 bond charge predicted
       N       E                     dE             d eps       ncg     rms          rms(c)
DAV:   1    -0.190186794774E+03   -0.52532E-03   -0.35611E-02  2025   0.383E-01    0.131E-01
RMM:   2    -0.190190536984E+03   -0.37422E-02   -0.37083E-03  2001   0.179E-01    0.126E+00
RMM:   3    -0.190186845721E+03    0.36913E-02   -0.20455E-03  1969   0.143E-01    0.234E-01
RMM:   4    -0.190186860583E+03   -0.14862E-04   -0.21809E-04  1187   0.447E-02
  66 F= -.19018686E+03 E0= -.19019801E+03  d E =-.626273E-03  mag=    26.0786
quench:  g(F)=  0.000E+00 g(S)=  0.000E+00 dE (1.order)= 0.000E+00
 bond charge predicted
       N       E                     dE             d eps       ncg     rms          rms(c)
DAV:   1    -0.190187598277E+03   -0.75256E-03   -0.50106E-02  2034   0.452E-01    0.185E-01
RMM:   2    -0.190207579337E+03   -0.19981E-01   -0.71626E-03  2001   0.250E-01    0.290E+00
RMM:   3    -0.190188423445E+03    0.19156E-01   -0.40074E-03  1983   0.198E-01    0.875E-01
RMM:   4    -0.190187623446E+03    0.80000E-03   -0.11525E-03  1950   0.103E-01    0.203E-01
RMM:   5    -0.190187699638E+03   -0.76192E-04   -0.26304E-04  1268   0.493E-02
  67 F= -.19018770E+03 E0= -.19019887E+03  d E =-.839055E-03  mag=    26.0771
quench:  g(F)=  0.000E+00 g(S)=  0.000E+00 dE (1.order)= 0.000E+00
 bond charge predicted
       N       E                     dE             d eps       ncg     rms          rms(c)
DAV:   1    -0.190188456154E+03   -0.83271E-03   -0.68434E-02  2022   0.536E-01    0.212E-01
RMM:   2    -0.190199314539E+03   -0.10858E-01   -0.90570E-03  2002   0.283E-01    0.218E+00
RMM:   3    -0.190188331018E+03    0.10984E-01   -0.55974E-03  1984   0.235E-01    0.324E-01
RMM:   4    -0.190188560897E+03   -0.22988E-03   -0.47700E-04  1640   0.640E-02    0.154E-01
RMM:   5    -0.190188874236E+03   -0.31334E-03   -0.15259E-04  1123   0.379E-02    0.385E-01
RMM:   6    -0.190188668654E+03    0.20558E-03   -0.11019E-04  1122   0.355E-02    0.230E-01
RMM:   7    -0.190188541236E+03    0.12742E-03   -0.76873E-05  1091   0.310E-02    0.608E-02
RMM:   8    -0.190188557274E+03   -0.16038E-04   -0.28223E-05  1049   0.167E-02
  68 F= -.19018856E+03 E0= -.19019969E+03  d E =-.857637E-03  mag=    26.0746
quench:  g(F)=  0.000E+00 g(S)=  0.000E+00 dE (1.order)= 0.000E+00
 bond charge predicted
       N       E                     dE             d eps       ncg     rms          rms(c)
DAV:   1    -0.190189346810E+03   -0.80557E-03   -0.89501E-02  1998   0.572E-01    0.884E-02
RMM:   2    -0.190190370953E+03   -0.10241E-02   -0.29349E-03  2014   0.127E-01    0.571E-01
RMM:   3    -0.190189685765E+03    0.68519E-03   -0.52114E-04  1675   0.706E-02    0.277E-01
RMM:   4    -0.190189664166E+03    0.21599E-04   -0.12205E-04  1132   0.342E-02
  69 F= -.19018966E+03 E0= -.19020098E+03  d E =-.110689E-02  mag=    26.0735
quench:  g(F)=  0.000E+00 g(S)=  0.000E+00 dE (1.order)= 0.000E+00
 bond charge predicted
       N       E                     dE             d eps       ncg     rms          rms(c)
DAV:   1    -0.190190471573E+03   -0.78581E-03   -0.11208E-01  1992   0.681E-01    0.240E-01
RMM:   2    -0.190210158708E+03   -0.19687E-01   -0.12267E-02  2001   0.328E-01    0.281E+00
RMM:   3    -0.190193896971E+03    0.16262E-01   -0.63288E-03  1996   0.250E-01    0.133E+00
RMM:   4    -0.190190585665E+03    0.33113E-02   -0.14463E-03  1968   0.114E-01    0.281E-01
RMM:   5    -0.190190692684E+03   -0.10702E-03   -0.39540E-04  1580   0.593E-02    0.203E-01
RMM:   6    -0.190190729206E+03   -0.36522E-04   -0.18117E-04  1109   0.447E-02
  70 F= -.19019073E+03 E0= -.19020178E+03  d E =-.106504E-02  mag=    26.0718
quench:  g(F)=  0.000E+00 g(S)=  0.000E+00 dE (1.order)= 0.000E+00
 bond charge predicted
       N       E                     dE             d eps       ncg     rms          rms(c)
DAV:   1    -0.190191365177E+03   -0.67249E-03   -0.13357E-01  2022   0.719E-01    0.115E-01
RMM:   2    -0.190192780100E+03   -0.14149E-02   -0.44645E-03  2016   0.152E-01    0.672E-01
RMM:   3    -0.190191703169E+03    0.10769E-02   -0.77546E-04  1888   0.849E-02    0.185E-01
RMM:   4    -0.190192341852E+03   -0.63868E-03   -0.24066E-04  1219   0.474E-02    0.541E-01
RMM:   5    -0.190191944426E+03    0.39743E-03   -0.20124E-04  1152   0.482E-02    0.310E-01
RMM:   6    -0.190191723222E+03    0.22120E-03   -0.12738E-04  1118   0.400E-02    0.603E-02
RMM:   7    -0.190191800705E+03   -0.77483E-04   -0.75296E-05  1067   0.272E-02
  71 F= -.19019180E+03 E0= -.19020290E+03  d E =-.107150E-02  mag=    26.0692
quench:  g(F)=  0.000E+00 g(S)=  0.000E+00 dE (1.order)= 0.000E+00
 bond charge predicted
       N       E                     dE             d eps       ncg     rms          rms(c)
DAV:   1    -0.190192413543E+03   -0.69032E-03   -0.14459E-01  1992   0.733E-01    0.127E-01
RMM:   2    -0.190194611697E+03   -0.21982E-02   -0.55810E-03  2013   0.183E-01    0.855E-01
RMM:   3    -0.190192842073E+03    0.17696E-02   -0.12848E-03  1980   0.111E-01    0.293E-01
RMM:   4    -0.190193057584E+03   -0.21551E-03   -0.23920E-04  1199   0.468E-02    0.387E-01
RMM:   5    -0.190192958922E+03    0.98662E-04   -0.21768E-04  1157   0.462E-02
  72 F= -.19019296E+03 E0= -.19020402E+03  d E =-.115822E-02  mag=    26.0679
quench:  g(F)=  0.000E+00 g(S)=  0.000E+00 dE (1.order)= 0.000E+00
 bond charge predicted
       N       E                     dE             d eps       ncg     rms          rms(c)
DAV:   1    -0.190193238017E+03   -0.18043E-03   -0.12239E-01  1992   0.703E-01    0.151E-01
RMM:   2    -0.190198134947E+03   -0.48969E-02   -0.67669E-03  2014   0.211E-01    0.133E+00
RMM:   3    -0.190194339553E+03    0.37954E-02   -0.18985E-03  2001   0.136E-01    0.675E-01
RMM:   4    -0.190193696381E+03    0.64317E-03   -0.47226E-04  1694   0.656E-02    0.275E-01
RMM:   5    -0.190193756879E+03   -0.60499E-04   -0.30191E-04  1364   0.535E-02
  73 F= -.19019376E+03 E0= -.19020487E+03  d E =-.797957E-03  mag=    26.0665
quench:  g(F)=  0.000E+00 g(S)=  0.000E+00 dE (1.order)= 0.000E+00
 bond charge predicted
       N       E                     dE             d eps       ncg     rms          rms(c)
DAV:   1    -0.190193954956E+03   -0.25858E-03   -0.65750E-02  1992   0.529E-01    0.165E-01
RMM:   2    -0.190199566892E+03   -0.56119E-02   -0.67306E-03  2012   0.231E-01    0.146E+00
RMM:   3    -0.190194486953E+03    0.50799E-02   -0.29875E-03  1989   0.173E-01    0.532E-01
RMM:   4    -0.190194275645E+03    0.21131E-03   -0.34461E-04  1478   0.554E-02    0.304E-01
RMM:   5    -0.190194150124E+03    0.12552E-03   -0.18535E-04  1128   0.419E-02    0.157E-01
RMM:   6    -0.190194204321E+03   -0.54197E-04   -0.12892E-04  1085   0.372E-02
  74 F= -.19019420E+03 E0= -.19020526E+03  d E =-.447441E-03  mag=    26.0651
quench:  g(F)=  0.000E+00 g(S)=  0.000E+00 dE (1.order)= 0.000E+00
 bond charge predicted
       N       E                     dE             d eps       ncg     rms          rms(c)
DAV:   1    -0.190194392482E+03   -0.24236E-03   -0.39438E-02  2040   0.409E-01    0.705E-02
RMM:   2    -0.190195010675E+03   -0.61819E-03   -0.15674E-03  1984   0.908E-02    0.466E-01
RMM:   3    -0.190194534323E+03    0.47635E-03   -0.30881E-04  1377   0.556E-02    0.129E-01
RMM:   4    -0.190194745293E+03   -0.21097E-03   -0.78092E-05  1117   0.274E-02    0.306E-01
RMM:   5    -0.190194566817E+03    0.17848E-03   -0.68935E-05  1094   0.286E-02    0.134E-01
RMM:   6    -0.190194538109E+03    0.28708E-04   -0.35718E-05  1064   0.210E-02
  75 F= -.19019454E+03 E0= -.19020566E+03  d E =-.333788E-03  mag=    26.0635
quench:  g(F)=  0.000E+00 g(S)=  0.000E+00 dE (1.order)= 0.000E+00
 bond charge predicted
       N       E                     dE             d eps       ncg     rms          rms(c)
DAV:   1    -0.190194832798E+03   -0.26598E-03   -0.45439E-02  2004   0.415E-01    0.103E-01
RMM:   2    -0.190197077018E+03   -0.22442E-02   -0.25907E-03  2004   0.141E-01    0.888E-01
RMM:   3    -0.190195327581E+03    0.17494E-02   -0.10165E-03  1937   0.101E-01    0.487E-01
RMM:   4    -0.190194930130E+03    0.39745E-03   -0.19128E-04  1160   0.425E-02    0.156E-01
RMM:   5    -0.190194960996E+03   -0.30867E-04   -0.11322E-04  1093   0.332E-02
  76 F= -.19019496E+03 E0= -.19020606E+03  d E =-.422887E-03  mag=    26.0624
quench:  g(F)=  0.000E+00 g(S)=  0.000E+00 dE (1.order)= 0.000E+00
 bond charge predicted
       N       E                     dE             d eps       ncg     rms          rms(c)
DAV:   1    -0.190195210410E+03   -0.28028E-03   -0.61338E-02  2010   0.491E-01    0.117E-01
RMM:   2    -0.190197886195E+03   -0.26758E-02   -0.34450E-03  2006   0.163E-01    0.102E+00
RMM:   3    -0.190195366918E+03    0.25193E-02   -0.13935E-03  1972   0.119E-01    0.275E-01
[...]
DAV:   1    -0.190548183207E+03   -0.35684E-04   -0.83206E-03  1998   0.194E-01    0.931E-02
RMM:   2    -0.190550174365E+03   -0.19912E-02   -0.17015E-03  1994   0.124E-01    0.883E-01
RMM:   3    -0.190548253252E+03    0.19211E-02   -0.10695E-03  1897   0.104E-01    0.269E-01
RMM:   4    -0.190548199535E+03    0.53717E-04   -0.82954E-05  1117   0.275E-02
 581 F= -.19054820E+03 E0= -.19056006E+03  d E =-.168456E-04  mag=    25.1467
quench:  g(F)=  0.000E+00 g(S)=  0.000E+00 dE (1.order)= 0.000E+00
 bond charge predicted
       N       E                     dE             d eps       ncg     rms          rms(c)
DAV:   1    -0.190548135037E+03    0.11821E-03   -0.11577E-02  1992   0.226E-01    0.702E-02
RMM:   2    -0.190550047530E+03   -0.19125E-02   -0.10109E-03  1952   0.913E-02    0.883E-01
RMM:   3    -0.190548286898E+03    0.17606E-02   -0.48966E-04  1683   0.699E-02    0.328E-01
RMM:   4    -0.190548151321E+03    0.13558E-03   -0.12140E-04  1132   0.351E-02    0.752E-02
RMM:   5    -0.190548175048E+03   -0.23727E-04   -0.46185E-05  1080   0.209E-02
 582 F= -.19054818E+03 E0= -.19056011E+03  d E =0.244868E-04  mag=    25.1462
quench:  g(F)=  0.000E+00 g(S)=  0.000E+00 dE (1.order)= 0.000E+00
 bond charge predicted
       N       E                     dE             d eps       ncg     rms          rms(c)
DAV:   1    -0.190548113934E+03    0.37388E-04   -0.15134E-02  2025   0.244E-01    0.623E-02
RMM:   2    -0.190548683785E+03   -0.56985E-03   -0.99407E-04  1957   0.855E-02    0.415E-01
RMM:   3    -0.190548230866E+03    0.45292E-03   -0.36504E-04  1523   0.623E-02    0.223E-01
RMM:   4    -0.190548150488E+03    0.80378E-04   -0.57116E-05  1094   0.230E-02
 583 F= -.19054815E+03 E0= -.19056001E+03  d E =0.245600E-04  mag=    25.1459
quench:  g(F)=  0.000E+00 g(S)=  0.000E+00 dE (1.order)= 0.000E+00
 bond charge predicted
       N       E                     dE             d eps       ncg     rms          rms(c)
DAV:   1    -0.190548105063E+03    0.12580E-03   -0.19054E-02  1992   0.280E-01    0.107E-01
RMM:   2    -0.190551240017E+03   -0.31350E-02   -0.23231E-03  1997   0.141E-01    0.117E+00
RMM:   3    -0.190548420680E+03    0.28193E-02   -0.12940E-03  1927   0.113E-01    0.433E-01
RMM:   4    -0.190548158586E+03    0.26209E-03   -0.17417E-04  1160   0.412E-02    0.157E-01
RMM:   5    -0.190548137552E+03    0.21035E-04   -0.83712E-05  1088   0.280E-02
 584 F= -.19054814E+03 E0= -.19056008E+03  d E =0.129365E-04  mag=    25.1454
quench:  g(F)=  0.000E+00 g(S)=  0.000E+00 dE (1.order)= 0.000E+00
 bond charge predicted
       N       E                     dE             d eps       ncg     rms          rms(c)
DAV:   1    -0.190548145278E+03    0.13309E-04   -0.22861E-02  1992   0.302E-01    0.114E-01
RMM:   2    -0.190550917120E+03   -0.27718E-02   -0.27511E-03  1994   0.155E-01    0.100E+00
RMM:   3    -0.190548167670E+03    0.27495E-02   -0.15640E-03  1965   0.127E-01    0.253E-01
RMM:   4    -0.190548213281E+03   -0.45611E-04   -0.10381E-04  1130   0.304E-02
 585 F= -.19054821E+03 E0= -.19056000E+03  d E =-.757292E-04  mag=    25.1451
quench:  g(F)=  0.000E+00 g(S)=  0.000E+00 dE (1.order)= 0.000E+00
 bond charge predicted
       N       E                     dE             d eps       ncg     rms          rms(c)
DAV:   1    -0.190548200903E+03   -0.33233E-04   -0.26918E-02  2016   0.344E-01    0.111E-01
RMM:   2    -0.190552340137E+03   -0.41392E-02   -0.25758E-03  2000   0.148E-01    0.128E+00
RMM:   3    -0.190548713000E+03    0.36271E-02   -0.12345E-03  1936   0.110E-01    0.545E-01
RMM:   4    -0.190548245981E+03    0.46702E-03   -0.30728E-04  1390   0.546E-02    0.151E-01
RMM:   5    -0.190548253150E+03   -0.71692E-05   -0.11049E-04  1102   0.322E-02
 586 F= -.19054825E+03 E0= -.19056020E+03  d E =-.398694E-04  mag=    25.1446
quench:  g(F)=  0.000E+00 g(S)=  0.000E+00 dE (1.order)= 0.000E+00
 bond charge predicted
       N       E                     dE             d eps       ncg     rms          rms(c)
DAV:   1    -0.190548343392E+03   -0.97411E-04   -0.27496E-02  2010   0.339E-01    0.146E-01
RMM:   2    -0.190552926402E+03   -0.45830E-02   -0.43796E-03  2000   0.198E-01    0.132E+00
RMM:   3    -0.190548261782E+03    0.46646E-02   -0.26674E-03  1980   0.165E-01    0.220E-01
RMM:   4    -0.190548355218E+03   -0.93436E-04   -0.19907E-04  1152   0.424E-02
 587 F= -.19054836E+03 E0= -.19056027E+03  d E =-.102068E-03  mag=    25.1442
quench:  g(F)=  0.000E+00 g(S)=  0.000E+00 dE (1.order)= 0.000E+00
 bond charge predicted
       N       E                     dE             d eps       ncg     rms          rms(c)
DAV:   1    -0.190548431708E+03   -0.16993E-03   -0.21380E-02  2010   0.303E-01    0.156E-01
RMM:   2    -0.190560457772E+03   -0.12026E-01   -0.51680E-03  1992   0.214E-01    0.221E+00
RMM:   3    -0.190549168998E+03    0.11289E-01   -0.27452E-03  1969   0.164E-01    0.759E-01
RMM:   4    -0.190548445793E+03    0.72321E-03   -0.84026E-04  1893   0.884E-02    0.212E-01
RMM:   5    -0.190548443854E+03    0.19384E-05   -0.16272E-04  1119   0.388E-02
 588 F= -.19054844E+03 E0= -.19056037E+03  d E =-.886364E-04  mag=    25.1437
quench:  g(F)=  0.000E+00 g(S)=  0.000E+00 dE (1.order)= 0.000E+00
 bond charge predicted
       N       E                     dE             d eps       ncg     rms          rms(c)
DAV:   1    -0.190548555116E+03   -0.10932E-03   -0.42582E-03  2532   0.191E-01    0.172E-01
RMM:   2    -0.190556450361E+03   -0.78952E-02   -0.57892E-03  1989   0.233E-01    0.178E+00
RMM:   3    -0.190548581239E+03    0.78691E-02   -0.40322E-03  1966   0.203E-01    0.421E-01
RMM:   4    -0.190548555819E+03    0.25419E-04   -0.21497E-04  1190   0.435E-02
 589 F= -.19054856E+03 E0= -.19056058E+03  d E =-.111965E-03  mag=    25.1433
quench:  g(F)=  0.000E+00 g(S)=  0.000E+00 dE (1.order)= 0.000E+00
 bond charge predicted
       N       E                     dE             d eps       ncg     rms          rms(c)
DAV:   1    -0.190548518145E+03    0.63094E-04   -0.41606E-03  2505   0.198E-01    0.755E-02
RMM:   2    -0.190550511560E+03   -0.19934E-02   -0.10280E-03  1955   0.101E-01    0.907E-01
RMM:   3    -0.190548745064E+03    0.17665E-02   -0.64929E-04  1807   0.805E-02    0.374E-01
RMM:   4    -0.190548521325E+03    0.22374E-03   -0.11060E-04  1133   0.333E-02    0.729E-02
RMM:   5    -0.190548533644E+03   -0.12319E-04   -0.38659E-05  1074   0.191E-02
 590 F= -.19054853E+03 E0= -.19056045E+03  d E =0.221757E-04  mag=    25.1428
quench:  g(F)=  0.000E+00 g(S)=  0.000E+00 dE (1.order)= 0.000E+00
 bond charge predicted
       N       E                     dE             d eps       ncg     rms          rms(c)
DAV:   1    -0.190548525911E+03   -0.45860E-05   -0.57318E-03  1998   0.163E-01    0.671E-02
RMM:   2    -0.190549429807E+03   -0.90390E-03   -0.96042E-04  1981   0.936E-02    0.554E-01
RMM:   3    -0.190548575962E+03    0.85385E-03   -0.53783E-04  1755   0.749E-02    0.198E-01
RMM:   4    -0.190548545802E+03    0.30159E-04   -0.51486E-05  1088   0.217E-02
 591 F= -.19054855E+03 E0= -.19056041E+03  d E =-.121584E-04  mag=    25.1425
quench:  g(F)=  0.000E+00 g(S)=  0.000E+00 dE (1.order)= 0.000E+00
 bond charge predicted
       N       E                     dE             d eps       ncg     rms          rms(c)
DAV:   1    -0.190548496095E+03    0.79867E-04   -0.81502E-03  2037   0.190E-01    0.502E-02
RMM:   2    -0.190549296095E+03   -0.80000E-03   -0.51893E-04  1613   0.660E-02    0.576E-01
RMM:   3    -0.190548570956E+03    0.72514E-03   -0.24292E-04  1199   0.529E-02    0.221E-01
RMM:   4    -0.190548514074E+03    0.56882E-04   -0.55277E-05  1099   0.238E-02
 592 F= -.19054851E+03 E0= -.19056042E+03  d E =0.317282E-04  mag=    25.1422
quench:  g(F)=  0.000E+00 g(S)=  0.000E+00 dE (1.order)= 0.000E+00
 bond charge predicted
       N       E                     dE             d eps       ncg     rms          rms(c)
DAV:   1    -0.190548474310E+03    0.96646E-04   -0.10424E-02  2031   0.211E-01    0.681E-02
RMM:   2    -0.190549846876E+03   -0.13726E-02   -0.10108E-03  1983   0.926E-02    0.698E-01
RMM:   3    -0.190548737655E+03    0.11092E-02   -0.40538E-04  1621   0.641E-02    0.368E-01
RMM:   4    -0.190548482803E+03    0.25485E-03   -0.16289E-04  1136   0.402E-02    0.869E-02
RMM:   5    -0.190548496885E+03   -0.14082E-04   -0.46173E-05  1058   0.206E-02
 593 F= -.19054850E+03 E0= -.19056043E+03  d E =0.171887E-04  mag=    25.1418
quench:  g(F)=  0.000E+00 g(S)=  0.000E+00 dE (1.order)= 0.000E+00
 bond charge predicted
       N       E                     dE             d eps       ncg     rms          rms(c)
DAV:   1    -0.190548474797E+03    0.80058E-05   -0.13387E-02  1992   0.234E-01    0.846E-02
RMM:   2    -0.190550231833E+03   -0.17570E-02   -0.14910E-03  1992   0.114E-01    0.793E-01
RMM:   3    -0.190548743896E+03    0.14879E-02   -0.78146E-04  1854   0.897E-02    0.389E-01
RMM:   4    -0.190548485792E+03    0.25810E-03   -0.11342E-04  1132   0.330E-02    0.890E-02
RMM:   5    -0.190548504205E+03   -0.18413E-04   -0.50769E-05  1083   0.222E-02
 594 F= -.19054850E+03 E0= -.19056042E+03  d E =-.731999E-05  mag=    25.1414
quench:  g(F)=  0.000E+00 g(S)=  0.000E+00 dE (1.order)= 0.000E+00
 bond charge predicted
       N       E                     dE             d eps       ncg     rms          rms(c)
DAV:   1    -0.190548498750E+03   -0.12958E-04   -0.15758E-02  1992   0.257E-01    0.864E-02
RMM:   2    -0.190549919932E+03   -0.14212E-02   -0.16468E-03  1992   0.119E-01    0.701E-01
RMM:   3    -0.190548720692E+03    0.11992E-02   -0.81059E-04  1862   0.912E-02    0.342E-01
RMM:   4    -0.190548539403E+03    0.18129E-03   -0.11328E-04  1125   0.326E-02    0.143E-01
RMM:   5    -0.190548524975E+03    0.14428E-04   -0.52713E-05  1083   0.222E-02
 595 F= -.19054852E+03 E0= -.19056046E+03  d E =-.207700E-04  mag=    25.1411
quench:  g(F)=  0.000E+00 g(S)=  0.000E+00 dE (1.order)= 0.000E+00
 bond charge predicted
       N       E                     dE             d eps       ncg     rms          rms(c)
DAV:   1    -0.190548541281E+03   -0.18782E-05   -0.19107E-02  1992   0.278E-01    0.985E-02
RMM:   2    -0.190550694669E+03   -0.21534E-02   -0.20182E-03  1995   0.132E-01    0.874E-01
RMM:   3    -0.190548707111E+03    0.19876E-02   -0.11138E-03  1937   0.107E-01    0.334E-01
RMM:   4    -0.190548568257E+03    0.13885E-03   -0.97936E-05  1131   0.301E-02    0.110E-01
RMM:   5    -0.190548579598E+03   -0.11341E-04   -0.57581E-05  1083   0.236E-02
 596 F= -.19054858E+03 E0= -.19056048E+03  d E =-.546228E-04  mag=    25.1407
quench:  g(F)=  0.000E+00 g(S)=  0.000E+00 dE (1.order)= 0.000E+00
 bond charge predicted
       N       E                     dE             d eps       ncg     rms          rms(c)
DAV:   1    -0.190548611082E+03   -0.42825E-04   -0.18784E-02  1992   0.282E-01    0.107E-01
RMM:   2    -0.190550937429E+03   -0.23263E-02   -0.24594E-03  1992   0.147E-01    0.912E-01
RMM:   3    -0.190548914701E+03    0.20227E-02   -0.12915E-03  1956   0.115E-01    0.413E-01
RMM:   4    -0.190548663280E+03    0.25142E-03   -0.16333E-04  1142   0.391E-02    0.175E-01
RMM:   5    -0.190548635324E+03    0.27956E-04   -0.76300E-05  1089   0.267E-02
 597 F= -.19054864E+03 E0= -.19056058E+03  d E =-.557256E-04  mag=    25.1402
quench:  g(F)=  0.000E+00 g(S)=  0.000E+00 dE (1.order)= 0.000E+00
 bond charge predicted
       N       E                     dE             d eps       ncg     rms          rms(c)
DAV:   1    -0.190548651094E+03    0.12185E-04   -0.15315E-02  1992   0.251E-01    0.107E-01
RMM:   2    -0.190551317939E+03   -0.26668E-02   -0.24164E-03  1996   0.146E-01    0.976E-01
RMM:   3    -0.190548821719E+03    0.24962E-02   -0.13801E-03  1952   0.119E-01    0.357E-01
RMM:   4    -0.190548670581E+03    0.15114E-03   -0.10558E-04  1133   0.311E-02    0.108E-01
RMM:   5    -0.190548678731E+03   -0.81506E-05   -0.55360E-05  1083   0.231E-02
 598 F= -.19054868E+03 E0= -.19056057E+03  d E =-.434078E-04  mag=    25.1398
quench:  g(F)=  0.000E+00 g(S)=  0.000E+00 dE (1.order)= 0.000E+00
 bond charge predicted
       N       E                     dE             d eps       ncg     rms          rms(c)
DAV:   1    -0.190548714099E+03   -0.43518E-04   -0.41263E-03  2439   0.158E-01    0.101E-01
RMM:   2    -0.190551066266E+03   -0.23522E-02   -0.21370E-03  1989   0.141E-01    0.936E-01
RMM:   3    -0.190548939226E+03    0.21270E-02   -0.12667E-03  1933   0.114E-01    0.379E-01
RMM:   4    -0.190548746523E+03    0.19270E-03   -0.14033E-04  1139   0.361E-02    0.162E-01
RMM:   5    -0.190548712330E+03    0.34193E-04   -0.54754E-05  1083   0.225E-02
 599 F= -.19054871E+03 E0= -.19056065E+03  d E =-.335986E-04  mag=    25.1395
quench:  g(F)=  0.000E+00 g(S)=  0.000E+00 dE (1.order)= 0.000E+00
 bond charge predicted
       N       E                     dE             d eps       ncg     rms          rms(c)
DAV:   1    -0.190548715298E+03    0.31225E-04   -0.34533E-03  2109   0.138E-01    0.793E-02
RMM:   2    -0.190550217867E+03   -0.15026E-02   -0.12226E-03  1977   0.108E-01    0.738E-01
RMM:   3    -0.190548736588E+03    0.14813E-02   -0.80351E-04  1848   0.913E-02    0.215E-01
RMM:   4    -0.190548721271E+03    0.15317E-04   -0.53469E-05  1110   0.220E-02
 600 F= -.19054872E+03 E0= -.19056071E+03  d E =-.894142E-05  mag=    25.1392
quench:  g(F)=  0.000E+00 g(S)=  0.000E+00 dE (1.order)= 0.000E+00
 bond charge predicted
       N       E                     dE             d eps       ncg     rms          rms(c)
DAV:   1    -0.190548683789E+03    0.52799E-04   -0.46912E-03  1992   0.153E-01    0.508E-02
RMM:   2    -0.190549796025E+03   -0.11122E-02   -0.46272E-04  1610   0.653E-02    0.683E-01
RMM:   3    -0.190548748674E+03    0.10474E-02   -0.28519E-04  1303   0.572E-02    0.230E-01
RMM:   4    -0.190548693153E+03    0.55520E-04   -0.61296E-05  1109   0.251E-02
 601 F= -.19054869E+03 E0= -.19056062E+03  d E =0.281180E-04  mag=    25.1389
quench:  g(F)=  0.000E+00 g(S)=  0.000E+00 dE (1.order)= 0.000E+00
 bond charge predicted
       N       E                     dE             d eps       ncg     rms          rms(c)
DAV:   1    -0.190548662570E+03    0.86104E-04   -0.63883E-03  1992   0.171E-01    0.724E-02
RMM:   2    -0.190549905336E+03   -0.12428E-02   -0.10135E-03  1974   0.965E-02    0.680E-01
RMM:   3    -0.190548812494E+03    0.10928E-02   -0.60002E-04  1789   0.788E-02    0.296E-01
RMM:   4    -0.190548668323E+03    0.14417E-03   -0.69377E-05  1114   0.256E-02    0.793E-02
RMM:   5    -0.190548675476E+03   -0.71533E-05   -0.28827E-05  1063   0.166E-02
 602 F= -.19054868E+03 E0= -.19056058E+03  d E =0.176776E-04  mag=    25.1386
quench:  g(F)=  0.000E+00 g(S)=  0.000E+00 dE (1.order)= 0.000E+00
 bond charge predicted
       N       E                     dE             d eps       ncg     rms          rms(c)
DAV:   1    -0.190548645300E+03    0.23023E-04   -0.80253E-03  2028   0.188E-01    0.755E-02
RMM:   2    -0.190549890195E+03   -0.12449E-02   -0.11796E-03  1992   0.103E-01    0.668E-01
RMM:   3    -0.190548798448E+03    0.10917E-02   -0.65408E-04  1810   0.820E-02    0.305E-01
RMM:   4    -0.190548654623E+03    0.14383E-03   -0.82930E-05  1114   0.280E-02    0.111E-01
RMM:   5    -0.190548650687E+03    0.39357E-05   -0.36606E-05  1081   0.185E-02
 603 F= -.19054865E+03 E0= -.19056059E+03  d E =0.247887E-04  mag=    25.1383
quench:  g(F)=  0.000E+00 g(S)=  0.000E+00 dE (1.order)= 0.000E+00
 bond charge predicted
       N       E                     dE             d eps       ncg     rms          rms(c)
DAV:   1    -0.190548620176E+03    0.34447E-04   -0.10178E-02  1992   0.208E-01    0.796E-02
RMM:   2    -0.190549928381E+03   -0.13082E-02   -0.12812E-03  1991   0.107E-01    0.693E-01
RMM:   3    -0.190548628636E+03    0.12997E-02   -0.75204E-04  1836   0.883E-02    0.173E-01
RMM:   4    -0.190548649686E+03   -0.21050E-04   -0.59385E-05  1101   0.232E-02
 604 F= -.19054865E+03 E0= -.19056066E+03  d E =0.100141E-05  mag=    25.1380
quench:  g(F)=  0.000E+00 g(S)=  0.000E+00 dE (1.order)= 0.000E+00
 bond charge predicted
       N       E                     dE             d eps       ncg     rms          rms(c)
DAV:   1    -0.190548618531E+03    0.10104E-04   -0.11691E-02  1992   0.233E-01    0.861E-02
RMM:   2    -0.190553344434E+03   -0.47259E-02   -0.14464E-03  1989   0.112E-01    0.140E+00
RMM:   3    -0.190548610065E+03    0.47344E-02   -0.90332E-04  1878   0.939E-02    0.325E-01
RMM:   4    -0.190548629310E+03   -0.19245E-04   -0.17536E-04  1173   0.425E-02
 605 F= -.19054863E+03 E0= -.19056057E+03  d E =0.203757E-04  mag=    25.1378
quench:  g(F)=  0.000E+00 g(S)=  0.000E+00 dE (1.order)= 0.000E+00
 bond charge predicted
       N       E                     dE             d eps       ncg     rms          rms(c)
DAV:   1    -0.190548640879E+03   -0.30814E-04   -0.13419E-02  1992   0.255E-01    0.995E-02
RMM:   2    -0.190550529839E+03   -0.18890E-02   -0.19825E-03  1996   0.136E-01    0.835E-01
RMM:   3    -0.190548731395E+03    0.17984E-02   -0.11562E-03  1933   0.109E-01    0.268E-01
RMM:   4    -0.190548683510E+03    0.47885E-04   -0.10663E-04  1122   0.310E-02
 606 F= -.19054868E+03 E0= -.19056071E+03  d E =-.541997E-04  mag=    25.1375
quench:  g(F)=  0.000E+00 g(S)=  0.000E+00 dE (1.order)= 0.000E+00
 bond charge predicted
       N       E                     dE             d eps       ncg     rms          rms(c)
DAV:   1    -0.190548648069E+03    0.83326E-04   -0.10457E-02  2028   0.230E-01    0.837E-02
RMM:   2    -0.190553197419E+03   -0.45494E-02   -0.13946E-03  1991   0.108E-01    0.138E+00
RMM:   3    -0.190548599661E+03    0.45978E-02   -0.82364E-04  1864   0.893E-02    0.276E-01
RMM:   4    -0.190548669517E+03   -0.69856E-04   -0.17152E-04  1164   0.420E-02
 607 F= -.19054867E+03 E0= -.19056063E+03  d E =0.139923E-04  mag=    25.1371
quench:  g(F)=  0.000E+00 g(S)=  0.000E+00 dE (1.order)= 0.000E+00
 bond charge predicted
       N       E                     dE             d eps       ncg     rms          rms(c)
DAV:   1    -0.190548693643E+03   -0.93982E-04   -0.46704E-03  2481   0.178E-01    0.107E-01
RMM:   2    -0.190551197609E+03   -0.25040E-02   -0.22562E-03  1990   0.146E-01    0.991E-01
RMM:   3    -0.190548713058E+03    0.24846E-02   -0.14182E-03  1933   0.120E-01    0.251E-01
RMM:   4    -0.190548706761E+03    0.62966E-05   -0.14267E-04  1124   0.363E-02
 608 F= -.19054871E+03 E0= -.19056054E+03  d E =-.372439E-04  mag=    25.1368
quench:  g(F)=  0.000E+00 g(S)=  0.000E+00 dE (1.order)= 0.000E+00
 bond charge predicted
       N       E                     dE             d eps       ncg     rms          rms(c)
DAV:   1    -0.190548684890E+03    0.28168E-04   -0.19993E-03  2496   0.131E-01    0.646E-02
RMM:   2    -0.190552001812E+03   -0.33169E-02   -0.79235E-04  1901   0.855E-02    0.115E+00
RMM:   3    -0.190548572055E+03    0.34298E-02   -0.54799E-04  1749   0.740E-02    0.208E-01
RMM:   4    -0.190548684395E+03   -0.11234E-03   -0.11130E-04  1139   0.342E-02    0.680E-02
RMM:   5    -0.190548712043E+03   -0.27647E-04   -0.42441E-05  1069   0.202E-02
 609 F= -.19054871E+03 E0= -.19056066E+03  d E =-.528143E-05  mag=    25.1364
quench:  g(F)=  0.000E+00 g(S)=  0.000E+00 dE (1.order)= 0.000E+00
 bond charge predicted
       N       E                     dE             d eps       ncg     rms          rms(c)
DAV:   1    -0.190548664052E+03    0.20343E-04   -0.26556E-03  2160   0.129E-01    0.467E-02
RMM:   2    -0.190549117047E+03   -0.45299E-03   -0.42498E-04  1612   0.645E-02    0.407E-01
RMM:   3    -0.190548671028E+03    0.44602E-03   -0.26876E-04  1274   0.570E-02    0.106E-01
RMM:   4    -0.190548674415E+03   -0.33867E-05   -0.27728E-05  1059   0.160E-02
 610 F= -.19054867E+03 E0= -.19056065E+03  d E =0.376276E-04  mag=    25.1362
quench:  g(F)=  0.000E+00 g(S)=  0.000E+00 dE (1.order)= 0.000E+00
 reached required accuracy - stopping structural energy minimisation
