 vasp.5.4.4.18Apr17-6-g9f103f2a35 (build Feb 06 2024 13:54:16) complex          
  
 POSCAR found type information on POSCAR  Pd N  O 
 03/POSCAR found :  3 types and      40 ions
 scaLAPACK will be used

 ----------------------------------------------------------------------------- 
|                                                                             |
|  ADVICE TO THIS USER RUNNING 'VASP/VAMP'   (HEAR YOUR MASTER'S VOICE ...):  |
|                                                                             |
|      You enforced a specific xc-type in the INCAR file,                     |
|      a different type was found on the POTCAR file                          |
|          I HOPE YOU KNOW, WHAT YOU ARE  DOING                               |
|                                                                             |
 ----------------------------------------------------------------------------- 

 LDA part: xc-table for Pade appr. of Perdew
 POSCAR found type information on POSCAR  Pd N  O 
 00/POSCAR found :  3 types and      40 ions
 POSCAR found type information on POSCAR  Pd N  O 
 06/POSCAR found :  3 types and      40 ions
 Jacobian:    21.0960049830057     
 POSCAR, INCAR and KPOINTS ok, starting setup
 FFT: planning ...
 WAVECAR not read
 entering main loop
       N       E                     dE             d eps       ncg     rms          rms(c)
  Solvation turned off during non-self-consistent phase (first NELMDL steps)
DAV:   1     0.266901905901E+04    0.26690E+04   -0.17926E+05 11088   0.149E+03
DAV:   2    -0.924579531196E+01   -0.26783E+04   -0.25082E+04 12270   0.321E+02
DAV:   3    -0.183031333034E+03   -0.17379E+03   -0.15700E+03 13104   0.729E+01
DAV:   4    -0.190104049836E+03   -0.70727E+01   -0.65987E+01 13083   0.143E+01
DAV:   5    -0.190355962790E+03   -0.25191E+00   -0.24222E+00 12987   0.272E+00    0.364E+01
 Begin Solvation calculations
  rms_SCF =    2.85732849577411      tol =   0.285732849577411     
 Begin minimization
 Creating dielectric and ionic cavities
  area:      169.606438254716     
  volume:    805.793526658966     
  Acav:     8.904338008372602E-002
  Solving linear dielectric/ionic screening model
        iter                  A_solv                     rms
   LPB:       -0.592693762124416E+03   0.338569087939353E+03
   LPB:    0  -0.165724469216313E+01   0.630026758636068E+01  -0.609523E+01   0.000000E+00   0.318174E+02  -0.193934E+03
   LPB:    1  -0.499382902685852E+00   0.387955455764947E+01   0.158717E-01   0.000000E+00   0.148919E+03   0.134530E-13
   LPB:    2  -0.315483329036397E+00   0.216169245950838E+01   0.151105E-01   0.166829E+00   0.942218E+02   0.263636E-13
   LPB:    3  -0.212055046683190E+00   0.535996012643516E+00   0.220376E-01   0.385632E+00   0.117346E+03   0.272925E-13
   LPB:    4  -0.164223398010108E+00   0.338953587605503E+00   0.325232E-01   0.313362E+00   0.151288E+03   0.271931E-13
   LPB:    5  -0.141843336454031E+00   0.371912077337601E+00   0.325185E-01   0.467960E+00   0.810883E+02   0.290341E-13
   LPB:    6  -0.130545422476985E+00   0.458562848589963E+00   0.263885E-01   0.622090E+00   0.309181E+03   0.281035E-13
   LPB:    7  -0.122802652840505E+00   0.209068102781570E+00   0.273689E-01   0.660777E+00   0.480659E+02   0.288848E-13
  Finished solving LPB equations
  A_corr:   -3.375927275677927E-002
 End minimization
 Ecorr=   2200.45244077482     
 A_corr= -3.375927275677927E-002
 Ecorr_band=  -2200.48620004758     
 End Solvation calculations
RMM:   6    -0.185636293877E+03    0.47197E+01   -0.37657E+01 11113   0.130E+01    0.264E+01
 Begin Solvation calculations
  rms_SCF =    2.85732849577411      tol =   0.285732849577411     
 Begin minimization
 Creating dielectric and ionic cavities
  area:      170.142616192899     
  volume:    809.887983726489     
  Acav:     8.932487350127198E-002
  Solving linear dielectric/ionic screening model
        iter                  A_solv                     rms
   LPB:       -0.211317982175508E+02   0.830530972247317E+02
   LPB:    0  -0.207392874158100E+02   0.823208637051873E+02   0.157552E+00   0.000000E+00   0.316254E+02   0.498263E+01
   LPB:    1  -0.214124971916058E+01   0.778782585839857E+01   0.884451E-02   0.000000E+00   0.700865E+02   0.342571E-15
   LPB:    2  -0.661037159989686E+00   0.140998553373227E+01   0.159366E-01   0.441708E-01   0.126643E+03   0.817807E-14
   LPB:    3  -0.454232706078670E+00   0.463649442954335E+00   0.222886E-01   0.998959E-01   0.204256E+03   0.892400E-14
   LPB:    4  -0.399011817568788E+00   0.336849428735797E+00   0.276044E-01   0.215600E+00   0.302480E+03   0.120434E-13
   LPB:    5  -0.378510283576784E+00   0.245467172348013E+00   0.290573E-01   0.352700E+00   0.197074E+03   0.134904E-13
  Finished solving LPB equations
  A_corr:   -0.289185410075512     
 End minimization
 Ecorr=   2170.10508021478     
 A_corr= -0.289185410075512     
 Ecorr_band=  -2170.39426562485     
 End Solvation calculations
RMM:   7    -0.240382620563E+03   -0.54746E+02   -0.24708E+01 11122   0.854E+00    0.563E+01
 Begin Solvation calculations
  rms_SCF =    2.85732849577411      tol =   0.285732849577411     
 Begin minimization
 Creating dielectric and ionic cavities
  area:      162.162389937103     
  volume:    813.099950694553     
  Acav:     8.513525471697886E-002
  Solving linear dielectric/ionic screening model
        iter                  A_solv                     rms
   LPB:       -0.210985527495858E+02   0.830434248419834E+02
   LPB:    0  -0.209036179831230E+02   0.827914271236617E+02   0.111296E+00   0.000000E+00   0.314748E+02   0.350301E+01
   LPB:    1  -0.198316202850302E+01   0.779614533999108E+01   0.888988E-02   0.000000E+00   0.698553E+02  -0.128971E-15
   LPB:    2  -0.447662735520211E+00   0.168351619196058E+01   0.160334E-01   0.449975E-01   0.128857E+03   0.181425E-14
   LPB:    3  -0.216221875974441E+00   0.562650967324506E+00   0.226954E-01   0.106482E+00   0.151275E+03   0.339526E-14
   LPB:    4  -0.160547996535438E+00   0.513440351637657E+00   0.254946E-01   0.214142E+00   0.346303E+03   0.286178E-13
   LPB:    5  -0.143155754269944E+00   0.364641645708845E+00   0.239235E-01   0.332910E+00   0.131491E+03   0.350089E-13
   LPB:    6  -0.135730629141687E+00   0.307701765256218E+00   0.240973E-01   0.423843E+00   0.304306E+03   0.381132E-13
   LPB:    7  -0.131780556079079E+00   0.101553731049810E+00   0.268774E-01   0.476959E+00   0.850368E+02   0.406634E-13
  Finished solving LPB equations
  A_corr:   -4.664530136209993E-002
 End minimization
 Ecorr=   2098.28304233789     
 A_corr= -4.664530136209993E-002
 Ecorr_band=  -2098.32968763925     
 End Solvation calculations
RMM:   8    -0.192131785431E+03    0.48251E+02   -0.17621E+01 11093   0.728E+00    0.322E+01
 Begin Solvation calculations
  rms_SCF =    2.85732849577411      tol =   0.285732849577411     
 Begin minimization
 Creating dielectric and ionic cavities
  area:      170.163266626917     
  volume:    805.919263500076     
  Acav:     8.933571497913166E-002
  Solving linear dielectric/ionic screening model
        iter                  A_solv                     rms
   LPB:       -0.881905376604474E+00   0.153111323446838E+02
   LPB:    0  -0.384472302699777E+00   0.659901003344767E+01  -0.176844E+00   0.000000E+00   0.318115E+02  -0.562567E+01
   LPB:    1  -0.185920713949516E+00   0.961396284996593E+00   0.104303E-01   0.000000E+00   0.542418E+02   0.253688E-15
   LPB:    2  -0.166565130903346E+00   0.557660496867683E+00   0.152178E-01   0.668154E-01   0.100943E+03  -0.877166E-14
   LPB:    3  -0.161937989859507E+00   0.319748840200375E+00   0.178452E-01   0.203863E+00   0.102780E+03  -0.136365E-13
   LPB:    4  -0.158080929518369E+00   0.141494466782410E+00   0.319923E-01   0.464965E+00   0.646023E+02  -0.154390E-13
  Finished solving LPB equations
  A_corr:   -6.874521453923728E-002
 End minimization
 Ecorr=   2114.42351956217     
 A_corr= -6.874521453923728E-002
 Ecorr_band=  -2114.49226477671     
 End Solvation calculations
RMM:   9    -0.186869308131E+03    0.52625E+01   -0.17420E+01 11103   0.772E+00    0.213E+01
 Begin Solvation calculations
  rms_SCF =    2.85732849577411      tol =   0.285732849577411     
 Begin minimization
 Creating dielectric and ionic cavities
  area:      152.246749881808     
  volume:    806.843543938815     
  Acav:     7.992954368794915E-002
  Solving linear dielectric/ionic screening model
        iter                  A_solv                     rms
   LPB:       -0.236741165360878E+01   0.261249097733232E+02
   LPB:    0  -0.177841716657394E+01   0.228232486516018E+02   0.192564E+00   0.000000E+00   0.317681E+02   0.611739E+01
   LPB:    1  -0.327376075931825E+00   0.218946624791612E+01   0.890666E-02   0.000000E+00   0.694788E+02   0.162848E-15
   LPB:    2  -0.199381655718575E+00   0.448677987297430E+00   0.161890E-01   0.485296E-01   0.131242E+03   0.530613E-14
   LPB:    3  -0.179366114844781E+00   0.261245997151433E+00   0.216722E-01   0.116813E+00   0.232107E+03   0.576921E-14
   LPB:    4  -0.173778534751875E+00   0.341389247357038E+00   0.237838E-01   0.254378E+00   0.255446E+03   0.277145E-14
   LPB:    5  -0.170750557776721E+00   0.143579875087405E+00   0.258761E-01   0.498092E+00   0.697813E+02   0.293818E-14
  Finished solving LPB equations
  A_corr:   -9.082101408877206E-002
 End minimization
 Ecorr=   2055.60274762894     
 A_corr= -9.082101408877206E-002
 Ecorr_band=  -2055.69356864302     
 End Solvation calculations
RMM:  10    -0.187570467159E+03   -0.70116E+00   -0.77210E+00 11114   0.519E+00    0.206E+01
 Begin Solvation calculations
  rms_SCF =    2.85732849577411      tol =   0.285732849577411     
 Begin minimization
 Creating dielectric and ionic cavities
  area:      152.438983116442     
  volume:    800.892968818844     
  Acav:     8.003046613613181E-002
  Solving linear dielectric/ionic screening model
        iter                  A_solv                     rms
   LPB:       -0.378382946126472E+00   0.802121720526876E+01
   LPB:    0  -0.298275862291423E+00   0.547660566711202E+01  -0.707060E-01   0.000000E+00   0.320471E+02  -0.226592E+01
   LPB:    1  -0.198407641985132E+00   0.716812388648568E+00   0.948417E-02   0.000000E+00   0.619890E+02  -0.151899E-15
   LPB:    2  -0.185826063281504E+00   0.349169949758332E+00   0.169335E-01   0.705603E-01   0.888868E+02  -0.113219E-14
   LPB:    3  -0.182276061405606E+00   0.267703580020298E+00   0.204421E-01   0.233730E+00   0.140214E+03  -0.212713E-14
   LPB:    4  -0.179707442641409E+00   0.133524277404875E+00   0.316374E-01   0.467516E+00   0.917576E+02  -0.281520E-14
  Finished solving LPB equations
  A_corr:   -9.967697650527731E-002
 End minimization
 Ecorr=   2056.16379214357     
 A_corr= -9.967697650527731E-002
 Ecorr_band=  -2056.26346912008     
 End Solvation calculations
RMM:  11    -0.182493178050E+03    0.50773E+01   -0.44023E+00 11112   0.401E+00    0.108E+01
 Begin Solvation calculations
  rms_SCF =    2.85732849577411      tol =   0.285732849577411     
 Begin minimization
 Creating dielectric and ionic cavities
  area:      152.572398063625     
  volume:    798.900493010745     
  Acav:     8.010050898340308E-002
  Solving linear dielectric/ionic screening model
        iter                  A_solv                     rms
   LPB:       -0.227543280867758E+00   0.332009878735375E+01
   LPB:    0  -0.206929422195820E+00   0.273601174446537E+01   0.358153E-01   0.000000E+00   0.321405E+02   0.115112E+01
   LPB:    1  -0.183879821405816E+00   0.217562720392834E+00   0.878180E-02   0.000000E+00   0.797298E+02   0.969118E-17
   LPB:    2  -0.181175779511728E+00   0.100290022008548E+00   0.200098E-01   0.514863E-01   0.213487E+03  -0.154700E-15
   LPB:    3  -0.178898589517208E+00   0.990552261218527E-01   0.459105E-01   0.367042E+00   0.181346E+03  -0.722080E-15
   LPB:    4  -0.176773826547517E+00   0.178302954912856E+00   0.375627E-01   0.114042E+01   0.188911E+03  -0.860329E-15
  Finished solving LPB equations
  A_corr:   -9.667331756411400E-002
 End minimization
 Ecorr=   2036.36206070910     
 A_corr= -9.667331756411400E-002
 Ecorr_band=  -2036.45873402666     
 End Solvation calculations
RMM:  12    -0.182004060944E+03    0.48912E+00   -0.15263E+00 11113   0.237E+00    0.870E+00
 Begin Solvation calculations
  rms_SCF =    2.85732849577411      tol =   0.285732849577411     
 Begin minimization
 Creating dielectric and ionic cavities
  area:      150.985251678295     
  volume:    796.440650604460     
  Acav:     7.926725713110480E-002
  Solving linear dielectric/ionic screening model
        iter                  A_solv                     rms
   LPB:       -0.194891059540460E+00   0.142989124386593E+01
   LPB:    0  -0.183464482629604E+00   0.861912072372479E+00   0.266176E-01   0.000000E+00   0.322558E+02   0.858573E+00
   LPB:    1  -0.179211133022616E+00   0.226142533959806E+00   0.113841E-01   0.000000E+00   0.816746E+02   0.863016E-17
   LPB:    2  -0.177903397924141E+00   0.861232422994960E-01   0.186158E-01   0.188020E+00   0.320735E+03   0.100497E-14
   LPB:    3  -0.177054230700783E+00   0.159171235319949E+00   0.343249E-01   0.352164E+00   0.299817E+03   0.120777E-14
   LPB:    4  -0.176331347545117E+00   0.112292183744340E+00   0.296769E-01   0.984614E+00   0.621575E+02   0.137050E-14
  Finished solving LPB equations
  A_corr:   -9.706409041401171E-002
 End minimization
 Ecorr=   2021.44742627753     
 A_corr= -9.706409041401171E-002
 Ecorr_band=  -2021.54449036795     
 End Solvation calculations
RMM:  13    -0.181800186479E+03    0.20387E+00   -0.72836E-01 11121   0.163E+00    0.776E+00
 Begin Solvation calculations
  rms_SCF =    2.85732849577411      tol =   0.285732849577411     
 Begin minimization
 Creating dielectric and ionic cavities
  area:      150.870708761460     
  volume:    793.251432390548     
  Acav:     7.920712209976676E-002
  Solving linear dielectric/ionic screening model
        iter                  A_solv                     rms
   LPB:       -0.190795347529117E+00   0.156223238849846E+01
   LPB:    0  -0.187413681882514E+00   0.137302522021326E+01   0.144468E-01   0.000000E+00   0.324053E+02   0.468154E+00
   LPB:    1  -0.179544921217517E+00   0.200847501014390E+00   0.935626E-02   0.000000E+00   0.953617E+02  -0.205034E-16
   LPB:    2  -0.178151027850476E+00   0.711844027997811E-01   0.191915E-01   0.863607E-01   0.420308E+03  -0.183075E-15
   LPB:    3  -0.177383454181320E+00   0.880002914165818E-01   0.311854E-01   0.338882E+00   0.267253E+03   0.405804E-15
   LPB:    4  -0.176835992823863E+00   0.940146476078564E-01   0.383761E-01   0.579593E+00   0.958771E+02   0.691615E-15
  Finished solving LPB equations
  A_corr:   -9.762887072409658E-002
 End minimization
 Ecorr=   2015.48050380016     
 A_corr= -9.762887072409658E-002
 Ecorr_band=  -2015.57813267089     
 End Solvation calculations
RMM:  14    -0.181440114477E+03    0.36007E+00   -0.45698E-01 11114   0.128E+00    0.408E+00
 Begin Solvation calculations
  rms_SCF =    1.25230965969534      tol =   0.125230965969534     
 Begin minimization
 Creating dielectric and ionic cavities
  area:      151.103810781181     
  volume:    791.394759204825     
  Acav:     7.932950066012005E-002
  Solving linear dielectric/ionic screening model
        iter                  A_solv                     rms
   LPB:       -0.182470892243853E+00   0.105545684895859E+01
   LPB:    0  -0.179362445929497E+00   0.627345955769729E+00   0.138323E-01   0.000000E+00   0.324924E+02   0.449446E+00
   LPB:    1  -0.177122901797431E+00   0.171893627324315E+00   0.103961E-01   0.000000E+00   0.101699E+03  -0.118076E-17
   LPB:    2  -0.176505015215668E+00   0.445128173287357E-01   0.190114E-01   0.150871E+00   0.236410E+03  -0.347159E-15
   LPB:    3  -0.176082700458262E+00   0.406117547838052E-01   0.371320E-01   0.349939E+00   0.484532E+03  -0.679251E-16
   LPB:    4  -0.175632854210004E+00   0.345967218829384E-01   0.503921E-01   0.784900E+00   0.175032E+03   0.613731E-16
  Finished solving LPB equations
  A_corr:   -9.630335354988372E-002
 End minimization
 Ecorr=   2010.69793022151     
 A_corr= -9.630335354988372E-002
 Ecorr_band=  -2010.79423357506     
 End Solvation calculations
RMM:  15    -0.181337564990E+03    0.10255E+00   -0.14141E-01 11118   0.710E-01    0.315E+00
 Begin Solvation calculations
  rms_SCF =    1.25230965969534      tol =   0.125230965969534     
 Begin minimization
 Creating dielectric and ionic cavities
  area:      151.504779635379     
  volume:    789.143009236546     
  Acav:     7.954000930857406E-002
  Solving linear dielectric/ionic screening model
        iter                  A_solv                     rms
   LPB:       -0.181960182391864E+00   0.945260798141179E+00
   LPB:    0  -0.178673731972097E+00   0.604798066064873E+00   0.141998E-01   0.000000E+00   0.325980E+02   0.462886E+00
   LPB:    1  -0.175993605386399E+00   0.193159666326266E+00   0.104609E-01   0.000000E+00   0.133901E+03   0.234336E-16
   LPB:    2  -0.175470006205900E+00   0.491249173429051E-01   0.161796E-01   0.126313E+00   0.185449E+03  -0.991479E-16
   LPB:    3  -0.175238861778446E+00   0.737748268945852E-01   0.295046E-01   0.242081E+00   0.171329E+03  -0.230012E-15
   LPB:    4  -0.175042807615489E+00   0.574388098095718E-01   0.309418E-01   0.808793E+00   0.122227E+03  -0.393163E-16
  Finished solving LPB equations
  A_corr:   -9.550279830691484E-002
 End minimization
 Ecorr=   2005.83567704906     
 A_corr= -9.550279830691484E-002
 Ecorr_band=  -2005.93117984737     
 End Solvation calculations
RMM:  16    -0.181336234622E+03    0.13304E-02   -0.36926E-02 11114   0.363E-01    0.313E+00
 Begin Solvation calculations
  rms_SCF =    1.25230965969534      tol =   0.125230965969534     
 Begin minimization
 Creating dielectric and ionic cavities
  area:      151.855411114189     
  volume:    787.342629628614     
  Acav:     7.972409083494936E-002
  Solving linear dielectric/ionic screening model
        iter                  A_solv                     rms
   LPB:       -0.178561578458091E+00   0.545043153543214E+00
   LPB:    0  -0.177038649946760E+00   0.306756015206311E+00   0.965379E-02   0.000000E+00   0.326824E+02   0.315509E+00
   LPB:    1  -0.175564467990142E+00   0.158074804386823E+00   0.118320E-01   0.000000E+00   0.221289E+03   0.825721E-17
   LPB:    2  -0.175334798658563E+00   0.495751395035053E-01   0.148385E-01   0.124228E+00   0.110979E+03  -0.247891E-15
   LPB:    3  -0.175154532407209E+00   0.651923601410924E-01   0.347386E-01   0.335266E+00   0.203032E+03  -0.187750E-15
   LPB:    4  -0.174965382335877E+00   0.626689412786978E-01   0.319913E-01   0.113939E+01   0.151124E+03  -0.167085E-15
  Finished solving LPB equations
  A_corr:   -9.524129150092783E-002
 End minimization
 Ecorr=   2002.22487250090     
 A_corr= -9.524129150092783E-002
 Ecorr_band=  -2002.32011379240     
 End Solvation calculations
RMM:  17    -0.181313620060E+03    0.22615E-01   -0.23108E-02 11109   0.289E-01    0.250E+00
 Begin Solvation calculations
  rms_SCF =    1.25230965969534      tol =   0.125230965969534     
 Begin minimization
 Creating dielectric and ionic cavities
  area:      152.500519560023     
  volume:    783.964805581821     
  Acav:     8.006277276901212E-002
  Solving linear dielectric/ionic screening model
        iter                  A_solv                     rms
   LPB:       -0.187106219288811E+00   0.901953007016652E+00
   LPB:    0  -0.181852256886868E+00   0.466951914827203E+00   0.178876E-01   0.000000E+00   0.328407E+02   0.587442E+00
   LPB:    1  -0.176143632738349E+00   0.202006184000174E+00   0.133831E-01   0.000000E+00   0.279439E+03   0.948978E-17
   LPB:    2  -0.175466275237146E+00   0.712320637499052E-01   0.166059E-01   0.956274E-01   0.854940E+02  -0.209782E-16
   LPB:    3  -0.175168901891962E+00   0.579444837574445E-01   0.277182E-01   0.263015E+00   0.241416E+03  -0.640602E-15
   LPB:    4  -0.174961093320141E+00   0.874385209499445E-01   0.340981E-01   0.568063E+00   0.202093E+03  -0.651309E-15
  Finished solving LPB equations
  A_corr:   -9.489832055112869E-002
 End minimization
 Ecorr=   1996.33638466913     
 A_corr= -9.489832055112869E-002
 Ecorr_band=  -1996.43128298968     
 End Solvation calculations
RMM:  18    -0.181284612148E+03    0.29008E-01   -0.29588E-02 11106   0.325E-01    0.147E+00
 Begin Solvation calculations
  rms_SCF =    1.25230965969534      tol =   0.125230965969534     
 Begin minimization
 Creating dielectric and ionic cavities
  area:      153.007444446389     
  volume:    781.315419244047     
  Acav:     8.032890833435416E-002
  Solving linear dielectric/ionic screening model
        iter                  A_solv                     rms
   LPB:       -0.185117559433822E+00   0.981643259783966E+00
   LPB:    0  -0.181483197436096E+00   0.749937192420210E+00   0.148492E-01   0.000000E+00   0.329649E+02   0.489503E+00
   LPB:    1  -0.175835400207962E+00   0.231143597982526E+00   0.125411E-01   0.000000E+00   0.126188E+03   0.141215E-16
   LPB:    2  -0.175058476191321E+00   0.970820748948371E-01   0.138276E-01   0.124764E+00   0.153312E+03   0.166268E-15
   LPB:    3  -0.174773116688505E+00   0.901894019794272E-01   0.232951E-01   0.218020E+00   0.111201E+03   0.131366E-14
   LPB:    4  -0.174546482353762E+00   0.690580650977396E-01   0.271388E-01   0.681722E+00   0.276211E+03   0.173301E-14
  Finished solving LPB equations
  A_corr:   -9.421757401940761E-002
 End minimization
 Ecorr=   1991.37484837174     
 A_corr= -9.421757401940761E-002
 Ecorr_band=  -1991.46906594576     
 End Solvation calculations
RMM:  19    -0.181264395777E+03    0.20216E-01   -0.23584E-02 11113   0.283E-01    0.672E-01
 Begin Solvation calculations
  rms_SCF =   0.315993856150511      tol =   3.159938561505109E-002
 Begin minimization
 Creating dielectric and ionic cavities
  area:      153.212755415296     
  volume:    780.300693653845     
  Acav:     8.043669659303035E-002
  Solving linear dielectric/ionic screening model
        iter                  A_solv                     rms
   LPB:       -0.177070329952211E+00   0.637364064082044E+00
   LPB:    0  -0.175924593155908E+00   0.364190865835986E+00   0.833140E-02   0.000000E+00   0.330125E+02   0.275041E+00
   LPB:    1  -0.174179795774580E+00   0.973848324054307E-01   0.138555E-01   0.000000E+00   0.127168E+03   0.313066E-17
   LPB:    2  -0.173985621206177E+00   0.772411803119563E-01   0.157229E-01   0.980705E-01   0.148880E+03  -0.117397E-15
   LPB:    3  -0.173801775696851E+00   0.644079741544863E-01   0.297983E-01   0.499575E+00   0.114358E+03  -0.385448E-15
   LPB:    4  -0.173602782283315E+00   0.574393439270017E-01   0.345708E-01   0.932972E+00   0.339316E+03  -0.516430E-15
   LPB:    5  -0.173462641311178E+00   0.600301603128152E-01   0.266481E-01   0.913627E+00   0.119209E+03  -0.699657E-15
   LPB:    6  -0.173346327785730E+00   0.206742224439164E-01   0.306600E-01   0.721373E+00   0.132653E+03  -0.728178E-15
  Finished solving LPB equations
  A_corr:   -9.290963119269921E-002
 End minimization
 Ecorr=   1990.07535170428     
 A_corr= -9.290963119269921E-002
 Ecorr_band=  -1990.16826133547     
 End Solvation calculations
RMM:  20    -0.181260691759E+03    0.37040E-02   -0.54327E-03 11116   0.139E-01    0.510E-01
 Begin Solvation calculations
  rms_SCF =   0.214230594168761      tol =   2.142305941687606E-002
 Begin minimization
 Creating dielectric and ionic cavities
  area:      153.346880811266     
  volume:    779.567037534405     
  Acav:     8.050711242591477E-002
  Solving linear dielectric/ionic screening model
        iter                  A_solv                     rms
   LPB:       -0.174449462518845E+00   0.442224689834902E+00
   LPB:    0  -0.173955226629014E+00   0.290349962866118E+00   0.546911E-02   0.000000E+00   0.330469E+02   0.180737E+00
   LPB:    1  -0.172710192077829E+00   0.729188586137872E-01   0.139875E-01   0.000000E+00   0.143824E+03  -0.331368E-17
   LPB:    2  -0.172582065396566E+00   0.494998828222740E-01   0.149869E-01   0.960471E-01   0.169525E+03   0.240522E-15
   LPB:    3  -0.172545418092447E+00   0.237889765442966E-01   0.167052E-01   0.256605E+00   0.144861E+03   0.277288E-15
   LPB:    4  -0.172522603351889E+00   0.285568635110368E-01   0.301929E-01   0.344444E+00   0.254653E+03   0.418849E-15
   LPB:    5  -0.172490697267894E+00   0.311089604227704E-01   0.371271E-01   0.113729E+01   0.121137E+03   0.498494E-15
   LPB:    6  -0.172434989401252E+00   0.125392314092325E-01   0.457547E-01   0.141677E+01   0.129230E+03   0.312806E-15
  Finished solving LPB equations
  A_corr:   -9.192787697533739E-002
 End minimization
 Ecorr=   1988.81285477627     
 A_corr= -9.192787697533739E-002
 Ecorr_band=  -1988.90478265324     
 End Solvation calculations
RMM:  21    -0.181258840796E+03    0.18510E-02   -0.22527E-03 11100   0.906E-02    0.398E-01
 Begin Solvation calculations
  rms_SCF =   0.213720709593148      tol =   2.137207095931483E-002
 Begin minimization
 Creating dielectric and ionic cavities
  area:      153.504509179566     
  volume:    778.756177687151     
  Acav:     8.058986731927210E-002
  Solving linear dielectric/ionic screening model
        iter                  A_solv                     rms
   LPB:       -0.174109687012299E+00   0.443938052003662E+00
   LPB:    0  -0.173664702526388E+00   0.321883134628698E+00   0.518648E-02   0.000000E+00   0.330849E+02   0.171594E+00
   LPB:    1  -0.171749848721946E+00   0.846759061968608E-01   0.137058E-01   0.000000E+00   0.189277E+03  -0.122788E-16
   LPB:    2  -0.171583471349555E+00   0.428774139752441E-01   0.158714E-01   0.750322E-01   0.109746E+03  -0.393906E-15
   LPB:    3  -0.171543950677123E+00   0.260737095970405E-01   0.181565E-01   0.207641E+00   0.147853E+03  -0.447564E-15
   LPB:    4  -0.171524508918759E+00   0.299374005688787E-01   0.255011E-01   0.350256E+00   0.183259E+03  -0.347112E-15
   LPB:    5  -0.171510813275098E+00   0.168525588054871E-01   0.219377E-01   0.818870E+00   0.655036E+02  -0.262868E-15
  Finished solving LPB equations
  A_corr:   -9.092094595582596E-002
 End minimization
 Ecorr=   1988.44976669116     
 A_corr= -9.092094595582596E-002
 Ecorr_band=  -1988.54068763711     
 End Solvation calculations
RMM:  22    -0.181258243726E+03    0.59707E-03   -0.16202E-03 11045   0.757E-02    0.392E-01
 Begin Solvation calculations
  rms_SCF =   0.213720709593148      tol =   2.137207095931483E-002
 Begin minimization
 Creating dielectric and ionic cavities
  area:      153.704015363665     
  volume:    777.801061316212     
  Acav:     8.069460806592420E-002
  Solving linear dielectric/ionic screening model
        iter                  A_solv                     rms
   LPB:       -0.175602377677084E+00   0.655104211791130E+00
   LPB:    0  -0.174855333937649E+00   0.527855719900132E+00   0.671552E-02   0.000000E+00   0.331297E+02   0.222483E+00
   LPB:    1  -0.170796467931430E+00   0.130468755583367E+00   0.135286E-01   0.000000E+00   0.155588E+03   0.964254E-17
   LPB:    2  -0.170458407478492E+00   0.709339843053877E-01   0.148191E-01   0.760363E-01   0.115319E+03  -0.821120E-16
   LPB:    3  -0.170361755427482E+00   0.440592959272529E-01   0.184448E-01   0.229701E+00   0.127035E+03  -0.328258E-15
   LPB:    4  -0.170316684030989E+00   0.409456181076768E-01   0.221811E-01   0.387776E+00   0.243935E+03  -0.492114E-15
   LPB:    5  -0.170288013046308E+00   0.185668843526283E-01   0.227340E-01   0.620653E+00   0.551928E+02  -0.651860E-15
  Finished solving LPB equations
  A_corr:   -8.959340498038408E-002
 End minimization
 Ecorr=   1988.24657079737     
 A_corr= -8.959340498038408E-002
 Ecorr_band=  -1988.33616420235     
 End Solvation calculations
RMM:  23    -0.181256799471E+03    0.14443E-02   -0.10570E-03 10948   0.609E-02    0.245E-01
 Begin Solvation calculations
  rms_SCF =   0.213720709593148      tol =   2.137207095931483E-002
 Begin minimization
 Creating dielectric and ionic cavities
  area:      153.846715910227     
  volume:    777.214765332555     
  Acav:     8.076952585286921E-002
  Solving linear dielectric/ionic screening model
        iter                  A_solv                     rms
   LPB:       -0.172941941925976E+00   0.607619285354346E+00
   LPB:    0  -0.172469444315991E+00   0.507060247328621E+00   0.533858E-02   0.000000E+00   0.331572E+02   0.177012E+00
   LPB:    1  -0.169562997357246E+00   0.114978645141940E+00   0.133790E-01   0.000000E+00   0.122481E+03  -0.103816E-16
   LPB:    2  -0.169331375982341E+00   0.666050069331823E-01   0.136333E-01   0.782058E-01   0.140161E+03   0.328207E-15
   LPB:    3  -0.169256591807819E+00   0.340584156688480E-01   0.186054E-01   0.236589E+00   0.111638E+03  -0.858388E-16
   LPB:    4  -0.169213880215995E+00   0.373904847782402E-01   0.260767E-01   0.407494E+00   0.291345E+03  -0.221755E-15
   LPB:    5  -0.169183468527536E+00   0.205872878371743E-01   0.254223E-01   0.730355E+00   0.457431E+02  -0.294963E-15
  Finished solving LPB equations
  A_corr:   -8.841394267466725E-002
 End minimization
 Ecorr=   1988.55092154429     
 A_corr= -8.841394267466725E-002
 Ecorr_band=  -1988.63933548696     
 End Solvation calculations
RMM:  24    -0.181256520801E+03    0.27867E-03   -0.59724E-04  9169   0.437E-02    0.230E-01
 Begin Solvation calculations
  rms_SCF =   0.213720709593148      tol =   2.137207095931483E-002
 Begin minimization
 Creating dielectric and ionic cavities
  area:      153.927104633589     
  volume:    776.940691275496     
  Acav:     8.081172993263419E-002
  Solving linear dielectric/ionic screening model
        iter                  A_solv                     rms
   LPB:       -0.170074070024739E+00   0.432155177621024E+00
   LPB:    0  -0.169870375318503E+00   0.370385508591604E+00   0.350455E-02   0.000000E+00   0.331700E+02   0.116246E+00
   LPB:    1  -0.168661571152490E+00   0.835401508248850E-01   0.130214E-01   0.000000E+00   0.101416E+03  -0.105843E-17
   LPB:    2  -0.168563930526144E+00   0.404455841772019E-01   0.123692E-01   0.850338E-01   0.165446E+03   0.228520E-15
   LPB:    3  -0.168532447552788E+00   0.185140009203592E-01   0.199846E-01   0.199568E+00   0.110031E+03   0.154876E-15
   LPB:    4  -0.168508770188658E+00   0.277681028939207E-01   0.330782E-01   0.454371E+00   0.242103E+03   0.159510E-15
   LPB:    5  -0.168487486027138E+00   0.192354327010698E-01   0.286442E-01   0.103807E+01   0.378246E+02   0.159481E-15
  Finished solving LPB equations
  A_corr:   -8.767575609450393E-002
 End minimization
 Ecorr=   1988.85745010733     
 A_corr= -8.767575609450393E-002
 Ecorr_band=  -1988.94512586343     
 End Solvation calculations
RMM:  25    -0.181256378527E+03    0.14227E-03   -0.18409E-04  6429   0.264E-02    0.171E-01
 Begin Solvation calculations
  rms_SCF =   0.213720709593148      tol =   2.137207095931483E-002
 Begin minimization
 Creating dielectric and ionic cavities
  area:      154.001790888716     
  volume:    776.694733111258     
  Acav:     8.085094021657581E-002
  Solving linear dielectric/ionic screening model
        iter                  A_solv                     rms
   LPB:       -0.170101634001166E+00   0.538888728232246E+00
   LPB:    0  -0.169907900559107E+00   0.486705302079382E+00   0.341719E-02   0.000000E+00   0.331816E+02   0.113388E+00
   LPB:    1  -0.167922323647849E+00   0.103452194086204E+00   0.129404E-01   0.000000E+00   0.974734E+02   0.208298E-17
   LPB:    2  -0.167771940403796E+00   0.500458174409893E-01   0.120539E-01   0.813079E-01   0.187387E+03   0.392320E-16
   LPB:    3  -0.167731457387201E+00   0.166934689228074E-01   0.180843E-01   0.179432E+00   0.115823E+03   0.158733E-15
   LPB:    4  -0.167711478560869E+00   0.242315855937870E-01   0.287556E-01   0.310368E+00   0.304724E+03   0.138465E-15
   LPB:    5  -0.167695796534121E+00   0.169955309926944E-01   0.284930E-01   0.792168E+00   0.401247E+02   0.113871E-15
  Finished solving LPB equations
  A_corr:   -8.684485631754567E-002
 End minimization
 Ecorr=   1989.26521845462     
 A_corr= -8.684485631754567E-002
 Ecorr_band=  -1989.35206331094     
 End Solvation calculations
RMM:  26    -0.181256551185E+03   -0.17266E-03   -0.15004E-04  6325   0.219E-02    0.151E-01
 Begin Solvation calculations
  rms_SCF =   0.181203497790655      tol =   1.812034977906549E-002
 Begin minimization
 Creating dielectric and ionic cavities
  area:      154.066131190097     
  volume:    776.504489640156     
  Acav:     8.088471887480107E-002
  Solving linear dielectric/ionic screening model
        iter                  A_solv                     rms
   LPB:       -0.169426224026808E+00   0.539832750142866E+00
   LPB:    0  -0.169263179536824E+00   0.491506986325450E+00   0.313445E-02   0.000000E+00   0.331905E+02   0.104034E+00
   LPB:    1  -0.167211096351541E+00   0.996867707196799E-01   0.130166E-01   0.000000E+00   0.970683E+02   0.715037E-17
   LPB:    2  -0.167062599914224E+00   0.527673174856465E-01   0.122307E-01   0.770136E-01   0.192196E+03   0.315922E-15
   LPB:    3  -0.167019728646265E+00   0.174674275279738E-01   0.181251E-01   0.194814E+00   0.110173E+03   0.131678E-15
   LPB:    4  -0.166997430631645E+00   0.246150627667930E-01   0.294969E-01   0.319599E+00   0.289037E+03  -0.264119E-16
   LPB:    5  -0.166981109643536E+00   0.176684543270817E-01   0.277101E-01   0.779145E+00   0.400409E+02  -0.113162E-15
  Finished solving LPB equations
  A_corr:   -8.609639076873461E-002
 End minimization
 Ecorr=   1989.88359826931     
 A_corr= -8.609639076873461E-002
 Ecorr_band=  -1989.96969466008     
 End Solvation calculations
RMM:  27    -0.181256995360E+03   -0.44418E-03   -0.12177E-04  6269   0.210E-02    0.158E-01
 Begin Solvation calculations
  rms_SCF =   0.181203497790655      tol =   1.812034977906549E-002
 Begin minimization
 Creating dielectric and ionic cavities
  area:      154.136080508558     
  volume:    776.336975251035     
  Acav:     8.092144226699273E-002
  Solving linear dielectric/ionic screening model
        iter                  A_solv                     rms
   LPB:       -0.169971625078470E+00   0.717249847211243E+00
   LPB:    0  -0.169742268072343E+00   0.663608361526837E+00   0.371717E-02   0.000000E+00   0.331983E+02   0.123404E+00
   LPB:    1  -0.166640549443701E+00   0.137471919313217E+00   0.126505E-01   0.000000E+00   0.855767E+02  -0.705054E-17
   LPB:    2  -0.166394710479077E+00   0.589426468014604E-01   0.116160E-01   0.863178E-01   0.212868E+03  -0.479629E-15
   LPB:    3  -0.166330729527974E+00   0.164223861774506E-01   0.187172E-01   0.161515E+00   0.122986E+03  -0.478547E-15
   LPB:    4  -0.166302102271096E+00   0.249380564944766E-01   0.297599E-01   0.281410E+00   0.296547E+03  -0.440569E-15
   LPB:    5  -0.166283186083200E+00   0.196568141823945E-01   0.278208E-01   0.706832E+00   0.423902E+02  -0.375340E-15
   LPB:    6  -0.166267573851009E+00   0.962319378724072E-02   0.302330E-01   0.759486E+00   0.206308E+03  -0.292151E-15
  Finished solving LPB equations
  A_corr:   -8.534613158401581E-002
 End minimization
 Ecorr=   1990.57136745263     
 A_corr= -8.534613158401581E-002
 Ecorr_band=  -1990.65671358421     
 End Solvation calculations
RMM:  28    -0.181257521194E+03   -0.52583E-03   -0.13916E-04  6377   0.205E-02    0.128E-01
 Begin Solvation calculations
  rms_SCF =   0.181203497790655      tol =   1.812034977906549E-002
 Begin minimization
 Creating dielectric and ionic cavities
  area:      154.226129649113     
  volume:    776.161077274802     
  Acav:     8.096871806578444E-002
  Solving linear dielectric/ionic screening model
        iter                  A_solv                     rms
   LPB:       -0.173693338754845E+00   0.113344414205482E+01
   LPB:    0  -0.173247120222391E+00   0.105640037123643E+01   0.518414E-02   0.000000E+00   0.332066E+02   0.172148E+00
   LPB:    1  -0.166328397888988E+00   0.216027918431384E+00   0.123698E-01   0.000000E+00   0.783736E+02   0.109652E-16
   LPB:    2  -0.165735813117597E+00   0.824107565551181E-01   0.114428E-01   0.925883E-01   0.235490E+03   0.206541E-14
   LPB:    3  -0.165597371642996E+00   0.179694996343948E-01   0.184815E-01   0.144647E+00   0.139380E+03   0.240395E-14
   LPB:    4  -0.165553361311644E+00   0.236272118795176E-01   0.279010E-01   0.210575E+00   0.362387E+03   0.228705E-14
   LPB:    5  -0.165529836972595E+00   0.219313799033893E-01   0.287337E-01   0.519029E+00   0.517446E+02   0.229394E-14
   LPB:    6  -0.165512439088478E+00   0.142277160605442E-01   0.281652E-01   0.754496E+00   0.190368E+03   0.262843E-14
  Finished solving LPB equations
  A_corr:   -8.454372102269307E-002
 End minimization
 Ecorr=   1991.48518383099     
 A_corr= -8.454372102269307E-002
 Ecorr_band=  -1991.56972755201     
 End Solvation calculations
RMM:  29    -0.181258273438E+03   -0.75224E-03   -0.28309E-04  7311   0.240E-02    0.122E-01
 Begin Solvation calculations
  rms_SCF =   7.892285103477178E-002 tol =   7.892285103477179E-003
 Begin minimization
 Creating dielectric and ionic cavities
  area:      154.232528027019     
  volume:    776.192255503884     
  Acav:     8.097207721418495E-002
  Solving linear dielectric/ionic screening model
        iter                  A_solv                     rms
   LPB:       -0.165676949321903E+00   0.209318665827382E+00
   LPB:    0  -0.165671193181800E+00   0.199389287448171E+00   0.588814E-03   0.000000E+00   0.332051E+02   0.195516E-01
   LPB:    1  -0.165430409081411E+00   0.373446263868197E-01   0.124131E-01   0.000000E+00   0.738760E+02  -0.174847E-17
   LPB:    2  -0.165410674942493E+00   0.177223468595084E-01   0.118848E-01   0.856011E-01   0.267151E+03  -0.619981E-16
   LPB:    3  -0.165403683496477E+00   0.752704639524205E-02   0.215827E-01   0.195090E+00   0.111148E+03  -0.662695E-16
   LPB:    4  -0.165392787128093E+00   0.649203841018293E-02   0.694415E-01   0.484396E+00   0.714759E+02  -0.619965E-16
  Finished solving LPB equations
  A_corr:   -8.442070991390832E-002
 End minimization
 Ecorr=   1991.97908792738     
 A_corr= -8.442070991390832E-002
 Ecorr_band=  -1992.06350863729     
 End Solvation calculations
RMM:  30    -0.181258360493E+03   -0.87054E-04   -0.54674E-05  6253   0.129E-02
 Begin Solvation calculations
  rms_SCF =   7.892285103477178E-002 tol =   7.892285103477179E-003
 Begin minimization
 Creating dielectric and ionic cavities
  area:      154.250231737901     
  volume:    776.266607039695     
  Acav:     8.098137166239787E-002
  Solving linear dielectric/ionic screening model
        iter                  A_solv                     rms
   LPB:       -0.167355345980631E+00   0.627606320426507E+00
   LPB:    0  -0.167306630619021E+00   0.606612304868190E+00   0.171304E-02   0.000000E+00   0.332016E+02   0.568758E-01
   LPB:    1  -0.165419987165538E+00   0.113645460260508E+00   0.118679E-01   0.000000E+00   0.708003E+02   0.938844E-18
   LPB:    2  -0.165263432141026E+00   0.361615096069838E-01   0.109433E-01   0.899918E-01   0.266220E+03   0.228775E-15
   LPB:    3  -0.165233160075438E+00   0.864535063615825E-02   0.196700E-01   0.107577E+00   0.125571E+03   0.268137E-15
   LPB:    4  -0.165220645907491E+00   0.589498076833727E-02   0.330718E-01   0.245870E+00   0.182391E+03   0.273954E-15
  Finished solving LPB equations
  A_corr:   -8.423927424509269E-002
 End minimization
 Ecorr=   1992.46547100184     
 A_corr= -8.423927424509269E-002
 Ecorr_band=  -1992.54971027609     
 End Solvation calculations
   1 F= -.18125836E+03 E0= -.18125354E+03  d E =-.181258E+03
quench:  g(F)=  0.000E+00 g(S)=  0.000E+00 dE (1.order)= 0.000E+00
 bond charge predicted
       N       E                     dE             d eps       ncg     rms          rms(c)
 Begin Solvation calculations
  rms_SCF =   7.892285103477178E-002 tol =   7.892285103477179E-003
 Begin minimization
 Creating dielectric and ionic cavities
  area:      154.278393830915     
  volume:    776.282174177185     
  Acav:     8.099615676123012E-002
  Solving linear dielectric/ionic screening model
        iter                  A_solv                     rms
   LPB:       -0.166470901589050E+00   0.658234328500908E-02
   LPB:    0  -0.166470901558359E+00   0.654755731626276E-02   0.135970E-05   0.000000E+00   0.332009E+02   0.451431E-04
   LPB:    1  -0.165452489157919E+00   0.320508308225949E-02   0.161489E-01   0.000000E+00   0.157733E+06  -0.167967E-20
   LPB:    2  -0.165316630965755E+00   0.505946497670247E-02   0.285392E-01   0.754852E-01   0.209899E+05  -0.705971E-17
   LPB:    3  -0.165267112948384E+00   0.617850868561726E-02   0.338327E-01   0.307455E+00   0.241293E+04  -0.213106E-16
   LPB:    4  -0.165244521827801E+00   0.199039619552085E-01   0.342490E-01   0.450675E+00   0.101141E+04  -0.375560E-16
   LPB:    5  -0.165234680949416E+00   0.220280108779018E-01   0.214582E-01   0.695267E+00   0.123253E+03  -0.467136E-16
   LPB:    6  -0.165225687139047E+00   0.868525502100574E-02   0.235332E-01   0.833338E+00   0.325442E+03  -0.581245E-16
   LPB:    7  -0.165218793369456E+00   0.791294994999281E-02   0.352559E-01   0.511637E+00   0.284043E+03  -0.672572E-16
   LPB:    8  -0.165214512156892E+00   0.891001786520773E-02   0.289353E-01   0.756683E+00   0.114955E+03  -0.630870E-16
   LPB:    9  -0.165211190567957E+00   0.600872716207352E-02   0.278087E-01   0.807285E+00   0.274905E+03  -0.754792E-16
  Finished solving LPB equations
  A_corr:   -8.421503380672732E-002
 End minimization
 Ecorr=   1992.91599365858     
 A_corr= -8.421503380672732E-002
 Ecorr_band=  -1993.00020869238     
 End Solvation calculations
DAV:   1    -0.181259252588E+03   -0.97915E-03   -0.85531E-02 11526   0.430E-01    0.129E-01
 Begin Solvation calculations
  rms_SCF =   7.892285103477178E-002 tol =   7.892285103477179E-003
 Begin minimization
 Creating dielectric and ionic cavities
  area:      154.221630800924     
  volume:    776.264470514610     
  Acav:     8.096635617048513E-002
  Solving linear dielectric/ionic screening model
        iter                  A_solv                     rms
   LPB:       -0.167911611086402E+00   0.727995493908665E+00
   LPB:    0  -0.167840740783763E+00   0.711244075579770E+00  -0.206617E-02   0.000000E+00   0.332017E+02  -0.686005E-01
   LPB:    1  -0.166301146005650E+00   0.984348061827386E-01   0.952146E-02   0.000000E+00   0.669230E+02   0.271459E-19
   LPB:    2  -0.166063231976146E+00   0.192241033582683E-01   0.150889E-01   0.975125E-01   0.166350E+03   0.544301E-16
   LPB:    3  -0.166032161935633E+00   0.707881530794576E-02   0.212313E-01   0.928115E-01   0.204709E+03   0.460590E-16
   LPB:    4  -0.166021453052418E+00   0.319325528301790E-02   0.278539E-01   0.262720E+00   0.460501E+03   0.110579E-15
  Finished solving LPB equations
  A_corr:   -8.505509688193251E-002
 End minimization
 Ecorr=   1992.96989655805     
 A_corr= -8.505509688193251E-002
 Ecorr_band=  -1993.05495165493     
 End Solvation calculations
RMM:   2    -0.181265023625E+03   -0.57710E-02   -0.52958E-03 11124   0.122E-01    0.868E-01
 Begin Solvation calculations
  rms_SCF =   7.892285103477178E-002 tol =   7.892285103477179E-003
 Begin minimization
 Creating dielectric and ionic cavities
  area:      154.236569738953     
  volume:    776.271654309641     
  Acav:     8.097419911295049E-002
  Solving linear dielectric/ionic screening model
        iter                  A_solv                     rms
   LPB:       -0.167194409740304E+00   0.707907068877305E+00
   LPB:    0  -0.167193215415400E+00   0.707323216746452E+00   0.268224E-03   0.000000E+00   0.332014E+02   0.890542E-02
   LPB:    1  -0.165886617671689E+00   0.665311616338770E-01   0.854042E-02   0.000000E+00   0.715428E+02   0.290658E-18
   LPB:    2  -0.165774076543527E+00   0.109052786009064E-01   0.159626E-01   0.460835E-01   0.130660E+03  -0.415896E-16
   LPB:    3  -0.165761719379629E+00   0.351614137904134E-02   0.206010E-01   0.850791E-01   0.265614E+03  -0.368733E-16
   LPB:    4  -0.165758771423717E+00   0.177329693298032E-02   0.266597E-01   0.184347E+00   0.852131E+03  -0.807119E-16
  Finished solving LPB equations
  A_corr:   -8.478457231076601E-002
 End minimization
 Ecorr=   1993.15893991924     
 A_corr= -8.478457231076601E-002
 Ecorr_band=  -1993.24372449155     
 End Solvation calculations
RMM:   3    -0.181260538502E+03    0.44851E-02   -0.10802E-03 10809   0.599E-02    0.370E-01
 Begin Solvation calculations
  rms_SCF =   7.892285103477178E-002 tol =   7.892285103477179E-003
 Begin minimization
 Creating dielectric and ionic cavities
  area:      154.240600401965     
  volume:    776.286302953102     
  Acav:     8.097631521103152E-002
  Solving linear dielectric/ionic screening model
        iter                  A_solv                     rms
   LPB:       -0.165909888870929E+00   0.143610045968492E+00
   LPB:    0  -0.165908240316099E+00   0.142140390852574E+00  -0.315132E-03   0.000000E+00   0.332007E+02  -0.104626E-01
   LPB:    1  -0.165850150115012E+00   0.165217607636083E-01   0.921422E-02   0.000000E+00   0.676898E+02   0.737783E-18
   LPB:    2  -0.165843317669167E+00   0.366433058524430E-02   0.145324E-01   0.745753E-01   0.173620E+03  -0.217949E-17
   LPB:    3  -0.165842147771742E+00   0.166171743655571E-02   0.229218E-01   0.108558E+00   0.188764E+03   0.175991E-17
   LPB:    4  -0.165841195794410E+00   0.161400982179750E-02   0.490149E-01   0.380538E+00   0.433946E+03   0.742743E-17
  Finished solving LPB equations
  A_corr:   -8.486488058337846E-002
 End minimization
 Ecorr=   1993.21094091331     
 A_corr= -8.486488058337846E-002
 Ecorr_band=  -1993.29580579389     
 End Solvation calculations
RMM:   4    -0.181259707826E+03    0.83068E-03   -0.44041E-04  8456   0.417E-02    0.157E-01
 Begin Solvation calculations
  rms_SCF =   7.892285103477178E-002 tol =   7.892285103477179E-003
 Begin minimization
 Creating dielectric and ionic cavities
  area:      154.238153903389     
  volume:    776.339427003274     
  Acav:     8.097503079927898E-002
  Solving linear dielectric/ionic screening model
        iter                  A_solv                     rms
   LPB:       -0.165991859041450E+00   0.121790951931062E+00
   LPB:    0  -0.165988217552746E+00   0.115729395922169E+00   0.468379E-03   0.000000E+00   0.331982E+02   0.155493E-01
   LPB:    1  -0.165938624388259E+00   0.189607938382672E-01   0.104813E-01   0.000000E+00   0.664026E+02   0.108092E-19
   LPB:    2  -0.165932502949239E+00   0.591586363176420E-02   0.125657E-01   0.102958E+00   0.243843E+03  -0.419405E-16
   LPB:    3  -0.165931513605785E+00   0.337538656799560E-02   0.209394E-01   0.969877E-01   0.809274E+02  -0.519559E-16
   LPB:    4  -0.165930783485317E+00   0.347917828253154E-02   0.359803E-01   0.429485E+00   0.165342E+03  -0.660250E-16
  Finished solving LPB equations
  A_corr:   -8.495575268603758E-002
 End minimization
 Ecorr=   1993.08703947205     
 A_corr= -8.495575268603758E-002
 Ecorr_band=  -1993.17199522474     
 End Solvation calculations
RMM:   5    -0.181259631062E+03    0.76763E-04   -0.16982E-04  6304   0.264E-02
 Begin Solvation calculations
  rms_SCF =   7.892285103477178E-002 tol =   7.892285103477179E-003
 Begin minimization
 Creating dielectric and ionic cavities
  area:      154.241295292481     
  volume:    776.344537311885     
  Acav:     8.097668002855264E-002
  Solving linear dielectric/ionic screening model
        iter                  A_solv                     rms
   LPB:       -0.166268936072871E+00   0.131498754657316E+00
   LPB:    0  -0.166251311643242E+00   0.107070267435858E+00  -0.103043E-02   0.000000E+00   0.331980E+02  -0.342081E-01
   LPB:    1  -0.166190540195841E+00   0.264926368499618E-01   0.122819E-01   0.000000E+00   0.680821E+02   0.293511E-17
   LPB:    2  -0.166181940916378E+00   0.653175440794483E-02   0.121603E-01   0.142916E+00   0.230307E+03   0.165182E-16
   LPB:    3  -0.166180058190480E+00   0.245789713628052E-02   0.212657E-01   0.125196E+00   0.179014E+03   0.385919E-16
   LPB:    4  -0.166178936804576E+00   0.315869067174763E-02   0.326883E-01   0.387485E+00   0.200903E+03   0.330397E-16
  Finished solving LPB equations
  A_corr:   -8.520225677602299E-002
 End minimization
 Ecorr=   1993.18722385246     
 A_corr= -8.520225677602299E-002
 Ecorr_band=  -1993.27242610923     
 End Solvation calculations
   2 F= -.18125963E+03 E0= -.18125482E+03  d E =-.127057E-02
quench:  g(F)=  0.000E+00 g(S)=  0.000E+00 dE (1.order)= 0.000E+00
 bond charge predicted
       N       E                     dE             d eps       ncg     rms          rms(c)
 Begin Solvation calculations
  rms_SCF =   7.892285103477178E-002 tol =   7.892285103477179E-003
 Begin minimization
 Creating dielectric and ionic cavities
  area:      154.237003304601     
  volume:    776.349442212101     
  Acav:     8.097442673491534E-002
  Solving linear dielectric/ionic screening model
        iter                  A_solv                     rms
   LPB:       -0.166609848037844E+00   0.357600583628307E-02
   LPB:    0  -0.166609848035669E+00   0.356381063784978E-02   0.361991E-06   0.000000E+00   0.331977E+02   0.120173E-04
   LPB:    1  -0.166227931796343E+00   0.206458100304005E-02   0.155301E-01   0.000000E+00   0.193368E+06   0.742860E-21
   LPB:    2  -0.166191471942165E+00   0.342788695437514E-02   0.268764E-01   0.551633E-01   0.194024E+05  -0.610031E-17
   LPB:    3  -0.166179551955350E+00   0.660554361790565E-02   0.323495E-01   0.271621E+00   0.178657E+04   0.944958E-17
   LPB:    4  -0.166174615103033E+00   0.107328322171478E-01   0.292735E-01   0.457685E+00   0.277118E+03  -0.117598E-16
   LPB:    5  -0.166171937716194E+00   0.669218282367153E-02   0.220179E-01   0.721043E+00   0.162975E+03   0.161838E-16
  Finished solving LPB equations
  A_corr:   -8.519751098127903E-002
 End minimization
 Ecorr=   1993.21764813433     
 A_corr= -8.519751098127903E-002
 Ecorr_band=  -1993.30284564532     
 End Solvation calculations
DAV:   1    -0.181259921197E+03   -0.21337E-03   -0.21778E-02 11424   0.252E-01    0.151E-01
 Begin Solvation calculations
  rms_SCF =   7.892285103477178E-002 tol =   7.892285103477179E-003
 Begin minimization
 Creating dielectric and ionic cavities
  area:      154.210537520430     
  volume:    776.417342227574     
  Acav:     8.096053219822569E-002
  Solving linear dielectric/ionic screening model
        iter                  A_solv                     rms
   LPB:       -0.169965202493044E+00   0.101381760675713E+01
   LPB:    0  -0.169963509100103E+00   0.101393939678441E+01   0.319419E-03   0.000000E+00   0.331946E+02   0.106030E-01
   LPB:    1  -0.167183186201242E+00   0.110320477791064E+00   0.886642E-02   0.000000E+00   0.687872E+02   0.537246E-18
   LPB:    2  -0.166881914899973E+00   0.241850906672065E-01   0.153571E-01   0.625605E-01   0.140460E+03   0.451890E-16
   LPB:    3  -0.166847658944636E+00   0.929574729414808E-02   0.204617E-01   0.853390E-01   0.146107E+03   0.742343E-16
   LPB:    4  -0.166837616660574E+00   0.726451099948433E-02   0.268445E-01   0.223451E+00   0.323008E+03   0.129213E-15
  Finished solving LPB equations
  A_corr:   -8.587708446234849E-002
 End minimization
 Ecorr=   1992.61115862410     
 A_corr= -8.587708446234849E-002
 Ecorr_band=  -1992.69703570857     
 End Solvation calculations
RMM:   2    -0.181279596822E+03   -0.19676E-01   -0.54091E-03 11100   0.138E-01    0.169E+00
 Begin Solvation calculations
  rms_SCF =   7.892285103477178E-002 tol =   7.892285103477179E-003
 Begin minimization
 Creating dielectric and ionic cavities
  area:      154.247330585049     
  volume:    776.400580218226     
  Acav:     8.097984855715079E-002
  Solving linear dielectric/ionic screening model
        iter                  A_solv                     rms
   LPB:       -0.170047453455651E+00   0.112914466766403E+01
   LPB:    0  -0.170046899446759E+00   0.112920377923847E+01  -0.182698E-03   0.000000E+00   0.331953E+02  -0.606474E-02
   LPB:    1  -0.166716551565811E+00   0.105891606989126E+00   0.854396E-02   0.000000E+00   0.715439E+02  -0.239888E-18
   LPB:    2  -0.166438884529696E+00   0.190525562884820E-01   0.156778E-01   0.454369E-01   0.133166E+03   0.143848E-16
   LPB:    3  -0.166410914546330E+00   0.704505946339167E-02   0.200441E-01   0.787893E-01   0.206905E+03  -0.237395E-16
   LPB:    4  -0.166405285599042E+00   0.456427443421882E-02   0.239153E-01   0.168673E+00   0.427511E+03   0.551453E-16
  Finished solving LPB equations
  A_corr:   -8.542543704189118E-002
 End minimization
 Ecorr=   1992.97465644186     
 A_corr= -8.542543704189118E-002
 Ecorr_band=  -1993.06008187890     
 End Solvation calculations
RMM:   3    -0.181261618955E+03    0.17978E-01   -0.27048E-03 10963   0.953E-02    0.394E-01
 Begin Solvation calculations
  rms_SCF =   7.892285103477178E-002 tol =   7.892285103477179E-003
 Begin minimization
 Creating dielectric and ionic cavities
  area:      154.241916269196     
  volume:    776.369558460456     
  Acav:     8.097700604132765E-002
  Solving linear dielectric/ionic screening model
        iter                  A_solv                     rms
   LPB:       -0.166696342404537E+00   0.217941991476887E+00
   LPB:    0  -0.166669355714331E+00   0.196920727539869E+00  -0.127509E-02   0.000000E+00   0.331968E+02  -0.423290E-01
   LPB:    1  -0.166563332845217E+00   0.218434838464446E-01   0.891908E-02   0.000000E+00   0.676227E+02   0.263142E-17
   LPB:    2  -0.166550740203768E+00   0.351361127972987E-02   0.157712E-01   0.671696E-01   0.133261E+03   0.414166E-17
   LPB:    3  -0.166549404101460E+00   0.208519900807543E-02   0.190711E-01   0.877431E-01   0.458946E+03  -0.322785E-16
   LPB:    4  -0.166548929453993E+00   0.299635653487465E-02   0.296772E-01   0.228288E+00   0.182034E+03  -0.331540E-16
  Finished solving LPB equations
  A_corr:   -8.557192341266559E-002
 End minimization
 Ecorr=   1993.18398930820     
 A_corr= -8.557192341266559E-002
 Ecorr_band=  -1993.26956123161     
 End Solvation calculations
RMM:   4    -0.181260019560E+03    0.15994E-02   -0.56131E-04  9272   0.472E-02    0.102E-01
 Begin Solvation calculations
  rms_SCF =   7.892285103477178E-002 tol =   7.892285103477179E-003
 Begin minimization
 Creating dielectric and ionic cavities
  area:      154.239942564759     
  volume:    776.402796795885     
  Acav:     8.097596984649869E-002
  Solving linear dielectric/ionic screening model
        iter                  A_solv                     rms
   LPB:       -0.166639775137159E+00   0.867669966784776E-01
   LPB:    0  -0.166637616406132E+00   0.817901023455447E-01   0.360642E-03   0.000000E+00   0.331952E+02   0.119716E-01
   LPB:    1  -0.166614566953832E+00   0.124906580613725E-01   0.101443E-01   0.000000E+00   0.659345E+02   0.203166E-18
   LPB:    2  -0.166611615888455E+00   0.448229274568394E-02   0.132924E-01   0.977096E-01   0.207078E+03  -0.716781E-16
   LPB:    3  -0.166611054396986E+00   0.294357918681531E-02   0.217950E-01   0.116041E+00   0.674950E+02  -0.845752E-16
   LPB:    4  -0.166610590856667E+00   0.277512681122948E-02   0.352082E-01   0.511044E+00   0.204759E+03  -0.906136E-16
  Finished solving LPB equations
  A_corr:   -8.563462101016794E-002
 End minimization
 Ecorr=   1993.06408589500     
 A_corr= -8.563462101016794E-002
 Ecorr_band=  -1993.14972051601     
 End Solvation calculations
RMM:   5    -0.181260002043E+03    0.17517E-04   -0.91495E-05  5937   0.189E-02
 Begin Solvation calculations
  rms_SCF =   7.892285103477178E-002 tol =   7.892285103477179E-003
 Begin minimization
 Creating dielectric and ionic cavities
  area:      154.246647677022     
  volume:    776.418082633519     
  Acav:     8.097949003043661E-002
  Solving linear dielectric/ionic screening model
        iter                  A_solv                     rms
   LPB:       -0.166721769777540E+00   0.435022183302800E-01
   LPB:    0  -0.166720685970542E+00   0.388310435386194E-01  -0.255539E-03   0.000000E+00   0.331945E+02  -0.848251E-02
   LPB:    1  -0.166709841700627E+00   0.903086049660411E-02   0.132871E-01   0.000000E+00   0.798910E+02   0.211062E-18
   LPB:    2  -0.166708856942281E+00   0.397271971698995E-02   0.122494E-01   0.985021E-01   0.193789E+03   0.359545E-17
   LPB:    3  -0.166708490209440E+00   0.157333578387067E-02   0.215747E-01   0.211441E+00   0.965206E+02   0.686190E-17
   LPB:    4  -0.166707972639048E+00   0.989257420063508E-03   0.529461E-01   0.575083E+00   0.150885E+03   0.103759E-16
  Finished solving LPB equations
  A_corr:   -8.572848260861127E-002
 End minimization
 Ecorr=   1993.03280850120     
 A_corr= -8.572848260861127E-002
 Ecorr_band=  -1993.11853698381     
 End Solvation calculations
   3 F= -.18126000E+03 E0= -.18125512E+03  d E =-.370981E-03
quench:  g(F)=  0.000E+00 g(S)=  0.000E+00 dE (1.order)= 0.000E+00
 bond charge predicted
       N       E                     dE             d eps       ncg     rms          rms(c)
 Begin Solvation calculations
  rms_SCF =   7.892285103477178E-002 tol =   7.892285103477179E-003
 Begin minimization
 Creating dielectric and ionic cavities
  area:      154.255335898119     
  volume:    776.429450675460     
  Acav:     8.098405134651256E-002
  Solving linear dielectric/ionic screening model
        iter                  A_solv                     rms
   LPB:       -0.167232461113802E+00   0.230698981515944E-02
   LPB:    0  -0.167232461091844E+00   0.231204001306370E-02   0.115023E-05   0.000000E+00   0.331940E+02   0.381806E-04
   LPB:    1  -0.166774430427403E+00   0.778335711694764E-03   0.154605E-01   0.000000E+00   0.706759E+06  -0.243500E-20
   LPB:    2  -0.166729974186218E+00   0.627456144368236E-03   0.270338E-01   0.555078E-01   0.179131E+06  -0.600587E-18
   LPB:    3  -0.166715462895671E+00   0.124367601405247E-02   0.329692E-01   0.267653E+00   0.732395E+05  -0.463684E-18
   LPB:    4  -0.166708888730703E+00   0.423197212236872E-02   0.362500E-01   0.412035E+00   0.797186E+04  -0.631253E-18
  Finished solving LPB equations
  A_corr:   -8.572483738419058E-002
 End minimization
 Ecorr=   1993.03581542204     
 A_corr= -8.572483738419058E-002
 Ecorr_band=  -1993.12154025943     
 End Solvation calculations
DAV:   1    -0.181260161596E+03   -0.14204E-03   -0.27674E-02 11364   0.295E-01    0.972E-02
 Begin Solvation calculations
  rms_SCF =   7.892285103477178E-002 tol =   7.892285103477179E-003
 Begin minimization
 Creating dielectric and ionic cavities
  area:      154.240429950193     
  volume:    776.381047929763     
  Acav:     8.097622572385141E-002
  Solving linear dielectric/ionic screening model
        iter                  A_solv                     rms
   LPB:       -0.169513385890642E+00   0.792833016408121E+00
   LPB:    0  -0.169415369485112E+00   0.767733527182052E+00  -0.243008E-02   0.000000E+00   0.331963E+02  -0.806694E-01
   LPB:    1  -0.167779677048595E+00   0.923248629680360E-01   0.901243E-02   0.000000E+00   0.677408E+02  -0.234981E-17
   LPB:    2  -0.167563588608417E+00   0.150618761847274E-01   0.159683E-01   0.745614E-01   0.129053E+03   0.185257E-15
   LPB:    3  -0.167538352206570E+00   0.637412838301213E-02   0.212911E-01   0.875902E-01   0.271669E+03   0.224549E-15
   LPB:    4  -0.167529889195670E+00   0.565408568593236E-02   0.273754E-01   0.260817E+00   0.282924E+03   0.163860E-15
  Finished solving LPB equations
  A_corr:   -8.655366347181864E-002
 End minimization
 Ecorr=   1992.96425228323     
 A_corr= -8.655366347181864E-002
 Ecorr_band=  -1993.05080594670     
 End Solvation calculations
RMM:   2    -0.181269413609E+03   -0.92520E-02   -0.22632E-03 11091   0.861E-02    0.114E+00
 Begin Solvation calculations
  rms_SCF =   7.892285103477178E-002 tol =   7.892285103477179E-003
 Begin minimization
 Creating dielectric and ionic cavities
  area:      154.261250413189     
  volume:    776.395832277130     
  Acav:     8.098715646692398E-002
  Solving linear dielectric/ionic screening model
        iter                  A_solv                     rms
   LPB:       -0.168970564384478E+00   0.791411422749507E+00
   LPB:    0  -0.168964035007678E+00   0.789245258356367E+00   0.627207E-03   0.000000E+00   0.331956E+02   0.208205E-01
   LPB:    1  -0.167336762371595E+00   0.750008528158679E-01   0.855508E-02   0.000000E+00   0.712653E+02  -0.163067E-18
   LPB:    2  -0.167196485494386E+00   0.114886039635209E-01   0.158344E-01   0.465746E-01   0.130136E+03  -0.230314E-16
   LPB:    3  -0.167181698551167E+00   0.343373672702724E-02   0.203675E-01   0.819513E-01   0.291118E+03  -0.145988E-16
   LPB:    4  -0.167178415490835E+00   0.208936061040554E-02   0.258284E-01   0.175082E+00   0.719258E+03   0.174452E-16
  Finished solving LPB equations
  A_corr:   -8.619125902391139E-002
 End minimization
 Ecorr=   1993.10451650417     
 A_corr= -8.619125902391139E-002
 Ecorr_band=  -1993.19070776320     
 End Solvation calculations
RMM:   3    -0.181260577736E+03    0.88359E-02   -0.11888E-03 10747   0.627E-02    0.189E-01
 Begin Solvation calculations
  rms_SCF =   7.892285103477178E-002 tol =   7.892285103477179E-003
 Begin minimization
 Creating dielectric and ionic cavities
  area:      154.261037566638     
  volume:    776.436860592614     
  Acav:     8.098704472248494E-002
  Solving linear dielectric/ionic screening model
        iter                  A_solv                     rms
   LPB:       -0.167248179413370E+00   0.879093983059335E-01
   LPB:    0  -0.167244128837193E+00   0.803570087905111E-01   0.494022E-03   0.000000E+00   0.331936E+02   0.163984E-01
   LPB:    1  -0.167222675692925E+00   0.108394740249102E-01   0.975788E-02   0.000000E+00   0.690089E+02   0.328883E-19
   LPB:    2  -0.167219795790257E+00   0.404562247765916E-02   0.144478E-01   0.906653E-01   0.223093E+03   0.160371E-16
   LPB:    3  -0.167219055959474E+00   0.343233194922749E-02   0.230953E-01   0.160706E+00   0.998558E+02   0.280483E-16
   LPB:    4  -0.167218314070853E+00   0.426640360804122E-02   0.428651E-01   0.540289E+00   0.314015E+03   0.388285E-17
  Finished solving LPB equations
  A_corr:   -8.623126934836831E-002
 End minimization
 Ecorr=   1992.92738853994     
 A_corr= -8.623126934836831E-002
 Ecorr_band=  -1993.01361980929     
 End Solvation calculations
RMM:   4    -0.181260266502E+03    0.31123E-03   -0.16007E-04  6276   0.274E-02    0.102E-01
 Begin Solvation calculations
  rms_SCF =   7.892285103477178E-002 tol =   7.892285103477179E-003
 Begin minimization
 Creating dielectric and ionic cavities
  area:      154.265413319583     
  volume:    776.440326608250     
  Acav:     8.098934199278106E-002
  Solving linear dielectric/ionic screening model
        iter                  A_solv                     rms
   LPB:       -0.167331912889311E+00   0.657522734835483E-01
   LPB:    0  -0.167329422224016E+00   0.575270612616936E-01  -0.387388E-03   0.000000E+00   0.331935E+02  -0.128588E-01
   LPB:    1  -0.167317451751282E+00   0.102802219099881E-01   0.106255E-01   0.000000E+00   0.615372E+02  -0.466031E-18
   LPB:    2  -0.167315568374305E+00   0.206949151707526E-02   0.133517E-01   0.125210E+00   0.188945E+03  -0.200438E-16
   LPB:    3  -0.167315127718757E+00   0.179639131710614E-02   0.274726E-01   0.113710E+00   0.198329E+03  -0.271139E-16
   LPB:    4  -0.167314567346654E+00   0.350616262678858E-02   0.448860E-01   0.778335E+00   0.951458E+02  -0.314561E-16
  Finished solving LPB equations
  A_corr:   -8.632522535387339E-002
 End minimization
 Ecorr=   1992.89441940552     
 A_corr= -8.632522535387339E-002
 Ecorr_band=  -1992.98074463087     
 End Solvation calculations
RMM:   5    -0.181260214739E+03    0.51763E-04   -0.49249E-05  5845   0.165E-02
 Begin Solvation calculations
  rms_SCF =   7.892285103477178E-002 tol =   7.892285103477179E-003
 Begin minimization
 Creating dielectric and ionic cavities
  area:      154.267761629941     
  volume:    776.460118782664     
  Acav:     8.099057485571881E-002
  Solving linear dielectric/ionic screening model
        iter                  A_solv                     rms
   LPB:       -0.167509464712327E+00   0.524386750728476E-01
   LPB:    0  -0.167508851153749E+00   0.501055169751582E-01  -0.192275E-03   0.000000E+00   0.331926E+02  -0.638210E-02
   LPB:    1  -0.167488461634039E+00   0.162024722746192E-01   0.138795E-01   0.000000E+00   0.835548E+02  -0.384695E-18
   LPB:    2  -0.167486136863699E+00   0.464763235670570E-02   0.117389E-01   0.134809E+00   0.146092E+03  -0.803587E-17
   LPB:    3  -0.167485519756134E+00   0.213354354211195E-02   0.207246E-01   0.150357E+00   0.108925E+03  -0.102447E-16
   LPB:    4  -0.167485077522076E+00   0.243421238800844E-02   0.340646E-01   0.435987E+00   0.292687E+03  -0.271088E-17
  Finished solving LPB equations
  A_corr:   -8.649450266635736E-002
 End minimization
 Ecorr=   1992.81785710426     
 A_corr= -8.649450266635736E-002
 Ecorr_band=  -1992.90435160693     
 End Solvation calculations
   4 F= -.18126021E+03 E0= -.18125539E+03  d E =-.212696E-03
quench:  g(F)=  0.000E+00 g(S)=  0.000E+00 dE (1.order)= 0.000E+00
 bond charge predicted
       N       E                     dE             d eps       ncg     rms          rms(c)
 Begin Solvation calculations
  rms_SCF =   7.892285103477178E-002 tol =   7.892285103477179E-003
 Begin minimization
 Creating dielectric and ionic cavities
  area:      154.273916527755     
  volume:    776.475215726406     
  Acav:     8.099380617707153E-002
  Solving linear dielectric/ionic screening model
        iter                  A_solv                     rms
   LPB:       -0.168207404847267E+00   0.385544109820660E-02
   LPB:    0  -0.168207404816473E+00   0.390458092652816E-02   0.136218E-05   0.000000E+00   0.331918E+02   0.452132E-04
   LPB:    1  -0.167555404705314E+00   0.175348047873102E-02   0.152628E-01   0.000000E+00   0.267133E+06  -0.189213E-20
   LPB:    2  -0.167498755027910E+00   0.274849594495405E-02   0.266262E-01   0.498053E-01   0.428312E+05   0.341498E-18
   LPB:    3  -0.167480348159092E+00   0.522446021449222E-02   0.327959E-01   0.263798E+00   0.395324E+04  -0.153003E-16
   LPB:    4  -0.167472294448065E+00   0.111579650667454E-01   0.330279E-01   0.434464E+00   0.580597E+03  -0.611872E-16
   LPB:    5  -0.167468526744223E+00   0.105563272753688E-01   0.228888E-01   0.675054E+00   0.148609E+03  -0.531912E-16
   LPB:    6  -0.167465585259128E+00   0.728689011678652E-02   0.250898E-01   0.712222E+00   0.344982E+03  -0.145468E-15
  Finished solving LPB equations
  A_corr:   -8.647177908205669E-002
 End minimization
 Ecorr=   1992.77353961346     
 A_corr= -8.647177908205669E-002
 Ecorr_band=  -1992.86001139254     
 End Solvation calculations
DAV:   1    -0.181260253629E+03    0.12873E-04   -0.35167E-02 11286   0.313E-01    0.985E-02
 Begin Solvation calculations
  rms_SCF =   7.892285103477178E-002 tol =   7.892285103477179E-003
 Begin minimization
 Creating dielectric and ionic cavities
  area:      154.289765303419     
  volume:    776.421678644925     
  Acav:     8.100212678429501E-002
  Solving linear dielectric/ionic screening model
        iter                  A_solv                     rms
   LPB:       -0.169229978222593E+00   0.613388052180827E+00
   LPB:    0  -0.169120807884425E+00   0.579199326216140E+00  -0.256469E-02   0.000000E+00   0.331944E+02  -0.851333E-01
   LPB:    1  -0.168193331054112E+00   0.681996869929124E-01   0.897964E-02   0.000000E+00   0.676441E+02  -0.297030E-17
   LPB:    2  -0.168075486732360E+00   0.109769915117038E-01   0.158991E-01   0.717616E-01   0.128075E+03  -0.215923E-15
   LPB:    3  -0.168061536130039E+00   0.582765380403738E-02   0.208333E-01   0.903439E-01   0.329212E+03  -0.189441E-15
   LPB:    4  -0.168056911946182E+00   0.652404731025933E-02   0.265443E-01   0.260153E+00   0.208670E+03  -0.176027E-15
  Finished solving LPB equations
  A_corr:   -8.705478516188704E-002
 End minimization
 Ecorr=   1992.90668962595     
 A_corr= -8.705478516188704E-002
 Ecorr_band=  -1992.99374441112     
 End Solvation calculations
RMM:   2    -0.181266807320E+03   -0.65537E-02   -0.27012E-03 11110   0.932E-02    0.963E-01
 Begin Solvation calculations
  rms_SCF =   7.892285103477178E-002 tol =   7.892285103477179E-003
 Begin minimization
 Creating dielectric and ionic cavities
  area:      154.301711867790     
  volume:    776.446599565570     
  Acav:     8.100839873058986E-002
  Solving linear dielectric/ionic screening model
        iter                  A_solv                     rms
   LPB:       -0.169010088101384E+00   0.667824325348245E+00
   LPB:    0  -0.168995529622602E+00   0.662888633461773E+00   0.936588E-03   0.000000E+00   0.331932E+02   0.310883E-01
   LPB:    1  -0.167847429118632E+00   0.633530584651712E-01   0.855450E-02   0.000000E+00   0.711832E+02   0.861545E-18
   LPB:    2  -0.167748442347816E+00   0.914930935622926E-02   0.158400E-01   0.465625E-01   0.128103E+03  -0.261983E-15
   LPB:    3  -0.167738201901489E+00   0.298982029800188E-02   0.203236E-01   0.806301E-01   0.322043E+03  -0.266341E-15
   LPB:    4  -0.167735867760415E+00   0.317281953621755E-02   0.255873E-01   0.181044E+00   0.520130E+03  -0.261261E-15
  Finished solving LPB equations
  A_corr:   -8.672746902982482E-002
 End minimization
 Ecorr=   1992.95285193887     
 A_corr= -8.672746902982482E-002
 Ecorr_band=  -1993.03957940790     
 End Solvation calculations
RMM:   3    -0.181260918325E+03    0.58890E-02   -0.95810E-04 10716   0.573E-02    0.249E-01
 Begin Solvation calculations
  rms_SCF =   7.892285103477178E-002 tol =   7.892285103477179E-003
 Begin minimization
 Creating dielectric and ionic cavities
  area:      154.290892018293     
  volume:    776.480286082203     
  Acav:     8.100271830960405E-002
  Solving linear dielectric/ionic screening model
        iter                  A_solv                     rms
   LPB:       -0.167812520384680E+00   0.136648588301141E+00
   LPB:    0  -0.167803398125284E+00   0.126712465145670E+00   0.741399E-03   0.000000E+00   0.331916E+02   0.246082E-01
   LPB:    1  -0.167759122903779E+00   0.126402418754656E-01   0.884963E-02   0.000000E+00   0.699726E+02   0.115556E-18
   LPB:    2  -0.167754562577223E+00   0.441460195367124E-02   0.154641E-01   0.589434E-01   0.163677E+03   0.282555E-16
   LPB:    3  -0.167753848222171E+00   0.262616682773317E-02   0.206538E-01   0.117285E+00   0.100781E+03   0.315349E-16
   LPB:    4  -0.167753431941880E+00   0.298411808316807E-02   0.337975E-01   0.356112E+00   0.308728E+03   0.297957E-16
  Finished solving LPB equations
  A_corr:   -8.675071363227550E-002
 End minimization
 Ecorr=   1992.70674824666     
 A_corr= -8.675071363227550E-002
 Ecorr_band=  -1992.79349896029     
 End Solvation calculations
RMM:   4    -0.181260367244E+03    0.55108E-03   -0.20787E-04  6409   0.296E-02    0.883E-02
 Begin Solvation calculations
  rms_SCF =   7.892285103477178E-002 tol =   7.892285103477179E-003
 Begin minimization
 Creating dielectric and ionic cavities
  area:      154.293654894271     
  volume:    776.485924813177     
  Acav:     8.100416881949213E-002
  Solving linear dielectric/ionic screening model
        iter                  A_solv                     rms
   LPB:       -0.167867310664759E+00   0.622126123618997E-01
   LPB:    0  -0.167864794252211E+00   0.534375334415551E-01  -0.389398E-03   0.000000E+00   0.331913E+02  -0.129246E-01
   LPB:    1  -0.167853885397756E+00   0.105008025132193E-01   0.110941E-01   0.000000E+00   0.591958E+02   0.251322E-18
   LPB:    2  -0.167852071701505E+00   0.211145274543446E-02   0.132161E-01   0.139564E+00   0.186235E+03   0.264594E-16
   LPB:    3  -0.167851630722367E+00   0.155423483819743E-02   0.260910E-01   0.123159E+00   0.219494E+03   0.289235E-16
   LPB:    4  -0.167851157177734E+00   0.291076197875458E-02   0.431695E-01   0.649017E+00   0.114715E+03   0.281875E-16
  Finished solving LPB equations
  A_corr:   -8.684698835824226E-002
 End minimization
 Ecorr=   1992.67217482696     
 A_corr= -8.684698835824226E-002
 Ecorr_band=  -1992.75902181531     
 End Solvation calculations
RMM:   5    -0.181260336707E+03    0.30537E-04   -0.65982E-05  5823   0.174E-02
 Begin Solvation calculations
  rms_SCF =   7.892285103477178E-002 tol =   7.892285103477179E-003
 Begin minimization
 Creating dielectric and ionic cavities
  area:      154.297472829214     
  volume:    776.498994576302     
  Acav:     8.100617323533717E-002
  Solving linear dielectric/ionic screening model
        iter                  A_solv                     rms
   LPB:       -0.167937405798711E+00   0.124634610289383E-01
   LPB:    0  -0.167937348756725E+00   0.115462378016126E-01  -0.586278E-04   0.000000E+00   0.331907E+02  -0.194590E-02
   LPB:    1  -0.167933060055756E+00   0.797120851037085E-02   0.144908E-01   0.000000E+00   0.301805E+03   0.462877E-19
   LPB:    2  -0.167932574349266E+00   0.310373340518278E-02   0.134164E-01   0.122323E+00   0.640476E+02  -0.278425E-18
   LPB:    3  -0.167932313637989E+00   0.248382258939792E-02   0.263712E-01   0.273081E+00   0.158021E+03   0.383095E-16
   LPB:    4  -0.167931936584823E+00   0.297339062037478E-02   0.397669E-01   0.959071E+00   0.220639E+03   0.584013E-16
  Finished solving LPB equations
  A_corr:   -8.692576334948600E-002
 End minimization
 Ecorr=   1992.61613795304     
 A_corr= -8.692576334948600E-002
 Ecorr_band=  -1992.70306371639     
 End Solvation calculations
   5 F= -.18126034E+03 E0= -.18125546E+03  d E =-.121968E-03
quench:  g(F)=  0.000E+00 g(S)=  0.000E+00 dE (1.order)= 0.000E+00
 bond charge predicted
       N       E                     dE             d eps       ncg     rms          rms(c)
 Begin Solvation calculations
  rms_SCF =   7.892285103477178E-002 tol =   7.892285103477179E-003
 Begin minimization
 Creating dielectric and ionic cavities
  area:      154.312914536902     
  volume:    776.510186090698     
  Acav:     8.101428013187356E-002
  Solving linear dielectric/ionic screening model
        iter                  A_solv                     rms
   LPB:       -0.168235867022379E+00   0.363769688235687E-02
   LPB:    0  -0.168235866999721E+00   0.368255702000003E-02   0.116849E-05   0.000000E+00   0.331902E+02   0.387824E-04
   LPB:    1  -0.167977083146291E+00   0.269089450676502E-02   0.155875E-01   0.000000E+00   0.111094E+06  -0.319182E-20
   LPB:    2  -0.167948447463152E+00   0.479346446441843E-02   0.276287E-01   0.624291E-01   0.871216E+04  -0.559145E-17
   LPB:    3  -0.167938998419311E+00   0.104694286890819E-01   0.312597E-01   0.291646E+00   0.925675E+03  -0.370022E-17
   LPB:    4  -0.167935454428007E+00   0.123402367308902E-01   0.223715E-01   0.524075E+00   0.179622E+03   0.430302E-17
   LPB:    5  -0.167932941729627E+00   0.575231283986240E-02   0.212243E-01   0.747325E+00   0.275958E+03   0.688504E-17
  Finished solving LPB equations
  A_corr:   -8.691866159775308E-002
 End minimization
 Ecorr=   1992.60761114843     
 A_corr= -8.691866159775308E-002
 Ecorr_band=  -1992.69452981003     
 End Solvation calculations
DAV:   1    -0.181260367383E+03   -0.13899E-06   -0.18433E-02 11355   0.215E-01    0.750E-02
 Begin Solvation calculations
  rms_SCF =   7.892285103477178E-002 tol =   7.892285103477179E-003
 Begin minimization
 Creating dielectric and ionic cavities
  area:      154.298588918334     
  volume:    776.484076321179     
  Acav:     8.100675918212520E-002
  Solving linear dielectric/ionic screening model
        iter                  A_solv                     rms
   LPB:       -0.169795671738122E+00   0.639520449763794E+00
   LPB:    0  -0.169753893152813E+00   0.625410131507079E+00  -0.158664E-02   0.000000E+00   0.331914E+02  -0.526629E-01
   LPB:    1  -0.168696427054377E+00   0.714267693419090E-01   0.888573E-02   0.000000E+00   0.679730E+02   0.168354E-17
   LPB:    2  -0.168568584202350E+00   0.110008423306852E-01   0.159879E-01   0.671909E-01   0.124533E+03   0.223842E-15
   LPB:    3  -0.168554164680841E+00   0.475202401862370E-02   0.214475E-01   0.840794E-01   0.277918E+03   0.407517E-15
   LPB:    4  -0.168549522656536E+00   0.401170451032250E-02   0.273526E-01   0.252427E+00   0.274719E+03   0.407281E-15
  Finished solving LPB equations
  A_corr:   -8.754276347441102E-002
 End minimization
 Ecorr=   1992.49030829659     
 A_corr= -8.754276347441102E-002
 Ecorr_band=  -1992.57785106007     
 End Solvation calculations
RMM:   2    -0.181265658127E+03   -0.52907E-02   -0.17062E-03 10822   0.757E-02    0.836E-01
 Begin Solvation calculations
  rms_SCF =   7.892285103477178E-002 tol =   7.892285103477179E-003
 Begin minimization
 Creating dielectric and ionic cavities
  area:      154.315117869754     
  volume:    776.495176359770     
  Acav:     8.101543688162066E-002
  Solving linear dielectric/ionic screening model
        iter                  A_solv                     rms
   LPB:       -0.169308907166524E+00   0.600851374209414E+00
   LPB:    0  -0.169304720474366E+00   0.599096885997529E+00   0.502274E-03   0.000000E+00   0.331909E+02   0.166709E-01
   LPB:    1  -0.168366716450206E+00   0.570182885969828E-01   0.856163E-02   0.000000E+00   0.711871E+02  -0.111392E-17
   LPB:    2  -0.168285616185243E+00   0.876347753749351E-02   0.158067E-01   0.468309E-01   0.130615E+03  -0.143825E-16
   LPB:    3  -0.168277148147818E+00   0.257252723676881E-02   0.202860E-01   0.813591E-01   0.289699E+03  -0.292918E-16
   LPB:    4  -0.168275336586011E+00   0.151210261190686E-02   0.254268E-01   0.170677E+00   0.705941E+03  -0.562613E-16
  Finished solving LPB equations
  A_corr:   -8.725989970439013E-002
 End minimization
 Ecorr=   1992.58353971981     
 A_corr= -8.725989970439013E-002
 Ecorr_band=  -1992.67079961951     
 End Solvation calculations
RMM:   3    -0.181260704486E+03    0.49536E-02   -0.65937E-04 10087   0.470E-02    0.183E-01
 Begin Solvation calculations
  rms_SCF =   7.892285103477178E-002 tol =   7.892285103477179E-003
 Begin minimization
 Creating dielectric and ionic cavities
  area:      154.313315141717     
  volume:    776.511973476765     
  Acav:     8.101449044940119E-002
  Solving linear dielectric/ionic screening model
        iter                  A_solv                     rms
   LPB:       -0.168305479529001E+00   0.244997436561529E-01
   LPB:    0  -0.168304433777919E+00   0.181562191079660E-01   0.251029E-03   0.000000E+00   0.331901E+02   0.833170E-02
   LPB:    1  -0.168302328942543E+00   0.492646133316089E-02   0.114410E-01   0.000000E+00   0.956373E+02   0.653926E-18
   LPB:    2  -0.168301852177706E+00   0.247298319222125E-02   0.176871E-01   0.146519E+00   0.197598E+03   0.600103E-17
   LPB:    3  -0.168301458385597E+00   0.371584760105115E-02   0.301814E-01   0.484038E+00   0.125363E+03  -0.173368E-16
   LPB:    4  -0.168300906690478E+00   0.367412622555253E-02   0.424812E-01   0.995349E+00   0.143391E+03  -0.542903E-16
  Finished solving LPB equations
  A_corr:   -8.728641624107643E-002
 End minimization
 Ecorr=   1992.46952450695     
 A_corr= -8.728641624107643E-002
 Ecorr_band=  -1992.55681092320     
 End Solvation calculations
RMM:   4    -0.181260437345E+03    0.26714E-03   -0.15253E-04  6119   0.260E-02    0.639E-02
 Begin Solvation calculations
  rms_SCF =   7.892285103477178E-002 tol =   7.892285103477179E-003
 Begin minimization
 Creating dielectric and ionic cavities
  area:      154.319617959835     
  volume:    776.517551192174     
  Acav:     8.101779942891313E-002
  Solving linear dielectric/ionic screening model
        iter                  A_solv                     rms
   LPB:       -0.168471660274910E+00   0.587450844387583E-01
   LPB:    0  -0.168468556755315E+00   0.453654481826185E-01  -0.432454E-03   0.000000E+00   0.331899E+02  -0.143531E-01
   LPB:    1  -0.168456713046515E+00   0.119126981862455E-01   0.129799E-01   0.000000E+00   0.611861E+02   0.711055E-18
[...]
   LPB:       -0.169433085399246E+00   0.835597230304859E-01
   LPB:    0  -0.169432967136990E+00   0.834117887073599E-01   0.844395E-04   0.000000E+00   0.331730E+02   0.280111E-02
   LPB:    1  -0.169414753432241E+00   0.798055672933750E-02   0.858740E-02   0.000000E+00   0.709987E+02   0.171285E-18
   LPB:    2  -0.169413144365536E+00   0.159697203695377E-02   0.158128E-01   0.479763E-01   0.132709E+03  -0.108143E-17
   LPB:    3  -0.169412941445603E+00   0.826088604389050E-03   0.224800E-01   0.887085E-01   0.164672E+03  -0.207059E-17
   LPB:    4  -0.169412877764312E+00   0.632172832017414E-03   0.272335E-01   0.259047E+00   0.265361E+03  -0.199299E-16
   LPB:    5  -0.169412851153772E+00   0.587226712282793E-03   0.251746E-01   0.452047E+00   0.234849E+03  -0.335375E-16
   LPB:    6  -0.169412833682572E+00   0.407649278310226E-03   0.279004E-01   0.592408E+00   0.201365E+03  -0.416932E-16
  Finished solving LPB equations
  A_corr:   -8.827042035590367E-002
 End minimization
 Ecorr=   1992.35139348372     
 A_corr= -8.827042035590367E-002
 Ecorr_band=  -1992.43966390407     
 End Solvation calculations
  59 F= -.18126188E+03 E0= -.18125710E+03  d E =-.759795E-04
quench:  g(F)=  0.000E+00 g(S)=  0.000E+00 dE (1.order)= 0.000E+00
 bond charge predicted
       N       E                     dE             d eps       ncg     rms          rms(c)
 Begin Solvation calculations
  rms_SCF =   5.062546567909483E-003 tol =   5.062546567909483E-004
 Begin minimization
 Creating dielectric and ionic cavities
  area:      154.564607418328     
  volume:    776.881265886073     
  Acav:     8.114641889462239E-002
  Solving linear dielectric/ionic screening model
        iter                  A_solv                     rms
   LPB:       -0.169551011795361E+00   0.118405789356945E-02
   LPB:    0  -0.169551011792111E+00   0.119346018125084E-02   0.442653E-06   0.000000E+00   0.331728E+02   0.146841E-04
   LPB:    1  -0.169441873812941E+00   0.531642179901857E-03   0.153895E-01   0.000000E+00   0.562196E+06  -0.195233E-21
   LPB:    2  -0.169430514514277E+00   0.623284479185698E-03   0.276178E-01   0.579977E-01   0.845886E+05   0.333444E-18
   LPB:    3  -0.169426716805754E+00   0.124577322453715E-02   0.332209E-01   0.277938E+00   0.167206E+05   0.219167E-17
   LPB:    4  -0.169425032595182E+00   0.256098171077931E-02   0.351380E-01   0.419285E+00   0.163451E+04  -0.258221E-18
   LPB:    5  -0.169424255980243E+00   0.397303676645999E-02   0.302467E-01   0.535683E+00   0.275813E+03   0.327376E-18
   LPB:    6  -0.169423815167426E+00   0.222225480970190E-02   0.233210E-01   0.736171E+00   0.170329E+03   0.129753E-16
   LPB:    7  -0.169423475930167E+00   0.906582191065093E-03   0.320334E-01   0.560266E+00   0.647855E+03   0.549835E-16
   LPB:    8  -0.169423269146122E+00   0.182855243725097E-02   0.363722E-01   0.536842E+00   0.876938E+03   0.944669E-16
   LPB:    9  -0.169423174487304E+00   0.231672569303725E-02   0.226427E-01   0.735337E+00   0.179105E+03   0.117451E-15
   LPB:   10  -0.169423089591107E+00   0.642169496198625E-03   0.224606E-01   0.904133E+00   0.307189E+03   0.128040E-15
   LPB:   11  -0.169423021509894E+00   0.169303704477730E-03   0.374630E-01   0.480794E+00   0.308025E+04   0.141589E-15
  Finished solving LPB equations
  A_corr:   -8.827660261527158E-002
 End minimization
 Ecorr=   1992.35391643115     
 A_corr= -8.827660261527158E-002
 Ecorr_band=  -1992.44219303376     
 End Solvation calculations
DAV:   1    -0.181261864095E+03   -0.59018E-04   -0.75879E-03 11088   0.161E-01    0.833E-02
 Begin Solvation calculations
  rms_SCF =   5.062546567909483E-003 tol =   5.062546567909483E-004
 Begin minimization
 Creating dielectric and ionic cavities
  area:      154.574095291650     
  volume:    776.860219729105     
  Acav:     8.115140002811624E-002
  Solving linear dielectric/ionic screening model
        iter                  A_solv                     rms
   LPB:       -0.171114661483728E+00   0.830806899348380E+00
   LPB:    0  -0.171114485873464E+00   0.830863880491498E+00  -0.102895E-03   0.000000E+00   0.331738E+02  -0.341340E-02
   LPB:    1  -0.169308801612619E+00   0.791505637589775E-01   0.857938E-02   0.000000E+00   0.710518E+02   0.140601E-18
   LPB:    2  -0.169155556595221E+00   0.144098895515596E-01   0.155461E-01   0.468360E-01   0.133583E+03   0.472538E-16
   LPB:    3  -0.169138577977607E+00   0.570991911046466E-02   0.213725E-01   0.805899E-01   0.187082E+03   0.783013E-16
   LPB:    4  -0.169134066339156E+00   0.377967004538236E-02   0.266569E-01   0.213048E+00   0.320420E+03  -0.463074E-16
   LPB:    5  -0.169132418967636E+00   0.381269456453138E-02   0.260097E-01   0.374223E+00   0.255716E+03  -0.679470E-16
   LPB:    6  -0.169131665347960E+00   0.327901787383127E-02   0.246943E-01   0.481837E+00   0.173265E+03  -0.611115E-16
   LPB:    7  -0.169131245632968E+00   0.164355463732059E-02   0.252334E-01   0.545033E+00   0.160974E+03  -0.559003E-16
   LPB:    8  -0.169130986840567E+00   0.610089532636865E-03   0.315879E-01   0.492553E+00   0.290602E+03  -0.844528E-16
   LPB:    9  -0.169130839354744E+00   0.284273144435624E-03   0.359203E-01   0.501163E+00   0.402198E+03  -0.974232E-16
  Finished solving LPB equations
  A_corr:   -8.797943932662758E-002
 End minimization
 Ecorr=   1992.64936238031     
 A_corr= -8.797943932662758E-002
 Ecorr_band=  -1992.73734181964     
 End Solvation calculations
RMM:   2    -0.181272364672E+03   -0.10501E-01   -0.18994E-03 11051   0.814E-02    0.121E+00
 Begin Solvation calculations
  rms_SCF =   5.062546567909483E-003 tol =   5.062546567909483E-004
 Begin minimization
 Creating dielectric and ionic cavities
  area:      154.557146524661     
  volume:    776.862119970396     
  Acav:     8.114250192544713E-002
  Solving linear dielectric/ionic screening model
        iter                  A_solv                     rms
   LPB:       -0.171188094123815E+00   0.773117522641582E+00
   LPB:    0  -0.171186913802988E+00   0.772593979849808E+00  -0.266758E-03   0.000000E+00   0.331737E+02  -0.884936E-02
   LPB:    1  -0.169628934123701E+00   0.741699612731755E-01   0.856866E-02   0.000000E+00   0.710431E+02   0.732313E-18
   LPB:    2  -0.169496140559626E+00   0.127858910064262E-01   0.156559E-01   0.466498E-01   0.129627E+03  -0.455075E-16
   LPB:    3  -0.169481825003142E+00   0.463028832340511E-02   0.212201E-01   0.795356E-01   0.200927E+03  -0.697021E-16
   LPB:    4  -0.169477993274031E+00   0.248037757902319E-02   0.270870E-01   0.209688E+00   0.353602E+03  -0.180183E-16
   LPB:    5  -0.169476574380327E+00   0.234786952939650E-02   0.278885E-01   0.359659E+00   0.342531E+03  -0.120318E-16
   LPB:    6  -0.169475983857786E+00   0.276028717591842E-02   0.266778E-01   0.435072E+00   0.248468E+03   0.332501E-18
   LPB:    7  -0.169475717644981E+00   0.188920107269267E-02   0.231284E-01   0.519994E+00   0.137451E+03   0.934419E-17
   LPB:    8  -0.169475556093968E+00   0.685569936505365E-03   0.272342E-01   0.515360E+00   0.237719E+03   0.371466E-16
   LPB:    9  -0.169475464862810E+00   0.256047960668578E-03   0.339887E-01   0.452495E+00   0.439712E+03   0.668372E-16
  Finished solving LPB equations
  A_corr:   -8.833296293736252E-002
 End minimization
 Ecorr=   1992.42790252149     
 A_corr= -8.833296293736252E-002
 Ecorr_band=  -1992.51623548442     
 End Solvation calculations
RMM:   3    -0.181262034170E+03    0.10331E-01   -0.10550E-03 10658   0.599E-02    0.791E-02
 Begin Solvation calculations
  rms_SCF =   5.062546567909483E-003 tol =   5.062546567909483E-004
 Begin minimization
 Creating dielectric and ionic cavities
  area:      154.554702214480     
  volume:    776.876573015130     
  Acav:     8.114121866260186E-002
  Solving linear dielectric/ionic screening model
        iter                  A_solv                     rms
   LPB:       -0.169450557605202E+00   0.358121450496495E-01
   LPB:    0  -0.169447265141760E+00   0.122843712132356E-01   0.445536E-03   0.000000E+00   0.331730E+02   0.147798E-01
   LPB:    1  -0.169446293408601E+00   0.127213726994540E-02   0.108492E-01   0.000000E+00   0.668416E+02   0.656311E-18
   LPB:    2  -0.169446215675444E+00   0.607002955989326E-03   0.166154E-01   0.522332E-01   0.456977E+03  -0.137749E-16
   LPB:    3  -0.169446189855212E+00   0.101713029163340E-02   0.257675E-01   0.214186E+00   0.209458E+03  -0.144497E-16
   LPB:    4  -0.169446176048394E+00   0.650586002168890E-03   0.214012E-01   0.643824E+00   0.126408E+03  -0.144439E-16
   LPB:    5  -0.169446162564831E+00   0.183416109466839E-03   0.260473E-01   0.802394E+00   0.492275E+03  -0.144737E-16
  Finished solving LPB equations
  A_corr:   -8.830494390222955E-002
 End minimization
 Ecorr=   1992.34226852167     
 A_corr= -8.830494390222955E-002
 Ecorr_band=  -1992.43057346558     
 End Solvation calculations
RMM:   4    -0.181261866817E+03    0.16735E-03   -0.98617E-05  6088   0.222E-02    0.591E-02
 Begin Solvation calculations
  rms_SCF =   5.062546567909483E-003 tol =   5.062546567909483E-004
 Begin minimization
 Creating dielectric and ionic cavities
  area:      154.557735106385     
  volume:    776.870165582474     
  Acav:     8.114281093085213E-002
  Solving linear dielectric/ionic screening model
        iter                  A_solv                     rms
   LPB:       -0.169450015700325E+00   0.142304830399102E-01
   LPB:    0  -0.169449377422456E+00   0.436045781583568E-02  -0.196167E-03   0.000000E+00   0.331733E+02  -0.650750E-02
   LPB:    1  -0.169449193551801E+00   0.119866396469820E-02   0.116467E-01   0.000000E+00   0.988723E+02   0.956554E-19
   LPB:    2  -0.169449165343279E+00   0.310312652620702E-03   0.184272E-01   0.969644E-01   0.132365E+03   0.209301E-16
   LPB:    3  -0.169449156624983E+00   0.600149978452253E-03   0.255543E-01   0.222866E+00   0.179818E+03   0.211308E-16
   LPB:    4  -0.169449150241149E+00   0.470709251722233E-03   0.239806E-01   0.780289E+00   0.154729E+03   0.212270E-16
  Finished solving LPB equations
  A_corr:   -8.830633931029674E-002
 End minimization
 Ecorr=   1992.40330495465     
 A_corr= -8.830633931029674E-002
 Ecorr_band=  -1992.49161129396     
 End Solvation calculations
RMM:   5    -0.181261840769E+03    0.26048E-04   -0.31514E-05  5825   0.123E-02
 Begin Solvation calculations
  rms_SCF =   5.062546567909483E-003 tol =   5.062546567909483E-004
 Begin minimization
 Creating dielectric and ionic cavities
  area:      154.555835961324     
  volume:    776.872869126288     
  Acav:     8.114181387969512E-002
  Solving linear dielectric/ionic screening model
        iter                  A_solv                     rms
   LPB:       -0.169452252459151E+00   0.140424231739838E-01
   LPB:    0  -0.169452063025856E+00   0.114871484655140E-01   0.106868E-03   0.000000E+00   0.331732E+02   0.354517E-02
   LPB:    1  -0.169451565406593E+00   0.174720357049283E-02   0.988518E-02   0.000000E+00   0.737994E+02   0.381529E-19
   LPB:    2  -0.169451481739169E+00   0.434940005004958E-03   0.150907E-01   0.110137E+00   0.316814E+03   0.158137E-16
   LPB:    3  -0.169451465769324E+00   0.449057304732690E-03   0.225091E-01   0.127967E+00   0.309143E+03   0.183315E-16
   LPB:    4  -0.169451458001267E+00   0.378437786925132E-03   0.250812E-01   0.436537E+00   0.154828E+03   0.177466E-16
  Finished solving LPB equations
  A_corr:   -8.830964412157170E-002
 End minimization
 Ecorr=   1992.38463142882     
 A_corr= -8.830964412157170E-002
 Ecorr_band=  -1992.47294107294     
 End Solvation calculations
  60 F= -.18126184E+03 E0= -.18125694E+03  d E =0.409154E-04
quench:  g(F)=  0.000E+00 g(S)=  0.000E+00 dE (1.order)= 0.000E+00
 bond charge predicted
       N       E                     dE             d eps       ncg     rms          rms(c)
 Begin Solvation calculations
  rms_SCF =   5.062546567909483E-003 tol =   5.062546567909483E-004
 Begin minimization
 Creating dielectric and ionic cavities
  area:      154.554451630873     
  volume:    776.875230131932     
  Acav:     8.114108710620825E-002
  Solving linear dielectric/ionic screening model
        iter                  A_solv                     rms
   LPB:       -0.169513755260222E+00   0.834771773502446E-03
   LPB:    0  -0.169513755259195E+00   0.840545487434333E-03   0.248836E-06   0.000000E+00   0.331731E+02   0.825465E-05
   LPB:    1  -0.169455903973304E+00   0.341629747236265E-03   0.154894E-01   0.000000E+00   0.589677E+06  -0.813231E-21
   LPB:    2  -0.169449877058551E+00   0.431703100374126E-03   0.275737E-01   0.585222E-01   0.134628E+06   0.291430E-18
   LPB:    3  -0.169447850289020E+00   0.100206045113191E-02   0.332161E-01   0.279162E+00   0.207339E+05  -0.458478E-19
   LPB:    4  -0.169446972633714E+00   0.258362777071636E-02   0.347028E-01   0.414480E+00   0.169925E+04   0.424249E-17
   LPB:    5  -0.169446609063076E+00   0.421422495835037E-02   0.257744E-01   0.557751E+00   0.225451E+03   0.589023E-17
   LPB:    6  -0.169446373428361E+00   0.181023528934691E-02   0.192941E-01   0.865793E+00   0.212933E+03   0.147416E-16
   LPB:    7  -0.169446195923348E+00   0.162747117723035E-02   0.303048E-01   0.479607E+00   0.445775E+03   0.216796E-16
   LPB:    8  -0.169446100254090E+00   0.146102644830620E-02   0.246420E-01   0.662823E+00   0.169094E+03   0.233321E-16
   LPB:    9  -0.169446024192597E+00   0.490314574360090E-03   0.274549E-01   0.713590E+00   0.299616E+03   0.167917E-16
  Finished solving LPB equations
  A_corr:   -8.830493708638869E-002
 End minimization
 Ecorr=   1992.38493512439     
 A_corr= -8.830493708638869E-002
 Ecorr_band=  -1992.47324006148     
 End Solvation calculations
DAV:   1    -0.181261864830E+03    0.19867E-05   -0.35740E-03 11322   0.984E-02    0.325E-02
 Begin Solvation calculations
  rms_SCF =   5.062546567909483E-003 tol =   5.062546567909483E-004
 Begin minimization
 Creating dielectric and ionic cavities
  area:      154.555890882995     
  volume:    776.865196709148     
  Acav:     8.114184271357214E-002
  Solving linear dielectric/ionic screening model
        iter                  A_solv                     rms
   LPB:       -0.169512627777931E+00   0.118716048691179E+00
   LPB:    0  -0.169511164587461E+00   0.116837599963527E+00  -0.297009E-03   0.000000E+00   0.331736E+02  -0.985284E-02
   LPB:    1  -0.169474262456006E+00   0.106693654447298E-01   0.865141E-02   0.000000E+00   0.720644E+02   0.164399E-18
   LPB:    2  -0.169470914592407E+00   0.164587266309347E-02   0.155261E-01   0.505522E-01   0.162194E+03  -0.107497E-16
   LPB:    3  -0.169470439602393E+00   0.778946237073213E-03   0.234873E-01   0.937879E-01   0.343534E+03  -0.811198E-17
   LPB:    4  -0.169470294688526E+00   0.116234970301895E-02   0.277079E-01   0.258616E+00   0.392848E+03  -0.819276E-17
   LPB:    5  -0.169470231012936E+00   0.101706567426497E-02   0.254947E-01   0.477549E+00   0.126585E+03  -0.754302E-17
   LPB:    6  -0.169470192727010E+00   0.594607727904747E-03   0.267834E-01   0.572335E+00   0.223147E+03  -0.837222E-17
   LPB:    7  -0.169470166132715E+00   0.276563899461284E-03   0.300203E-01   0.619725E+00   0.313693E+03  -0.113789E-16
  Finished solving LPB equations
  A_corr:   -8.832832341914243E-002
 End minimization
 Ecorr=   1992.46305252150     
 A_corr= -8.832832341914243E-002
 Ecorr_band=  -1992.55138084492     
 End Solvation calculations
RMM:   2    -0.181262089321E+03   -0.22449E-03   -0.27652E-04  6556   0.326E-02    0.157E-01
 Begin Solvation calculations
  rms_SCF =   5.062546567909483E-003 tol =   5.062546567909483E-004
 Begin minimization
 Creating dielectric and ionic cavities
  area:      154.558123729213     
  volume:    776.874529335556     
  Acav:     8.114301495783684E-002
  Solving linear dielectric/ionic screening model
        iter                  A_solv                     rms
   LPB:       -0.169454785096362E+00   0.156650728379209E+00
   LPB:    0  -0.169452721327034E+00   0.154139217156142E+00   0.352738E-03   0.000000E+00   0.331731E+02   0.117014E-01
   LPB:    1  -0.169390550875322E+00   0.152985339492953E-01   0.861029E-02   0.000000E+00   0.702896E+02   0.435165E-18
   LPB:    2  -0.169384866313333E+00   0.227824729822308E-02   0.158403E-01   0.497013E-01   0.124898E+03   0.265413E-16
   LPB:    3  -0.169384231798677E+00   0.933195347162158E-03   0.215377E-01   0.820934E-01   0.273772E+03   0.126910E-16
   LPB:    4  -0.169384046803088E+00   0.992693509048716E-03   0.268484E-01   0.233884E+00   0.287882E+03   0.276697E-17
   LPB:    5  -0.169383980777018E+00   0.968581359794642E-03   0.251713E-01   0.380686E+00   0.171263E+03  -0.135440E-17
   LPB:    6  -0.169383950478204E+00   0.591770034210048E-03   0.240883E-01   0.479523E+00   0.143623E+03  -0.115056E-16
   LPB:    7  -0.169383932474445E+00   0.244790047597014E-03   0.269952E-01   0.530221E+00   0.283216E+03  -0.184119E-16
  Finished solving LPB equations
  A_corr:   -8.824091751660794E-002
 End minimization
 Ecorr=   1992.43828258169     
 A_corr= -8.824091751660794E-002
 Ecorr_band=  -1992.52652349920     
 End Solvation calculations
RMM:   3    -0.181261966599E+03    0.12272E-03   -0.72368E-05  5903   0.193E-02    0.120E-01
 Begin Solvation calculations
  rms_SCF =   5.062546567909483E-003 tol =   5.062546567909483E-004
 Begin minimization
 Creating dielectric and ionic cavities
  area:      154.555711245457     
  volume:    776.878209678468     
  Acav:     8.114174840386512E-002
  Solving linear dielectric/ionic screening model
        iter                  A_solv                     rms
   LPB:       -0.169416426849246E+00   0.622190795767620E-01
   LPB:    0  -0.169416284840463E+00   0.619224439688550E-01   0.925296E-04   0.000000E+00   0.331730E+02   0.306948E-02
   LPB:    1  -0.169406245533172E+00   0.569103853875981E-02   0.852571E-02   0.000000E+00   0.720312E+02  -0.280117E-20
   LPB:    2  -0.169405472447966E+00   0.122425862137593E-02   0.153477E-01   0.427772E-01   0.136359E+03   0.478181E-17
   LPB:    3  -0.169405389079521E+00   0.571582699924823E-03   0.207111E-01   0.799123E-01   0.141466E+03   0.517707E-17
   LPB:    4  -0.169405365344900E+00   0.445313200049952E-03   0.251620E-01   0.234336E+00   0.268225E+03  -0.368733E-17
  Finished solving LPB equations
  A_corr:   -8.826361694103529E-002
 End minimization
 Ecorr=   1992.39935304557     
 A_corr= -8.826361694103529E-002
 Ecorr_band=  -1992.48761666251     
 End Solvation calculations
RMM:   4    -0.181261873246E+03    0.93353E-04   -0.26123E-05  5606   0.102E-02
 Begin Solvation calculations
  rms_SCF =   5.062546567909483E-003 tol =   5.062546567909483E-004
 Begin minimization
 Creating dielectric and ionic cavities
  area:      154.556025282704     
  volume:    776.872615463047     
  Acav:     8.114191327341944E-002
  Solving linear dielectric/ionic screening model
        iter                  A_solv                     rms
   LPB:       -0.169404006399069E+00   0.135801259333209E-01
   LPB:    0  -0.169403782784730E+00   0.106966541940660E-01  -0.116110E-03   0.000000E+00   0.331732E+02  -0.385175E-02
   LPB:    1  -0.169403420456367E+00   0.115758914539815E-02   0.921468E-02   0.000000E+00   0.720067E+02  -0.850874E-19
   LPB:    2  -0.169403375011187E+00   0.605066837108741E-03   0.158088E-01   0.731082E-01   0.228968E+03   0.231256E-16
   LPB:    3  -0.169403367194471E+00   0.374594105178006E-03   0.179452E-01   0.151526E+00   0.853285E+02   0.256328E-16
   LPB:    4  -0.169403362732220E+00   0.200286955382596E-03   0.282888E-01   0.362128E+00   0.288253E+03   0.279587E-16
  Finished solving LPB equations
  A_corr:   -8.826144945880021E-002
 End minimization
 Ecorr=   1992.43329882273     
 A_corr= -8.826144945880021E-002
 Ecorr_band=  -1992.52156027219     
 End Solvation calculations
  61 F= -.18126187E+03 E0= -.18125698E+03  d E =-.324769E-04
quench:  g(F)=  0.000E+00 g(S)=  0.000E+00 dE (1.order)= 0.000E+00
 reached required accuracy - stopping structural energy minimisation
