 vasp.5.4.4.18Apr17-6-g9f103f2a35 (build Feb 06 2024 13:54:16) complex          
  
 POSCAR found type information on POSCAR  Cu Pd Cu N  O 
 02/POSCAR found :  5 types and      40 ions
 scaLAPACK will be used

 ----------------------------------------------------------------------------- 
|                                                                             |
|  ADVICE TO THIS USER RUNNING 'VASP/VAMP'   (HEAR YOUR MASTER'S VOICE ...):  |
|                                                                             |
|      You enforced a specific xc-type in the INCAR file,                     |
|      a different type was found on the POTCAR file                          |
|          I HOPE YOU KNOW, WHAT YOU ARE  DOING                               |
|                                                                             |
 ----------------------------------------------------------------------------- 

 LDA part: xc-table for Pade appr. of Perdew
 POSCAR found type information on POSCAR  Cu Pd Cu N  O 
 00/POSCAR found :  5 types and      40 ions
 POSCAR found type information on POSCAR  Cu Pd Cu N  O 
 06/POSCAR found :  5 types and      40 ions
 Jacobian:    20.5888137679208     
 POSCAR, INCAR and KPOINTS ok, starting setup
 FFT: planning ...
 WAVECAR not read
 entering main loop
       N       E                     dE             d eps       ncg     rms          rms(c)
DAV:   1     0.348983620582E+04    0.34898E+04   -0.12912E+05  1008   0.131E+03
DAV:   2     0.355684439075E+03   -0.31342E+04   -0.30112E+04  1008   0.369E+02
DAV:   3    -0.917649589281E+02   -0.44745E+03   -0.40547E+03  1305   0.177E+02
DAV:   4    -0.160086632882E+03   -0.68322E+02   -0.64317E+02  1575   0.657E+01
DAV:   5    -0.162852583145E+03   -0.27660E+01   -0.26746E+01  1494   0.167E+01    0.441E+01
RMM:   6    -0.167816958628E+03   -0.49644E+01   -0.35673E+02  1017   0.879E+01    0.450E+01
RMM:   7    -0.170054547709E+03   -0.22376E+01   -0.11390E+02  1040   0.411E+01    0.351E+01
RMM:   8    -0.145311867325E+03    0.24743E+02   -0.16023E+01  1026   0.158E+01    0.252E+01
RMM:   9    -0.139914337214E+03    0.53975E+01   -0.52040E+00  1026   0.991E+00    0.161E+01
RMM:  10    -0.135742579727E+03    0.41718E+01   -0.12584E+01  1024   0.114E+01    0.872E+00
RMM:  11    -0.134671334335E+03    0.10712E+01   -0.28612E+00  1032   0.669E+00    0.532E+00
RMM:  12    -0.134349817837E+03    0.32152E+00   -0.48181E-01  1019   0.243E+00    0.362E+00
RMM:  13    -0.134342383718E+03    0.74341E-02   -0.80628E-01  1024   0.315E+00    0.284E+00
RMM:  14    -0.134279909254E+03    0.62474E-01   -0.25987E-01  1036   0.169E+00    0.246E+00
RMM:  15    -0.134199801126E+03    0.80108E-01   -0.19751E-01  1021   0.144E+00    0.152E+00
RMM:  16    -0.134173192032E+03    0.26609E-01   -0.58728E-02  1029   0.870E-01    0.102E+00
RMM:  17    -0.134162919421E+03    0.10273E-01   -0.16696E-02  1029   0.435E-01    0.845E-01
RMM:  18    -0.134153201246E+03    0.97182E-02   -0.87687E-03  1027   0.293E-01    0.518E-01
RMM:  19    -0.134149798946E+03    0.34023E-02   -0.67602E-03  1036   0.215E-01    0.328E-01
RMM:  20    -0.134148868142E+03    0.93080E-03   -0.20909E-03  1056   0.118E-01    0.243E-01
RMM:  21    -0.134148298688E+03    0.56945E-03   -0.16633E-03  1025   0.102E-01    0.136E-01
RMM:  22    -0.134148364021E+03   -0.65333E-04   -0.11807E-03  1031   0.851E-02    0.797E-02
RMM:  23    -0.134148595295E+03   -0.23127E-03   -0.29952E-04  1086   0.380E-02    0.633E-02
RMM:  24    -0.134149037745E+03   -0.44245E-03   -0.14651E-04  1003   0.265E-02    0.360E-02
RMM:  25    -0.134149546703E+03   -0.50896E-03   -0.14826E-04   966   0.261E-02    0.266E-02
RMM:  26    -0.134149851646E+03   -0.30494E-03   -0.46143E-05   663   0.139E-02    0.193E-02
RMM:  27    -0.134149988145E+03   -0.13650E-03   -0.21963E-05   622   0.162E-02    0.182E-02
RMM:  28    -0.134150144157E+03   -0.15601E-03   -0.18467E-05   613   0.142E-02    0.153E-02
RMM:  29    -0.134150155482E+03   -0.11325E-04   -0.73742E-06   583   0.105E-02    0.125E-02
RMM:  30    -0.134150172095E+03   -0.16613E-04   -0.56704E-06   585   0.716E-03    0.778E-03
RMM:  31    -0.134150257364E+03   -0.85269E-04   -0.42839E-06   572   0.667E-03    0.608E-03
RMM:  32    -0.134150264488E+03   -0.71241E-05   -0.19700E-06   562   0.555E-03
   1 F= -.13415026E+03 E0= -.13414852E+03  d E =-.134150E+03
quench:  g(F)=  0.000E+00 g(S)=  0.000E+00 dE (1.order)= 0.000E+00
 bond charge predicted
       N       E                     dE             d eps       ncg     rms          rms(c)
DAV:   1    -0.134150496364E+03   -0.23900E-03   -0.15691E-02  1035   0.246E-01    0.296E-02
RMM:   2    -0.134150553527E+03   -0.57163E-04   -0.62799E-04  1259   0.566E-02    0.184E-02
RMM:   3    -0.134150551696E+03    0.18308E-05   -0.29184E-05   638   0.162E-02
   2 F= -.13415055E+03 E0= -.13414874E+03  d E =-.287208E-03
quench:  g(F)=  0.000E+00 g(S)=  0.000E+00 dE (1.order)= 0.000E+00
 bond charge predicted
       N       E                     dE             d eps       ncg     rms          rms(c)
DAV:   1    -0.134150869532E+03   -0.31601E-03   -0.55044E-02  1062   0.478E-01    0.575E-02
RMM:   2    -0.134151071001E+03   -0.20147E-03   -0.22832E-03  1331   0.105E-01    0.289E-02
RMM:   3    -0.134151049962E+03    0.21039E-04   -0.13438E-04   947   0.329E-02    0.304E-02
RMM:   4    -0.134151043864E+03    0.60972E-05   -0.29048E-05   622   0.214E-02
   3 F= -.13415104E+03 E0= -.13414935E+03  d E =-.492169E-03
quench:  g(F)=  0.000E+00 g(S)=  0.000E+00 dE (1.order)= 0.000E+00
 bond charge predicted
       N       E                     dE             d eps       ncg     rms          rms(c)
DAV:   1    -0.134151407072E+03   -0.35711E-03   -0.11790E-01  1044   0.692E-01    0.845E-02
RMM:   2    -0.134151858766E+03   -0.45169E-03   -0.48465E-03  1404   0.152E-01    0.527E-02
RMM:   3    -0.134151858442E+03    0.32396E-06   -0.30732E-04  1138   0.409E-02    0.760E-02
RMM:   4    -0.134151677422E+03    0.18102E-03   -0.64031E-05   861   0.290E-02    0.247E-02
RMM:   5    -0.134151766588E+03   -0.89165E-04   -0.24493E-05   610   0.196E-02    0.169E-02
RMM:   6    -0.134151773110E+03   -0.65224E-05   -0.23999E-05   581   0.220E-02
   4 F= -.13415177E+03 E0= -.13415003E+03  d E =-.729246E-03
quench:  g(F)=  0.000E+00 g(S)=  0.000E+00 dE (1.order)= 0.000E+00
 bond charge predicted
       N       E                     dE             d eps       ncg     rms          rms(c)
DAV:   1    -0.134151978983E+03   -0.21240E-03   -0.19282E-01  1008   0.830E-01    0.107E-01
RMM:   2    -0.134152645306E+03   -0.66632E-03   -0.75291E-03  1281   0.191E-01    0.646E-02
RMM:   3    -0.134152649033E+03   -0.37268E-05   -0.60189E-04  1200   0.518E-02    0.831E-02
RMM:   4    -0.134152465861E+03    0.18317E-03   -0.12627E-04  1008   0.339E-02    0.383E-02
RMM:   5    -0.134152542015E+03   -0.76154E-04   -0.60523E-05   831   0.309E-02    0.319E-02
RMM:   6    -0.134152539817E+03    0.21979E-05   -0.43879E-05   704   0.279E-02
   5 F= -.13415254E+03 E0= -.13415085E+03  d E =-.766707E-03
quench:  g(F)=  0.000E+00 g(S)=  0.000E+00 dE (1.order)= 0.000E+00
 bond charge predicted
       N       E                     dE             d eps       ncg     rms          rms(c)
DAV:   1    -0.134152535033E+03    0.69819E-05   -0.12778E-01  1008   0.620E-01    0.112E-01
RMM:   2    -0.134153059332E+03   -0.52430E-03   -0.66922E-03  1429   0.145E-01    0.826E-02
RMM:   3    -0.134152930123E+03    0.12921E-03   -0.37341E-04  1087   0.449E-02    0.505E-02
RMM:   4    -0.134152954953E+03   -0.24829E-04   -0.17507E-04   999   0.487E-02    0.518E-02
RMM:   5    -0.134152929194E+03    0.25759E-04   -0.88447E-05   899   0.397E-02    0.252E-02
RMM:   6    -0.134152930648E+03   -0.14543E-05   -0.29758E-05   628   0.205E-02
   6 F= -.13415293E+03 E0= -.13415121E+03  d E =-.390831E-03
quench:  g(F)=  0.000E+00 g(S)=  0.000E+00 dE (1.order)= 0.000E+00
 bond charge predicted
       N       E                     dE             d eps       ncg     rms          rms(c)
DAV:   1    -0.134153322845E+03   -0.39365E-03   -0.54501E-02  1044   0.389E-01    0.785E-02
RMM:   2    -0.134153521488E+03   -0.19864E-03   -0.25453E-03  1374   0.875E-02    0.512E-02
RMM:   3    -0.134153484397E+03    0.37091E-04   -0.20076E-04   903   0.304E-02    0.359E-02
RMM:   4    -0.134153493945E+03   -0.95474E-05   -0.73453E-05   863   0.325E-02
   7 F= -.13415349E+03 E0= -.13415188E+03  d E =-.563297E-03
quench:  g(F)=  0.000E+00 g(S)=  0.000E+00 dE (1.order)= 0.000E+00
 bond charge predicted
       N       E                     dE             d eps       ncg     rms          rms(c)
DAV:   1    -0.134153736020E+03   -0.25162E-03   -0.31450E-02  1215   0.410E-01    0.459E-02
RMM:   2    -0.134153928632E+03   -0.19261E-03   -0.14263E-03  1241   0.827E-02    0.521E-02
RMM:   3    -0.134153853155E+03    0.75477E-04   -0.13614E-04  1034   0.348E-02    0.388E-02
RMM:   4    -0.134153832180E+03    0.20975E-04   -0.22105E-05   597   0.174E-02    0.160E-02
RMM:   5    -0.134153834239E+03   -0.20592E-05   -0.11850E-05   543   0.161E-02
   8 F= -.13415383E+03 E0= -.13415207E+03  d E =-.340294E-03
quench:  g(F)=  0.000E+00 g(S)=  0.000E+00 dE (1.order)= 0.000E+00
 bond charge predicted
       N       E                     dE             d eps       ncg     rms          rms(c)
DAV:   1    -0.134154192075E+03   -0.35990E-03   -0.78375E-02  1008   0.545E-01    0.672E-02
RMM:   2    -0.134154446945E+03   -0.25487E-03   -0.29140E-03  1293   0.123E-01    0.341E-02
RMM:   3    -0.134154447720E+03   -0.77468E-06   -0.21171E-04  1043   0.347E-02    0.471E-02
RMM:   4    -0.134154415755E+03    0.31965E-04   -0.37882E-05   654   0.212E-02    0.214E-02
RMM:   5    -0.134154420546E+03   -0.47910E-05   -0.22420E-05   575   0.213E-02
   9 F= -.13415442E+03 E0= -.13415266E+03  d E =-.586307E-03
quench:  g(F)=  0.000E+00 g(S)=  0.000E+00 dE (1.order)= 0.000E+00
 bond charge predicted
       N       E                     dE             d eps       ncg     rms          rms(c)
DAV:   1    -0.134154654101E+03   -0.23835E-03   -0.13825E-01  1008   0.728E-01    0.936E-02
RMM:   2    -0.134155173396E+03   -0.51930E-03   -0.60174E-03  1364   0.164E-01    0.564E-02
RMM:   3    -0.134155105964E+03    0.67432E-04   -0.31198E-04  1088   0.520E-02    0.519E-02
RMM:   4    -0.134155085847E+03    0.20117E-04   -0.73975E-05   888   0.318E-02    0.354E-02
RMM:   5    -0.134155084715E+03    0.11315E-05   -0.25434E-05   622   0.188E-02
  10 F= -.13415508E+03 E0= -.13415329E+03  d E =-.664170E-03
quench:  g(F)=  0.000E+00 g(S)=  0.000E+00 dE (1.order)= 0.000E+00
 bond charge predicted
       N       E                     dE             d eps       ncg     rms          rms(c)
DAV:   1    -0.134155114122E+03   -0.28275E-04   -0.12553E-01  1008   0.616E-01    0.104E-01
RMM:   2    -0.134155586825E+03   -0.47270E-03   -0.57145E-03  1400   0.141E-01    0.685E-02
RMM:   3    -0.134155553899E+03    0.32926E-04   -0.39641E-04  1119   0.460E-02    0.665E-02
RMM:   4    -0.134155516320E+03    0.37579E-04   -0.12124E-04  1003   0.350E-02    0.513E-02
RMM:   5    -0.134155476731E+03    0.39589E-04   -0.50088E-05   708   0.237E-02    0.264E-02
RMM:   6    -0.134155472525E+03    0.42058E-05   -0.45113E-05   753   0.299E-02
  11 F= -.13415547E+03 E0= -.13415377E+03  d E =-.387810E-03
quench:  g(F)=  0.000E+00 g(S)=  0.000E+00 dE (1.order)= 0.000E+00
 bond charge predicted
       N       E                     dE             d eps       ncg     rms          rms(c)
DAV:   1    -0.134155827539E+03   -0.35081E-03   -0.54347E-02  1035   0.400E-01    0.772E-02
RMM:   2    -0.134156047978E+03   -0.22044E-03   -0.28514E-03  1407   0.940E-02    0.544E-02
RMM:   3    -0.134155995558E+03    0.52420E-04   -0.15871E-04   866   0.296E-02    0.331E-02
RMM:   4    -0.134156021656E+03   -0.26098E-04   -0.81992E-05   868   0.339E-02    0.400E-02
RMM:   5    -0.134155997338E+03    0.24317E-04   -0.34258E-05   664   0.263E-02    0.180E-02
RMM:   6    -0.134155995394E+03    0.19441E-05   -0.15988E-05   569   0.167E-02
  12 F= -.13415600E+03 E0= -.13415425E+03  d E =-.522869E-03
quench:  g(F)=  0.000E+00 g(S)=  0.000E+00 dE (1.order)= 0.000E+00
 bond charge predicted
       N       E                     dE             d eps       ncg     rms          rms(c)
DAV:   1    -0.134156274252E+03   -0.27691E-03   -0.34879E-02  1008   0.355E-01    0.476E-02
RMM:   2    -0.134156396754E+03   -0.12250E-03   -0.14164E-03  1356   0.783E-02    0.269E-02
RMM:   3    -0.134156384624E+03    0.12130E-04   -0.92256E-05   796   0.268E-02    0.285E-02
RMM:   4    -0.134156379453E+03    0.51704E-05   -0.27118E-05   616   0.221E-02
  13 F= -.13415638E+03 E0= -.13415469E+03  d E =-.384059E-03
quench:  g(F)=  0.000E+00 g(S)=  0.000E+00 dE (1.order)= 0.000E+00
 bond charge predicted
       N       E                     dE             d eps       ncg     rms          rms(c)
DAV:   1    -0.134156673372E+03   -0.28875E-03   -0.72091E-02  1008   0.541E-01    0.676E-02
RMM:   2    -0.134156971093E+03   -0.29772E-03   -0.31534E-03  1425   0.117E-01    0.428E-02
RMM:   3    -0.134156973876E+03   -0.27826E-05   -0.19883E-04  1094   0.336E-02    0.630E-02
RMM:   4    -0.134156893599E+03    0.80277E-04   -0.41526E-05   676   0.235E-02    0.194E-02
RMM:   5    -0.134156903474E+03   -0.98750E-05   -0.13685E-05   563   0.154E-02
  14 F= -.13415690E+03 E0= -.13415514E+03  d E =-.524021E-03
quench:  g(F)=  0.000E+00 g(S)=  0.000E+00 dE (1.order)= 0.000E+00
 bond charge predicted
       N       E                     dE             d eps       ncg     rms          rms(c)
DAV:   1    -0.134157169666E+03   -0.27607E-03   -0.11945E-01  1008   0.642E-01    0.891E-02
RMM:   2    -0.134157579472E+03   -0.40981E-03   -0.47796E-03  1386   0.142E-01    0.527E-02
RMM:   3    -0.134157578996E+03    0.47593E-06   -0.33525E-04  1112   0.403E-02    0.636E-02
RMM:   4    -0.134157441403E+03    0.13759E-03   -0.70568E-05   774   0.253E-02    0.321E-02
RMM:   5    -0.134157512268E+03   -0.70865E-04   -0.45118E-05   729   0.272E-02    0.253E-02
RMM:   6    -0.134157509409E+03    0.28590E-05   -0.30114E-05   618   0.245E-02
  15 F= -.13415751E+03 E0= -.13415579E+03  d E =-.605935E-03
quench:  g(F)=  0.000E+00 g(S)=  0.000E+00 dE (1.order)= 0.000E+00
 bond charge predicted
       N       E                     dE             d eps       ncg     rms          rms(c)
DAV:   1    -0.134157636838E+03   -0.12457E-03   -0.10172E-01  1008   0.566E-01    0.956E-02
RMM:   2    -0.134158042012E+03   -0.40517E-03   -0.51470E-03  1444   0.131E-01    0.677E-02
RMM:   3    -0.134157945511E+03    0.96502E-04   -0.24822E-04   995   0.318E-02    0.415E-02
RMM:   4    -0.134157982111E+03   -0.36600E-04   -0.95749E-05   923   0.349E-02    0.469E-02
RMM:   5    -0.134157952765E+03    0.29346E-04   -0.46434E-05   748   0.291E-02    0.247E-02
RMM:   6    -0.134157949154E+03    0.36107E-05   -0.30073E-05   631   0.233E-02
  16 F= -.13415795E+03 E0= -.13415620E+03  d E =-.439745E-03
quench:  g(F)=  0.000E+00 g(S)=  0.000E+00 dE (1.order)= 0.000E+00
 bond charge predicted
       N       E                     dE             d eps       ncg     rms          rms(c)
DAV:   1    -0.134158289766E+03   -0.33700E-03   -0.40818E-02  1008   0.341E-01    0.646E-02
RMM:   2    -0.134158442216E+03   -0.15245E-03   -0.19102E-03  1397   0.772E-02    0.425E-02
RMM:   3    -0.134158419944E+03    0.22271E-04   -0.13999E-04   815   0.252E-02    0.336E-02
RMM:   4    -0.134158429827E+03   -0.98825E-05   -0.53712E-05   760   0.283E-02
  17 F= -.13415843E+03 E0= -.13415682E+03  d E =-.480673E-03
quench:  g(F)=  0.000E+00 g(S)=  0.000E+00 dE (1.order)= 0.000E+00
 bond charge predicted
       N       E                     dE             d eps       ncg     rms          rms(c)
DAV:   1    -0.134158706132E+03   -0.28619E-03   -0.44896E-02  1152   0.465E-01    0.525E-02
RMM:   2    -0.134158892509E+03   -0.18638E-03   -0.19514E-03  1378   0.906E-02    0.290E-02
RMM:   3    -0.134158899655E+03   -0.71461E-05   -0.12105E-04  1025   0.284E-02    0.495E-02
RMM:   4    -0.134158846154E+03    0.53501E-04   -0.25633E-05   610   0.203E-02    0.149E-02
RMM:   5    -0.134158851571E+03   -0.54172E-05   -0.11196E-05   550   0.143E-02
  18 F= -.13415885E+03 E0= -.13415709E+03  d E =-.421745E-03
quench:  g(F)=  0.000E+00 g(S)=  0.000E+00 dE (1.order)= 0.000E+00
 bond charge predicted
       N       E                     dE             d eps       ncg     rms          rms(c)
DAV:   1    -0.134159232168E+03   -0.38601E-03   -0.10369E-01  1008   0.616E-01    0.793E-02
RMM:   2    -0.134159573831E+03   -0.34166E-03   -0.39508E-03  1328   0.138E-01    0.379E-02
RMM:   3    -0.134159558873E+03    0.14958E-04   -0.24978E-04  1087   0.380E-02    0.479E-02
RMM:   4    -0.134159531415E+03    0.27459E-04   -0.46236E-05   677   0.227E-02    0.261E-02
RMM:   5    -0.134159535248E+03   -0.38330E-05   -0.26401E-05   586   0.230E-02
  19 F= -.13415954E+03 E0= -.13415779E+03  d E =-.683676E-03
quench:  g(F)=  0.000E+00 g(S)=  0.000E+00 dE (1.order)= 0.000E+00
 bond charge predicted
       N       E                     dE             d eps       ncg     rms          rms(c)
DAV:   1    -0.134159694155E+03   -0.16274E-03   -0.16309E-01  1008   0.777E-01    0.106E-01
RMM:   2    -0.134160311658E+03   -0.61750E-03   -0.74085E-03  1401   0.175E-01    0.613E-02
RMM:   3    -0.134160199734E+03    0.11192E-03   -0.32289E-04  1109   0.449E-02    0.424E-02
RMM:   4    -0.134160229486E+03   -0.29752E-04   -0.92303E-05   921   0.350E-02    0.441E-02
RMM:   5    -0.134160214873E+03    0.14613E-04   -0.35751E-05   650   0.250E-02    0.285E-02
RMM:   6    -0.134160211212E+03    0.36609E-05   -0.26659E-05   624   0.215E-02
  20 F= -.13416021E+03 E0= -.13415845E+03  d E =-.675965E-03
quench:  g(F)=  0.000E+00 g(S)=  0.000E+00 dE (1.order)= 0.000E+00
 bond charge predicted
       N       E                     dE             d eps       ncg     rms          rms(c)
DAV:   1    -0.134160394782E+03   -0.17991E-03   -0.10830E-01  1008   0.535E-01    0.104E-01
RMM:   2    -0.134160779002E+03   -0.38422E-03   -0.48640E-03  1462   0.119E-01    0.686E-02
RMM:   3    -0.134160732638E+03    0.46364E-04   -0.36288E-04  1084   0.399E-02    0.591E-02
RMM:   4    -0.134160737570E+03   -0.49320E-05   -0.13439E-04  1008   0.401E-02    0.579E-02
RMM:   5    -0.134160674456E+03    0.63113E-04   -0.44524E-05   664   0.237E-02    0.194E-02
RMM:   6    -0.134160673679E+03    0.77733E-06   -0.28921E-05   605   0.238E-02
  21 F= -.13416067E+03 E0= -.13415896E+03  d E =-.462466E-03
quench:  g(F)=  0.000E+00 g(S)=  0.000E+00 dE (1.order)= 0.000E+00
 bond charge predicted
       N       E                     dE             d eps       ncg     rms          rms(c)
DAV:   1    -0.134161010906E+03   -0.33645E-03   -0.46757E-02  1026   0.383E-01    0.693E-02
RMM:   2    -0.134161203022E+03   -0.19212E-03   -0.24502E-03  1402   0.889E-02    0.488E-02
RMM:   3    -0.134161157615E+03    0.45407E-04   -0.12697E-04   844   0.294E-02    0.299E-02
RMM:   4    -0.134161169495E+03   -0.11880E-04   -0.60049E-05   816   0.313E-02    0.310E-02
RMM:   5    -0.134161163876E+03    0.56192E-05   -0.27446E-05   617   0.224E-02
  22 F= -.13416116E+03 E0= -.13415947E+03  d E =-.490197E-03
quench:  g(F)=  0.000E+00 g(S)=  0.000E+00 dE (1.order)= 0.000E+00
 bond charge predicted
       N       E                     dE             d eps       ncg     rms          rms(c)
DAV:   1    -0.134161490906E+03   -0.32141E-03   -0.48228E-02  1008   0.429E-01    0.567E-02
RMM:   2    -0.134161685022E+03   -0.19412E-03   -0.20108E-03  1424   0.907E-02    0.380E-02
RMM:   3    -0.134161693408E+03   -0.83862E-05   -0.16730E-04  1026   0.324E-02    0.552E-02
RMM:   4    -0.134161632383E+03    0.61026E-04   -0.33043E-05   627   0.232E-02    0.161E-02
RMM:   5    -0.134161636901E+03   -0.45185E-05   -0.15401E-05   550   0.180E-02
  23 F= -.13416164E+03 E0= -.13415992E+03  d E =-.473025E-03
quench:  g(F)=  0.000E+00 g(S)=  0.000E+00 dE (1.order)= 0.000E+00
 bond charge predicted
       N       E                     dE             d eps       ncg     rms          rms(c)
DAV:   1    -0.134161975996E+03   -0.34361E-03   -0.10010E-01  1008   0.610E-01    0.801E-02
RMM:   2    -0.134162345221E+03   -0.36923E-03   -0.43480E-03  1409   0.136E-01    0.402E-02
RMM:   3    -0.134162277334E+03    0.67887E-04   -0.16241E-04   944   0.284E-02    0.258E-02
RMM:   4    -0.134162286715E+03   -0.93809E-05   -0.36347E-05   663   0.244E-02
  24 F= -.13416229E+03 E0= -.13416057E+03  d E =-.649814E-03
quench:  g(F)=  0.000E+00 g(S)=  0.000E+00 dE (1.order)= 0.000E+00
 bond charge predicted
       N       E                     dE             d eps       ncg     rms          rms(c)
DAV:   1    -0.134162465585E+03   -0.18825E-03   -0.13891E-01  1008   0.681E-01    0.103E-01
RMM:   2    -0.134162937526E+03   -0.47194E-03   -0.59534E-03  1400   0.151E-01    0.750E-02
RMM:   3    -0.134162952484E+03   -0.14958E-04   -0.48588E-04  1094   0.514E-02    0.931E-02
RMM:   4    -0.134162792994E+03    0.15949E-03   -0.12144E-04  1004   0.375E-02    0.348E-02
RMM:   5    -0.134162801365E+03   -0.83707E-05   -0.57134E-05   798   0.293E-02
  25 F= -.13416280E+03 E0= -.13416107E+03  d E =-.514650E-03
quench:  g(F)=  0.000E+00 g(S)=  0.000E+00 dE (1.order)= 0.000E+00
 bond charge predicted
       N       E                     dE             d eps       ncg     rms          rms(c)
DAV:   1    -0.134163054356E+03   -0.26136E-03   -0.86935E-02  1044   0.537E-01    0.939E-02
RMM:   2    -0.134163393100E+03   -0.33874E-03   -0.44169E-03  1406   0.120E-01    0.641E-02
RMM:   3    -0.134163403461E+03   -0.10360E-04   -0.23883E-04  1025   0.376E-02    0.453E-02
RMM:   4    -0.134163430785E+03   -0.27324E-04   -0.86847E-05   977   0.299E-02    0.535E-02
RMM:   5    -0.134163383377E+03    0.47408E-04   -0.39890E-05   657   0.235E-02    0.203E-02
RMM:   6    -0.134163383562E+03   -0.18538E-06   -0.38171E-05   698   0.286E-02
  26 F= -.13416338E+03 E0= -.13416162E+03  d E =-.582198E-03
quench:  g(F)=  0.000E+00 g(S)=  0.000E+00 dE (1.order)= 0.000E+00
 bond charge predicted
       N       E                     dE             d eps       ncg     rms          rms(c)
DAV:   1    -0.134163710749E+03   -0.32737E-03   -0.32351E-02  1026   0.308E-01    0.539E-02
RMM:   2    -0.134163827371E+03   -0.11662E-03   -0.14352E-03  1327   0.716E-02    0.359E-02
RMM:   3    -0.134163817866E+03    0.95050E-05   -0.10803E-04   823   0.271E-02    0.349E-02
RMM:   4    -0.134163811057E+03    0.68091E-05   -0.36518E-05   643   0.244E-02
  27 F= -.13416381E+03 E0= -.13416217E+03  d E =-.427495E-03
quench:  g(F)=  0.000E+00 g(S)=  0.000E+00 dE (1.order)= 0.000E+00
 bond charge predicted
       N       E                     dE             d eps       ncg     rms          rms(c)
DAV:   1    -0.134164153197E+03   -0.33533E-03   -0.56855E-02  1026   0.488E-01    0.607E-02
RMM:   2    -0.134164382256E+03   -0.22906E-03   -0.24445E-03  1390   0.103E-01    0.315E-02
RMM:   3    -0.134164393088E+03   -0.10832E-04   -0.17793E-04  1045   0.334E-02    0.534E-02
RMM:   4    -0.134164259968E+03    0.13312E-03   -0.32814E-05   632   0.230E-02    0.174E-02
RMM:   5    -0.134164264523E+03   -0.45550E-05   -0.15392E-05   555   0.173E-02
  28 F= -.13416426E+03 E0= -.13416253E+03  d E =-.453466E-03
quench:  g(F)=  0.000E+00 g(S)=  0.000E+00 dE (1.order)= 0.000E+00
 bond charge predicted
       N       E                     dE             d eps       ncg     rms          rms(c)
DAV:   1    -0.134164692805E+03   -0.43284E-03   -0.12659E-01  1017   0.670E-01    0.899E-02
RMM:   2    -0.134165099787E+03   -0.40698E-03   -0.48089E-03  1348   0.148E-01    0.395E-02
RMM:   3    -0.134165054087E+03    0.45700E-04   -0.26225E-04  1092   0.383E-02    0.332E-02
RMM:   4    -0.134165057019E+03   -0.29317E-05   -0.50904E-05   732   0.277E-02
  29 F= -.13416506E+03 E0= -.13416340E+03  d E =-.792495E-03
quench:  g(F)=  0.000E+00 g(S)=  0.000E+00 dE (1.order)= 0.000E+00
 bond charge predicted
       N       E                     dE             d eps       ncg     rms          rms(c)
DAV:   1    -0.134165157510E+03   -0.10342E-03   -0.17981E-01  1008   0.806E-01    0.117E-01
RMM:   2    -0.134165968385E+03   -0.81088E-03   -0.83533E-03  1422   0.177E-01    0.911E-02
RMM:   3    -0.134165943274E+03    0.25111E-04   -0.58137E-04  1066   0.696E-02    0.102E-01
RMM:   4    -0.134165699361E+03    0.24391E-03   -0.14103E-04  1015   0.435E-02    0.388E-02
RMM:   5    -0.134165724972E+03   -0.25612E-04   -0.65320E-05   845   0.326E-02    0.342E-02
RMM:   6    -0.134165725147E+03   -0.17518E-06   -0.55763E-05   797   0.331E-02
  30 F= -.13416573E+03 E0= -.13416400E+03  d E =-.668129E-03
quench:  g(F)=  0.000E+00 g(S)=  0.000E+00 dE (1.order)= 0.000E+00
 bond charge predicted
       N       E                     dE             d eps       ncg     rms          rms(c)
DAV:   1    -0.134166062039E+03   -0.33707E-03   -0.93427E-02  1008   0.480E-01    0.101E-01
RMM:   2    -0.134166385771E+03   -0.32373E-03   -0.42854E-03  1469   0.108E-01    0.661E-02
RMM:   3    -0.134166330177E+03    0.55594E-04   -0.31355E-04  1068   0.368E-02    0.485E-02
RMM:   4    -0.134166372460E+03   -0.42283E-04   -0.12418E-04  1006   0.400E-02    0.625E-02
RMM:   5    -0.134166358593E+03    0.13867E-04   -0.44644E-05   674   0.243E-02    0.159E-02
RMM:   6    -0.134166358677E+03   -0.83921E-07   -0.19432E-05   580   0.182E-02
  31 F= -.13416636E+03 E0= -.13416466E+03  d E =-.633530E-03
quench:  g(F)=  0.000E+00 g(S)=  0.000E+00 dE (1.order)= 0.000E+00
 bond charge predicted
       N       E                     dE             d eps       ncg     rms          rms(c)
DAV:   1    -0.134166687096E+03   -0.32850E-03   -0.37252E-02  1053   0.347E-01    0.587E-02
RMM:   2    -0.134166839948E+03   -0.15285E-03   -0.18966E-03  1437   0.795E-02    0.401E-02
RMM:   3    -0.134166808258E+03    0.31690E-04   -0.84454E-05   756   0.222E-02    0.283E-02
RMM:   4    -0.134166823453E+03   -0.15196E-04   -0.42017E-05   719   0.267E-02    0.315E-02
RMM:   5    -0.134166808694E+03    0.14759E-04   -0.17032E-05   578   0.179E-02    0.142E-02
RMM:   6    -0.134166808825E+03   -0.13073E-06   -0.13000E-05   550   0.164E-02
  32 F= -.13416681E+03 E0= -.13416509E+03  d E =-.450148E-03
quench:  g(F)=  0.000E+00 g(S)=  0.000E+00 dE (1.order)= 0.000E+00
 bond charge predicted
       N       E                     dE             d eps       ncg     rms          rms(c)
DAV:   1    -0.134167213203E+03   -0.40451E-03   -0.59628E-02  1008   0.450E-01    0.620E-02
RMM:   2    -0.134167404298E+03   -0.19109E-03   -0.22657E-03  1352   0.985E-02    0.309E-02
RMM:   3    -0.134167396223E+03    0.80746E-05   -0.15381E-04   971   0.340E-02    0.365E-02
RMM:   4    -0.134167382057E+03    0.14166E-04   -0.34897E-05   639   0.232E-02    0.216E-02
RMM:   5    -0.134167381886E+03    0.17050E-06   -0.15952E-05   555   0.174E-02
  33 F= -.13416738E+03 E0= -.13416567E+03  d E =-.573061E-03
quench:  g(F)=  0.000E+00 g(S)=  0.000E+00 dE (1.order)= 0.000E+00
 bond charge predicted
       N       E                     dE             d eps       ncg     rms          rms(c)
DAV:   1    -0.134167764142E+03   -0.38209E-03   -0.12114E-01  1008   0.659E-01    0.901E-02
RMM:   2    -0.134168131095E+03   -0.36695E-03   -0.52470E-03  1400   0.148E-01    0.456E-02
RMM:   3    -0.134168052625E+03    0.78470E-04   -0.20704E-04  1048   0.346E-02    0.295E-02
RMM:   4    -0.134168069387E+03   -0.16762E-04   -0.45528E-05   734   0.269E-02    0.283E-02
RMM:   5    -0.134168071369E+03   -0.19822E-05   -0.26922E-05   604   0.239E-02
  34 F= -.13416807E+03 E0= -.13416630E+03  d E =-.689483E-03
quench:  g(F)=  0.000E+00 g(S)=  0.000E+00 dE (1.order)= 0.000E+00
 bond charge predicted
       N       E                     dE             d eps       ncg     rms          rms(c)
DAV:   1    -0.134168265738E+03   -0.19635E-03   -0.15211E-01  1026   0.676E-01    0.111E-01
RMM:   2    -0.134168783371E+03   -0.51763E-03   -0.65023E-03  1388   0.154E-01    0.643E-02
RMM:   3    -0.134168693534E+03    0.89837E-04   -0.35636E-04  1105   0.455E-02    0.441E-02
RMM:   4    -0.134168717086E+03   -0.23552E-04   -0.11126E-04   980   0.413E-02    0.449E-02
RMM:   5    -0.134168699647E+03    0.17439E-04   -0.60741E-05   821   0.299E-02    0.348E-02
RMM:   6    -0.134168680289E+03    0.19358E-04   -0.19890E-05   622   0.147E-02    0.165E-02
RMM:   7    -0.134168677822E+03    0.24675E-05   -0.10477E-05   551   0.144E-02
  35 F= -.13416868E+03 E0= -.13416700E+03  d E =-.606453E-03
quench:  g(F)=  0.000E+00 g(S)=  0.000E+00 dE (1.order)= 0.000E+00
 bond charge predicted
       N       E                     dE             d eps       ncg     rms          rms(c)
DAV:   1    -0.134169066545E+03   -0.38626E-03   -0.75965E-02  1008   0.458E-01    0.888E-02
RMM:   2    -0.134169348769E+03   -0.28222E-03   -0.37049E-03  1457   0.105E-01    0.609E-02
RMM:   3    -0.134169357581E+03   -0.88114E-05   -0.20786E-04   934   0.324E-02    0.380E-02
RMM:   4    -0.134169380281E+03   -0.22700E-04   -0.97986E-05   947   0.387E-02    0.448E-02
RMM:   5    -0.134169359067E+03    0.21213E-04   -0.41888E-05   693   0.271E-02    0.211E-02
RMM:   6    -0.134169356260E+03    0.28075E-05   -0.21984E-05   592   0.201E-02
  36 F= -.13416936E+03 E0= -.13416760E+03  d E =-.678438E-03
quench:  g(F)=  0.000E+00 g(S)=  0.000E+00 dE (1.order)= 0.000E+00
 bond charge predicted
       N       E                     dE             d eps       ncg     rms          rms(c)
DAV:   1    -0.134169708147E+03   -0.34908E-03   -0.35472E-02  1026   0.335E-01    0.540E-02
RMM:   2    -0.134169836347E+03   -0.12820E-03   -0.15642E-03  1346   0.762E-02    0.331E-02
RMM:   3    -0.134169824741E+03    0.11606E-04   -0.10649E-04   826   0.282E-02    0.322E-02
RMM:   4    -0.134169820295E+03    0.44455E-05   -0.33264E-05   632   0.243E-02
  37 F= -.13416982E+03 E0= -.13416821E+03  d E =-.464035E-03
quench:  g(F)=  0.000E+00 g(S)=  0.000E+00 dE (1.order)= 0.000E+00
 bond charge predicted
       N       E                     dE             d eps       ncg     rms          rms(c)
DAV:   1    -0.134170230154E+03   -0.40541E-03   -0.69264E-02  1008   0.514E-01    0.683E-02
RMM:   2    -0.134170492157E+03   -0.26200E-03   -0.29626E-03  1405   0.111E-01    0.345E-02
RMM:   3    -0.134170502760E+03   -0.10603E-04   -0.19871E-04  1058   0.288E-02    0.554E-02
RMM:   4    -0.134170370085E+03    0.13267E-03   -0.34981E-05   650   0.214E-02    0.193E-02
RMM:   5    -0.134170378903E+03   -0.88178E-05   -0.20512E-05   569   0.202E-02
  38 F= -.13417038E+03 E0= -.13416868E+03  d E =-.558608E-03
quench:  g(F)=  0.000E+00 g(S)=  0.000E+00 dE (1.order)= 0.000E+00
 bond charge predicted
       N       E                     dE             d eps       ncg     rms          rms(c)
DAV:   1    -0.134170851405E+03   -0.48132E-03   -0.13519E-01  1017   0.666E-01    0.966E-02
RMM:   2    -0.134171278092E+03   -0.42669E-03   -0.52347E-03  1389   0.145E-01    0.461E-02
RMM:   3    -0.134171225145E+03    0.52948E-04   -0.27466E-04  1080   0.367E-02    0.338E-02
RMM:   4    -0.134171246746E+03   -0.21602E-04   -0.67348E-05   889   0.320E-02    0.401E-02
RMM:   5    -0.134171234281E+03    0.12465E-04   -0.29573E-05   639   0.203E-02    0.221E-02
RMM:   6    -0.134171228225E+03    0.60559E-05   -0.19300E-05   555   0.204E-02
  39 F= -.13417123E+03 E0= -.13416957E+03  d E =-.849322E-03
quench:  g(F)=  0.000E+00 g(S)=  0.000E+00 dE (1.order)= 0.000E+00
 bond charge predicted
       N       E                     dE             d eps       ncg     rms          rms(c)
DAV:   1    -0.134171375543E+03   -0.14126E-03   -0.15900E-01  1008   0.704E-01    0.113E-01
RMM:   2    -0.134171975322E+03   -0.59978E-03   -0.74995E-03  1439   0.161E-01    0.748E-02
RMM:   3    -0.134171922265E+03    0.53057E-04   -0.35557E-04  1092   0.450E-02    0.496E-02
RMM:   4    -0.134171955380E+03   -0.33115E-04   -0.13611E-04   991   0.444E-02    0.500E-02
RMM:   5    -0.134171944007E+03    0.11374E-04   -0.59877E-05   826   0.321E-02    0.329E-02
RMM:   6    -0.134171930178E+03    0.13829E-04   -0.34334E-05   648   0.242E-02    0.210E-02
RMM:   7    -0.134171923825E+03    0.63531E-05   -0.14309E-05   556   0.183E-02
  40 F= -.13417192E+03 E0= -.13417024E+03  d E =-.695600E-03
quench:  g(F)=  0.000E+00 g(S)=  0.000E+00 dE (1.order)= 0.000E+00
 bond charge predicted
       N       E                     dE             d eps       ncg     rms          rms(c)
DAV:   1    -0.134172430869E+03   -0.50069E-03   -0.60547E-02  1017   0.373E-01    0.825E-02
RMM:   2    -0.134172642739E+03   -0.21187E-03   -0.27708E-03  1408   0.889E-02    0.560E-02
RMM:   3    -0.134172608368E+03    0.34371E-04   -0.21004E-04   993   0.338E-02    0.451E-02
RMM:   4    -0.134172614649E+03   -0.62807E-05   -0.80270E-05   912   0.327E-02
  41 F= -.13417261E+03 E0= -.13417108E+03  d E =-.690824E-03
quench:  g(F)=  0.000E+00 g(S)=  0.000E+00 dE (1.order)= 0.000E+00
 bond charge predicted
       N       E                     dE             d eps       ncg     rms          rms(c)
DAV:   1    -0.134172977618E+03   -0.36925E-03   -0.47231E-02  1197   0.481E-01    0.592E-02
RMM:   2    -0.134173221669E+03   -0.24405E-03   -0.22298E-03  1255   0.974E-02    0.545E-02
RMM:   3    -0.134173164348E+03    0.57321E-04   -0.19307E-04  1042   0.449E-02    0.497E-02
RMM:   4    -0.134173057657E+03    0.10669E-03   -0.35348E-05   644   0.240E-02    0.217E-02
RMM:   5    -0.134173059962E+03   -0.23045E-05   -0.18334E-05   564   0.200E-02
  42 F= -.13417306E+03 E0= -.13417137E+03  d E =-.445313E-03
quench:  g(F)=  0.000E+00 g(S)=  0.000E+00 dE (1.order)= 0.000E+00
 bond charge predicted
       N       E                     dE             d eps       ncg     rms          rms(c)
DAV:   1    -0.134173615196E+03   -0.55754E-03   -0.10746E-01  1017   0.595E-01    0.849E-02
RMM:   2    -0.134173950853E+03   -0.33566E-03   -0.40991E-03  1363   0.131E-01    0.385E-02
RMM:   3    -0.134173914029E+03    0.36824E-04   -0.22557E-04  1023   0.365E-02    0.321E-02
RMM:   4    -0.134173917000E+03   -0.29713E-05   -0.50397E-05   737   0.282E-02
  43 F= -.13417392E+03 E0= -.13417231E+03  d E =-.857038E-03
quench:  g(F)=  0.000E+00 g(S)=  0.000E+00 dE (1.order)= 0.000E+00
 bond charge predicted
       N       E                     dE             d eps       ncg     rms          rms(c)
DAV:   1    -0.134174277371E+03   -0.36334E-03   -0.17644E-01  1008   0.782E-01    0.115E-01
RMM:   2    -0.134175032008E+03   -0.75464E-03   -0.78968E-03  1418   0.173E-01    0.907E-02
RMM:   3    -0.134175009812E+03    0.22196E-04   -0.57803E-04  1062   0.725E-02    0.985E-02
RMM:   4    -0.134174793417E+03    0.21639E-03   -0.13508E-04  1012   0.441E-02    0.368E-02
RMM:   5    -0.134174818683E+03   -0.25266E-04   -0.64164E-05   813   0.325E-02    0.318E-02
RMM:   6    -0.134174820931E+03   -0.22484E-05   -0.46725E-05   722   0.297E-02
  44 F= -.13417482E+03 E0= -.13417317E+03  d E =-.903931E-03
quench:  g(F)=  0.000E+00 g(S)=  0.000E+00 dE (1.order)= 0.000E+00
 bond charge predicted
       N       E                     dE             d eps       ncg     rms          rms(c)
DAV:   1    -0.134175144771E+03   -0.32609E-03   -0.13600E-01  1008   0.582E-01    0.116E-01
RMM:   2    -0.134175584841E+03   -0.44007E-03   -0.59041E-03  1470   0.129E-01    0.734E-02
RMM:   3    -0.134175496087E+03    0.88755E-04   -0.41641E-04  1125   0.388E-02    0.501E-02
RMM:   4    -0.134175550089E+03   -0.54002E-04   -0.13533E-04  1011   0.419E-02    0.668E-02
RMM:   5    -0.134175465129E+03    0.84960E-04   -0.60164E-05   816   0.289E-02    0.213E-02
RMM:   6    -0.134175462892E+03    0.22371E-05   -0.24122E-05   605   0.197E-02
  45 F= -.13417546E+03 E0= -.13417385E+03  d E =-.641961E-03
quench:  g(F)=  0.000E+00 g(S)=  0.000E+00 dE (1.order)= 0.000E+00
 bond charge predicted
       N       E                     dE             d eps       ncg     rms          rms(c)
DAV:   1    -0.134175933193E+03   -0.46806E-03   -0.59270E-02  1008   0.416E-01    0.779E-02
RMM:   2    -0.134176168206E+03   -0.23501E-03   -0.30167E-03  1448   0.960E-02    0.543E-02
RMM:   3    -0.134176113201E+03    0.55005E-04   -0.16073E-04   910   0.323E-02    0.340E-02
RMM:   4    -0.134176123602E+03   -0.10401E-04   -0.83653E-05   884   0.364E-02    0.325E-02
RMM:   5    -0.134176113878E+03    0.97244E-05   -0.41622E-05   702   0.288E-02
  46 F= -.13417611E+03 E0= -.13417446E+03  d E =-.650986E-03
quench:  g(F)=  0.000E+00 g(S)=  0.000E+00 dE (1.order)= 0.000E+00
 bond charge predicted
       N       E                     dE             d eps       ncg     rms          rms(c)
DAV:   1    -0.134176602521E+03   -0.47892E-03   -0.56155E-02  1008   0.427E-01    0.630E-02
RMM:   2    -0.134176800197E+03   -0.19768E-03   -0.22465E-03  1455   0.903E-02    0.354E-02
RMM:   3    -0.134176822346E+03   -0.22150E-04   -0.16334E-04  1023   0.280E-02    0.574E-02
RMM:   4    -0.134176754258E+03    0.68089E-04   -0.35437E-05   645   0.211E-02    0.197E-02
RMM:   5    -0.134176760758E+03   -0.65004E-05   -0.24002E-05   593   0.212E-02
  47 F= -.13417676E+03 E0= -.13417516E+03  d E =-.646880E-03
quench:  g(F)=  0.000E+00 g(S)=  0.000E+00 dE (1.order)= 0.000E+00
 bond charge predicted
       N       E                     dE             d eps       ncg     rms          rms(c)
DAV:   1    -0.134177313757E+03   -0.55950E-03   -0.11980E-01  1008   0.636E-01    0.893E-02
RMM:   2    -0.134177724070E+03   -0.41031E-03   -0.49870E-03  1438   0.138E-01    0.439E-02
RMM:   3    -0.134177671913E+03    0.52157E-04   -0.19526E-04   993   0.282E-02    0.390E-02
RMM:   4    -0.134177670719E+03    0.11937E-05   -0.46646E-05   719   0.242E-02
  48 F= -.13417767E+03 E0= -.13417614E+03  d E =-.909961E-03
quench:  g(F)=  0.000E+00 g(S)=  0.000E+00 dE (1.order)= 0.000E+00
 bond charge predicted
       N       E                     dE             d eps       ncg     rms          rms(c)
DAV:   1    -0.134178079972E+03   -0.40806E-03   -0.17086E-01  1008   0.718E-01    0.116E-01
RMM:   2    -0.134178629195E+03   -0.54922E-03   -0.70095E-03  1372   0.161E-01    0.657E-02
RMM:   3    -0.134178552223E+03    0.76972E-04   -0.46488E-04  1088   0.568E-02    0.559E-02
RMM:   4    -0.134178544834E+03    0.73896E-05   -0.13584E-04   985   0.473E-02    0.401E-02
RMM:   5    -0.134178542122E+03    0.27116E-05   -0.49565E-05   749   0.290E-02
  49 F= -.13417854E+03 E0= -.13417696E+03  d E =-.871403E-03
quench:  g(F)=  0.000E+00 g(S)=  0.000E+00 dE (1.order)= 0.000E+00
 bond charge predicted
       N       E                     dE             d eps       ncg     rms          rms(c)
DAV:   1    -0.134178888300E+03   -0.34347E-03   -0.11437E-01  1008   0.570E-01    0.106E-01
RMM:   2    -0.134179347759E+03   -0.45946E-03   -0.56233E-03  1475   0.130E-01    0.793E-02
RMM:   3    -0.134179364613E+03   -0.16854E-04   -0.34602E-04  1093   0.448E-02    0.758E-02
RMM:   4    -0.134179304997E+03    0.59616E-04   -0.12299E-04  1001   0.342E-02    0.431E-02
RMM:   5    -0.134179292625E+03    0.12372E-04   -0.44157E-05   661   0.248E-02    0.229E-02
RMM:   6    -0.134179291264E+03    0.13617E-05   -0.43235E-05   762   0.303E-02
  50 F= -.13417929E+03 E0= -.13417769E+03  d E =-.749142E-03
quench:  g(F)=  0.000E+00 g(S)=  0.000E+00 dE (1.order)= 0.000E+00
 bond charge predicted
       N       E                     dE             d eps       ncg     rms          rms(c)
DAV:   1    -0.134179780897E+03   -0.48827E-03   -0.45354E-02  1026   0.345E-01    0.668E-02
RMM:   2    -0.134179933146E+03   -0.15225E-03   -0.19888E-03  1388   0.783E-02    0.421E-02
RMM:   3    -0.134179899322E+03    0.33823E-04   -0.12419E-04   793   0.230E-02    0.266E-02
RMM:   4    -0.134179901409E+03   -0.20865E-05   -0.43353E-05   733   0.282E-02
  51 F= -.13417990E+03 E0= -.13417832E+03  d E =-.610145E-03
quench:  g(F)=  0.000E+00 g(S)=  0.000E+00 dE (1.order)= 0.000E+00
 bond charge predicted
       N       E                     dE             d eps       ncg     rms          rms(c)
DAV:   1    -0.134180424639E+03   -0.52532E-03   -0.70569E-02  1026   0.521E-01    0.682E-02
RMM:   2    -0.134180692557E+03   -0.26792E-03   -0.29635E-03  1418   0.109E-01    0.400E-02
RMM:   3    -0.134180709352E+03   -0.16796E-04   -0.21798E-04  1067   0.333E-02    0.607E-02
RMM:   4    -0.134180634020E+03    0.75332E-04   -0.41848E-05   665   0.225E-02    0.181E-02
RMM:   5    -0.134180644835E+03   -0.10814E-04   -0.20042E-05   563   0.189E-02    0.159E-02
RMM:   6    -0.134180646800E+03   -0.19653E-05   -0.13731E-05   564   0.167E-02
  52 F= -.13418065E+03 E0= -.13417905E+03  d E =-.745391E-03
quench:  g(F)=  0.000E+00 g(S)=  0.000E+00 dE (1.order)= 0.000E+00
 bond charge predicted
       N       E                     dE             d eps       ncg     rms          rms(c)
DAV:   1    -0.134181320971E+03   -0.67614E-03   -0.15531E-01  1008   0.695E-01    0.101E-01
RMM:   2    -0.134181730336E+03   -0.40937E-03   -0.57470E-03  1386   0.147E-01    0.498E-02
RMM:   3    -0.134181717423E+03    0.12913E-04   -0.36522E-04  1064   0.524E-02    0.625E-02
RMM:   4    -0.134181666430E+03    0.50993E-04   -0.93260E-05   934   0.362E-02    0.331E-02
RMM:   5    -0.134181673050E+03   -0.66196E-05   -0.35512E-05   650   0.206E-02
  53 F= -.13418167E+03 E0= -.13418009E+03  d E =-.102625E-02
quench:  g(F)=  0.000E+00 g(S)=  0.000E+00 dE (1.order)= 0.000E+00
 bond charge predicted
       N       E                     dE             d eps       ncg     rms          rms(c)
DAV:   1    -0.134181964182E+03   -0.29775E-03   -0.22153E-01  1008   0.838E-01    0.127E-01
RMM:   2    -0.134182745471E+03   -0.78129E-03   -0.97338E-03  1454   0.187E-01    0.744E-02
RMM:   3    -0.134182666924E+03    0.78547E-04   -0.42475E-04  1146   0.448E-02    0.462E-02
RMM:   4    -0.134182691822E+03   -0.24898E-04   -0.98261E-05   977   0.376E-02    0.405E-02
RMM:   5    -0.134182690164E+03    0.16578E-05   -0.74997E-05   912   0.382E-02
  54 F= -.13418269E+03 E0= -.13418111E+03  d E =-.101711E-02
quench:  g(F)=  0.000E+00 g(S)=  0.000E+00 dE (1.order)= 0.000E+00
 bond charge predicted
       N       E                     dE             d eps       ncg     rms          rms(c)
DAV:   1    -0.134183209194E+03   -0.51737E-03   -0.11250E-01  1017   0.515E-01    0.113E-01
RMM:   2    -0.134183590641E+03   -0.38145E-03   -0.51007E-03  1444   0.118E-01    0.744E-02
RMM:   3    -0.134183461595E+03    0.12905E-03   -0.38609E-04  1155   0.359E-02    0.662E-02
RMM:   4    -0.134183466538E+03   -0.49422E-05   -0.14430E-04  1016   0.341E-02    0.565E-02
RMM:   5    -0.134183405628E+03    0.60910E-04   -0.58684E-05   849   0.296E-02    0.232E-02
RMM:   6    -0.134183397087E+03    0.85410E-05   -0.30683E-05   628   0.237E-02
  55 F= -.13418340E+03 E0= -.13418184E+03  d E =-.706922E-03
quench:  g(F)=  0.000E+00 g(S)=  0.000E+00 dE (1.order)= 0.000E+00
 bond charge predicted
       N       E                     dE             d eps       ncg     rms          rms(c)
DAV:   1    -0.134183843795E+03   -0.43817E-03   -0.42695E-02  1035   0.361E-01    0.618E-02
RMM:   2    -0.134184013722E+03   -0.16993E-03   -0.20979E-03  1445   0.836E-02    0.422E-02
RMM:   3    -0.134183979024E+03    0.34697E-04   -0.10134E-04   805   0.260E-02    0.292E-02
RMM:   4    -0.134183995655E+03   -0.16630E-04   -0.45536E-05   742   0.280E-02    0.321E-02
RMM:   5    -0.134183980639E+03    0.15015E-04   -0.18165E-05   593   0.177E-02    0.183E-02
RMM:   6    -0.134183979036E+03    0.16035E-05   -0.11532E-05   552   0.145E-02
  56 F= -.13418398E+03 E0= -.13418244E+03  d E =-.581949E-03
quench:  g(F)=  0.000E+00 g(S)=  0.000E+00 dE (1.order)= 0.000E+00
 bond charge predicted
       N       E                     dE             d eps       ncg     rms          rms(c)
DAV:   1    -0.134184564763E+03   -0.58412E-03   -0.73497E-02  1008   0.474E-01    0.698E-02
RMM:   2    -0.134184793595E+03   -0.22883E-03   -0.27370E-03  1425   0.990E-02    0.341E-02
RMM:   3    -0.134184780287E+03    0.13307E-04   -0.16879E-04   965   0.342E-02    0.387E-02
RMM:   4    -0.134184761532E+03    0.18755E-04   -0.43446E-05   681   0.269E-02    0.249E-02
RMM:   5    -0.134184762542E+03   -0.10099E-05   -0.16037E-05   594   0.144E-02
  57 F= -.13418476E+03 E0= -.13418322E+03  d E =-.783507E-03
quench:  g(F)=  0.000E+00 g(S)=  0.000E+00 dE (1.order)= 0.000E+00
 bond charge predicted
       N       E                     dE             d eps       ncg     rms          rms(c)
DAV:   1    -0.134185374931E+03   -0.61340E-03   -0.15228E-01  1008   0.699E-01    0.100E-01
RMM:   2    -0.134185879338E+03   -0.50441E-03   -0.61251E-03  1439   0.152E-01    0.489E-02
RMM:   3    -0.134185792650E+03    0.86688E-04   -0.23704E-04  1033   0.334E-02    0.300E-02
RMM:   4    -0.134185813599E+03   -0.20949E-04   -0.42069E-05   697   0.250E-02    0.251E-02
RMM:   5    -0.134185824259E+03   -0.10660E-04   -0.33288E-05   641   0.269E-02    0.248E-02
RMM:   6    -0.134185818352E+03    0.59067E-05   -0.12838E-05   580   0.141E-02
  58 F= -.13418582E+03 E0= -.13418432E+03  d E =-.105581E-02
quench:  g(F)=  0.000E+00 g(S)=  0.000E+00 dE (1.order)= 0.000E+00
 bond charge predicted
       N       E                     dE             d eps       ncg     rms          rms(c)
DAV:   1    -0.134186193242E+03   -0.36898E-03   -0.19229E-01  1008   0.714E-01    0.125E-01
RMM:   2    -0.134186783740E+03   -0.59050E-03   -0.77172E-03  1413   0.158E-01    0.749E-02
RMM:   3    -0.134186687484E+03    0.96256E-04   -0.47630E-04  1127   0.462E-02    0.570E-02
RMM:   4    -0.134186732231E+03   -0.44747E-04   -0.14623E-04  1020   0.429E-02    0.676E-02
RMM:   5    -0.134186658467E+03    0.73764E-04   -0.65571E-05   854   0.285E-02    0.271E-02
RMM:   6    -0.134186655969E+03    0.24974E-05   -0.45880E-05   775   0.295E-02
  59 F= -.13418666E+03 E0= -.13418519E+03  d E =-.837617E-03
quench:  g(F)=  0.000E+00 g(S)=  0.000E+00 dE (1.order)= 0.000E+00
 bond charge predicted
       N       E                     dE             d eps       ncg     rms          rms(c)
DAV:   1    -0.134187185707E+03   -0.52724E-03   -0.88951E-02  1008   0.492E-01    0.971E-02
RMM:   2    -0.134187525907E+03   -0.34020E-03   -0.45047E-03  1462   0.115E-01    0.684E-02
RMM:   3    -0.134187447261E+03    0.78646E-04   -0.26166E-04  1012   0.388E-02    0.421E-02
RMM:   4    -0.134187463493E+03   -0.16232E-04   -0.12184E-04   961   0.427E-02    0.415E-02
RMM:   5    -0.134187445442E+03    0.18051E-04   -0.64819E-05   815   0.351E-02    0.139E-02
RMM:   6    -0.134187446071E+03   -0.62865E-06   -0.15491E-05   566   0.170E-02
  60 F= -.13418745E+03 E0= -.13418592E+03  d E =-.790101E-03
quench:  g(F)=  0.000E+00 g(S)=  0.000E+00 dE (1.order)= 0.000E+00
 bond charge predicted
       N       E                     dE             d eps       ncg     rms          rms(c)
DAV:   1    -0.134187920021E+03   -0.47458E-03   -0.42261E-02  1008   0.344E-01    0.588E-02
RMM:   2    -0.134188060208E+03   -0.14019E-03   -0.17689E-03  1353   0.783E-02    0.352E-02
RMM:   3    -0.134188037178E+03    0.23030E-04   -0.10913E-04   787   0.245E-02    0.281E-02
RMM:   4    -0.134188043080E+03   -0.59020E-05   -0.33455E-05   643   0.229E-02
  61 F= -.13418804E+03 E0= -.13418649E+03  d E =-.597009E-03
quench:  g(F)=  0.000E+00 g(S)=  0.000E+00 dE (1.order)= 0.000E+00
 bond charge predicted
       N       E                     dE             d eps       ncg     rms          rms(c)
DAV:   1    -0.134188628489E+03   -0.59131E-03   -0.87449E-02  1017   0.560E-01    0.763E-02
RMM:   2    -0.134188941405E+03   -0.31292E-03   -0.36480E-03  1392   0.120E-01    0.454E-02
RMM:   3    -0.134188942325E+03   -0.92048E-06   -0.27261E-04  1046   0.470E-02    0.635E-02
RMM:   4    -0.134188883111E+03    0.59214E-04   -0.49990E-05   767   0.282E-02    0.230E-02
RMM:   5    -0.134188894939E+03   -0.11828E-04   -0.24817E-05   587   0.218E-02    0.198E-02
RMM:   6    -0.134188898243E+03   -0.33043E-05   -0.17297E-05   571   0.189E-02
  62 F= -.13418890E+03 E0= -.13418740E+03  d E =-.855164E-03
quench:  g(F)=  0.000E+00 g(S)=  0.000E+00 dE (1.order)= 0.000E+00
 bond charge predicted
       N       E                     dE             d eps       ncg     rms          rms(c)
DAV:   1    -0.134189567922E+03   -0.67298E-03   -0.16986E-01  1008   0.701E-01    0.107E-01
RMM:   2    -0.134190071982E+03   -0.50406E-03   -0.63254E-03  1411   0.150E-01    0.561E-02
RMM:   3    -0.134190049157E+03    0.22825E-04   -0.38881E-04  1095   0.497E-02    0.586E-02
RMM:   4    -0.134190013329E+03    0.35829E-04   -0.10247E-04   968   0.364E-02    0.419E-02
RMM:   5    -0.134190008171E+03    0.51579E-05   -0.38941E-05   659   0.198E-02
  63 F= -.13419001E+03 E0= -.13418854E+03  d E =-.110993E-02
quench:  g(F)=  0.000E+00 g(S)=  0.000E+00 dE (1.order)= 0.000E+00
 bond charge predicted
       N       E                     dE             d eps       ncg     rms          rms(c)
DAV:   1    -0.134190241580E+03   -0.22825E-03   -0.18989E-01  1008   0.750E-01    0.125E-01
RMM:   2    -0.134190917021E+03   -0.67544E-03   -0.88080E-03  1507   0.164E-01    0.837E-02
RMM:   3    -0.134190843995E+03    0.73026E-04   -0.45304E-04  1110   0.483E-02    0.542E-02
RMM:   4    -0.134190870587E+03   -0.26592E-04   -0.16426E-04  1000   0.496E-02    0.490E-02
RMM:   5    -0.134190859853E+03    0.10734E-04   -0.81328E-05   875   0.385E-02    0.194E-02
RMM:   6    -0.134190863151E+03   -0.32979E-05   -0.28693E-05   622   0.233E-02
  64 F= -.13419086E+03 E0= -.13418938E+03  d E =-.854980E-03
quench:  g(F)=  0.000E+00 g(S)=  0.000E+00 dE (1.order)= 0.000E+00
 bond charge predicted
       N       E                     dE             d eps       ncg     rms          rms(c)
DAV:   1    -0.134191501548E+03   -0.64170E-03   -0.75389E-02  1026   0.423E-01    0.934E-02
RMM:   2    -0.134191758521E+03   -0.25697E-03   -0.34609E-03  1399   0.101E-01    0.607E-02
RMM:   3    -0.134191637533E+03    0.12099E-03   -0.25140E-04  1023   0.338E-02    0.461E-02
RMM:   4    -0.134191666252E+03   -0.28718E-04   -0.10181E-04   978   0.351E-02    0.502E-02
RMM:   5    -0.134191614269E+03    0.51982E-04   -0.38838E-05   671   0.251E-02    0.221E-02
RMM:   6    -0.134191608966E+03    0.53032E-05   -0.28651E-05   622   0.244E-02
  65 F= -.13419161E+03 E0= -.13419016E+03  d E =-.745815E-03
quench:  g(F)=  0.000E+00 g(S)=  0.000E+00 dE (1.order)= 0.000E+00
 bond charge predicted
       N       E                     dE             d eps       ncg     rms          rms(c)
DAV:   1    -0.134192119929E+03   -0.50566E-03   -0.54407E-02  1017   0.415E-01    0.604E-02
RMM:   2    -0.134192311535E+03   -0.19161E-03   -0.23166E-03  1425   0.916E-02    0.330E-02
RMM:   3    -0.134192279081E+03    0.32454E-04   -0.88090E-05   771   0.226E-02    0.231E-02
RMM:   4    -0.134192294509E+03   -0.15428E-04   -0.32177E-05   647   0.240E-02    0.282E-02
RMM:   5    -0.134192283904E+03    0.10605E-04   -0.12455E-05   560   0.165E-02    0.115E-02
RMM:   6    -0.134192285995E+03   -0.20907E-05   -0.86001E-06   548   0.125E-02
  66 F= -.13419229E+03 E0= -.13419086E+03  d E =-.677029E-03
quench:  g(F)=  0.000E+00 g(S)=  0.000E+00 dE (1.order)= 0.000E+00
 bond charge predicted
       N       E                     dE             d eps       ncg     rms          rms(c)
DAV:   1    -0.134192954771E+03   -0.67087E-03   -0.11935E-01  1008   0.588E-01    0.894E-02
RMM:   2    -0.134193313709E+03   -0.35894E-03   -0.44439E-03  1363   0.130E-01    0.452E-02
RMM:   3    -0.134193277189E+03    0.36520E-04   -0.27472E-04  1065   0.424E-02    0.399E-02
RMM:   4    -0.134193277557E+03   -0.36776E-06   -0.68416E-05   863   0.317E-02
  67 F= -.13419328E+03 E0= -.13419196E+03  d E =-.991562E-03
quench:  g(F)=  0.000E+00 g(S)=  0.000E+00 dE (1.order)= 0.000E+00
 bond charge predicted
       N       E                     dE             d eps       ncg     rms          rms(c)
DAV:   1    -0.134193668503E+03   -0.39131E-03   -0.17626E-01  1008   0.752E-01    0.114E-01
RMM:   2    -0.134194340784E+03   -0.67228E-03   -0.79010E-03  1474   0.164E-01    0.726E-02
RMM:   3    -0.134194322890E+03    0.17895E-04   -0.42312E-04  1070   0.557E-02    0.729E-02
RMM:   4    -0.134194208138E+03    0.11475E-03   -0.11649E-04  1004   0.390E-02    0.406E-02
RMM:   5    -0.134194226494E+03   -0.18356E-04   -0.53306E-05   808   0.292E-02    0.331E-02
RMM:   6    -0.134194222950E+03    0.35444E-05   -0.46548E-05   771   0.310E-02
  68 F= -.13419422E+03 E0= -.13419283E+03  d E =-.945393E-03
quench:  g(F)=  0.000E+00 g(S)=  0.000E+00 dE (1.order)= 0.000E+00
 bond charge predicted
       N       E                     dE             d eps       ncg     rms          rms(c)
DAV:   1    -0.134194700285E+03   -0.47379E-03   -0.12483E-01  1008   0.543E-01    0.114E-01
RMM:   2    -0.134195082674E+03   -0.38239E-03   -0.53036E-03  1460   0.122E-01    0.711E-02
RMM:   3    -0.134194989792E+03    0.92882E-04   -0.37614E-04  1088   0.336E-02    0.426E-02
RMM:   4    -0.134194982201E+03    0.75913E-05   -0.79299E-05   853   0.322E-02
  69 F= -.13419498E+03 E0= -.13419364E+03  d E =-.759251E-03
quench:  g(F)=  0.000E+00 g(S)=  0.000E+00 dE (1.order)= 0.000E+00
 bond charge predicted
       N       E                     dE             d eps       ncg     rms          rms(c)
DAV:   1    -0.134195462959E+03   -0.47317E-03   -0.48730E-02  1053   0.424E-01    0.688E-02
RMM:   2    -0.134195701526E+03   -0.23857E-03   -0.25035E-03  1297   0.101E-01    0.637E-02
RMM:   3    -0.134195661729E+03    0.39797E-04   -0.21293E-04  1028   0.464E-02    0.567E-02
RMM:   4    -0.134195616701E+03    0.45028E-04   -0.46346E-05   680   0.243E-02    0.241E-02
RMM:   5    -0.134195624178E+03   -0.74776E-05   -0.26225E-05   599   0.211E-02
  70 F= -.13419562E+03 E0= -.13419423E+03  d E =-.641977E-03
quench:  g(F)=  0.000E+00 g(S)=  0.000E+00 dE (1.order)= 0.000E+00
 bond charge predicted
       N       E                     dE             d eps       ncg     rms          rms(c)
DAV:   1    -0.134196217895E+03   -0.60119E-03   -0.73175E-02  1008   0.477E-01    0.706E-02
RMM:   2    -0.134196454148E+03   -0.23625E-03   -0.28441E-03  1408   0.104E-01    0.320E-02
RMM:   3    -0.134196417599E+03    0.36549E-04   -0.14362E-04   864   0.286E-02    0.244E-02
RMM:   4    -0.134196421567E+03   -0.39684E-05   -0.39705E-05   689   0.277E-02
  71 F= -.13419642E+03 E0= -.13419507E+03  d E =-.797389E-03
quench:  g(F)=  0.000E+00 g(S)=  0.000E+00 dE (1.order)= 0.000E+00
 bond charge predicted
       N       E                     dE             d eps       ncg     rms          rms(c)
DAV:   1    -0.134197076118E+03   -0.65852E-03   -0.15397E-01  1008   0.698E-01    0.101E-01
RMM:   2    -0.134197651875E+03   -0.57576E-03   -0.61706E-03  1424   0.155E-01    0.691E-02
RMM:   3    -0.134197693457E+03   -0.41583E-04   -0.49805E-04  1055   0.610E-02    0.846E-02
RMM:   4    -0.134197507215E+03    0.18624E-03   -0.10190E-04   991   0.388E-02    0.300E-02
RMM:   5    -0.134197522886E+03   -0.15671E-04   -0.45455E-05   742   0.283E-02    0.245E-02
RMM:   6    -0.134197527447E+03   -0.45606E-05   -0.31727E-05   623   0.249E-02
  72 F= -.13419753E+03 E0= -.13419618E+03  d E =-.110588E-02
quench:  g(F)=  0.000E+00 g(S)=  0.000E+00 dE (1.order)= 0.000E+00
 bond charge predicted
       N       E                     dE             d eps       ncg     rms          rms(c)
DAV:   1    -0.134197919321E+03   -0.39644E-03   -0.21783E-01  1008   0.761E-01    0.131E-01
RMM:   2    -0.134198591811E+03   -0.67249E-03   -0.86250E-03  1457   0.165E-01    0.754E-02
RMM:   3    -0.134198469691E+03    0.12212E-03   -0.53488E-04  1155   0.433E-02    0.517E-02
RMM:   4    -0.134198523850E+03   -0.54158E-04   -0.15463E-04  1013   0.470E-02    0.648E-02
RMM:   5    -0.134198458444E+03    0.65405E-04   -0.71614E-05   892   0.313E-02    0.295E-02
RMM:   6    -0.134198450596E+03    0.78479E-05   -0.34777E-05   653   0.238E-02
  73 F= -.13419845E+03 E0= -.13419713E+03  d E =-.923150E-03
quench:  g(F)=  0.000E+00 g(S)=  0.000E+00 dE (1.order)= 0.000E+00
 bond charge predicted
       N       E                     dE             d eps       ncg     rms          rms(c)
DAV:   1    -0.134198933617E+03   -0.47517E-03   -0.10480E-01  1008   0.519E-01    0.105E-01
RMM:   2    -0.134199358071E+03   -0.42445E-03   -0.53941E-03  1493   0.124E-01    0.777E-02
RMM:   3    -0.134199250522E+03    0.10755E-03   -0.31797E-04  1046   0.474E-02    0.501E-02
RMM:   4    -0.134199257504E+03   -0.69820E-05   -0.16115E-04   972   0.487E-02    0.444E-02
RMM:   5    -0.134199237603E+03    0.19901E-04   -0.75297E-05   831   0.367E-02    0.136E-02
RMM:   6    -0.134199239781E+03   -0.21780E-05   -0.17981E-05   580   0.179E-02
  74 F= -.13419924E+03 E0= -.13419793E+03  d E =-.789185E-03
quench:  g(F)=  0.000E+00 g(S)=  0.000E+00 dE (1.order)= 0.000E+00
 bond charge predicted
       N       E                     dE             d eps       ncg     rms          rms(c)
DAV:   1    -0.134199707853E+03   -0.47025E-03   -0.41368E-02  1008   0.336E-01    0.610E-02
RMM:   2    -0.134199852831E+03   -0.14498E-03   -0.17871E-03  1327   0.785E-02    0.419E-02
RMM:   3    -0.134199854209E+03   -0.13777E-05   -0.14165E-04   971   0.304E-02    0.498E-02
RMM:   4    -0.134199816052E+03    0.38157E-04   -0.42155E-05   663   0.246E-02    0.243E-02
RMM:   5    -0.134199814742E+03    0.13107E-05   -0.19527E-05   576   0.196E-02
  75 F= -.13419981E+03 E0= -.13419848E+03  d E =-.574960E-03
quench:  g(F)=  0.000E+00 g(S)=  0.000E+00 dE (1.order)= 0.000E+00
 bond charge predicted
       N       E                     dE             d eps       ncg     rms          rms(c)
DAV:   1    -0.134200408161E+03   -0.59211E-03   -0.80267E-02  1008   0.511E-01    0.707E-02
RMM:   2    -0.134200684147E+03   -0.27599E-03   -0.32020E-03  1492   0.108E-01    0.338E-02
RMM:   3    -0.134200651683E+03    0.32464E-04   -0.16653E-04   883   0.256E-02    0.342E-02
RMM:   4    -0.134200643185E+03    0.84978E-05   -0.31227E-05   634   0.206E-02
  76 F= -.13420064E+03 E0= -.13419928E+03  d E =-.828444E-03
quench:  g(F)=  0.000E+00 g(S)=  0.000E+00 dE (1.order)= 0.000E+00
 bond charge predicted
       N       E                     dE             d eps       ncg     rms          rms(c)
DAV:   1    -0.134201300741E+03   -0.64906E-03   -0.16763E-01  1008   0.710E-01    0.108E-01
RMM:   2    -0.134201826066E+03   -0.52533E-03   -0.63884E-03  1451   0.151E-01    0.520E-02
RMM:   3    -0.134201749264E+03    0.76802E-04   -0.32294E-04  1087   0.375E-02    0.377E-02
RMM:   4    -0.134201776445E+03   -0.27180E-04   -0.90739E-05   922   0.358E-02    0.424E-02
RMM:   5    -0.134201769792E+03    0.66530E-05   -0.43764E-05   722   0.278E-02
  77 F= -.13420177E+03 E0= -.13420055E+03  d E =-.112661E-02
quench:  g(F)=  0.000E+00 g(S)=  0.000E+00 dE (1.order)= 0.000E+00
 bond charge predicted
       N       E                     dE             d eps       ncg     rms          rms(c)
DAV:   1    -0.134201947227E+03   -0.17078E-03   -0.21531E-01  1008   0.800E-01    0.128E-01
RMM:   2    -0.134202793343E+03   -0.84612E-03   -0.10022E-02  1480   0.182E-01    0.847E-02
RMM:   3    -0.134202635941E+03    0.15740E-03   -0.52229E-04  1107   0.555E-02    0.719E-02
RMM:   4    -0.134202625595E+03    0.10346E-04   -0.15461E-04  1014   0.435E-02    0.562E-02
RMM:   5    -0.134202608750E+03    0.16844E-04   -0.69345E-05   877   0.311E-02    0.373E-02
RMM:   6    -0.134202602907E+03    0.58433E-05   -0.69209E-05   885   0.368E-02
  78 F= -.13420260E+03 E0= -.13420135E+03  d E =-.833115E-03
quench:  g(F)=  0.000E+00 g(S)=  0.000E+00 dE (1.order)= 0.000E+00
 bond charge predicted
       N       E                     dE             d eps       ncg     rms          rms(c)
DAV:   1    -0.134203246025E+03   -0.63727E-03   -0.10105E-01  1008   0.484E-01    0.108E-01
RMM:   2    -0.134203569211E+03   -0.32319E-03   -0.45449E-03  1451   0.113E-01    0.692E-02
RMM:   3    -0.134203493155E+03    0.76056E-04   -0.33295E-04  1067   0.364E-02    0.455E-02
RMM:   4    -0.134203540652E+03   -0.47497E-04   -0.12872E-04   997   0.434E-02    0.616E-02
RMM:   5    -0.134203471485E+03    0.69166E-04   -0.54280E-05   785   0.291E-02    0.187E-02
RMM:   6    -0.134203469705E+03    0.17801E-05   -0.21308E-05   585   0.191E-02
  79 F= -.13420347E+03 E0= -.13420224E+03  d E =-.866798E-03
quench:  g(F)=  0.000E+00 g(S)=  0.000E+00 dE (1.order)= 0.000E+00
 bond charge predicted
       N       E                     dE             d eps       ncg     rms          rms(c)
DAV:   1    -0.134203927474E+03   -0.45599E-03   -0.45840E-02  1026   0.374E-01    0.581E-02
RMM:   2    -0.134204106594E+03   -0.17912E-03   -0.21477E-03  1423   0.863E-02    0.389E-02
RMM:   3    -0.134204068648E+03    0.37946E-04   -0.10813E-04   857   0.297E-02    0.266E-02
RMM:   4    -0.134204072921E+03   -0.42728E-05   -0.37574E-05   665   0.264E-02
  80 F= -.13420407E+03 E0= -.13420283E+03  d E =-.603216E-03
quench:  g(F)=  0.000E+00 g(S)=  0.000E+00 dE (1.order)= 0.000E+00
 bond charge predicted
       N       E                     dE             d eps       ncg     rms          rms(c)
DAV:   1    -0.134204677916E+03   -0.60927E-03   -0.93293E-02  1008   0.524E-01    0.811E-02
RMM:   2    -0.134204989838E+03   -0.31192E-03   -0.36042E-03  1336   0.121E-01    0.517E-02
RMM:   3    -0.134205017755E+03   -0.27917E-04   -0.32163E-04  1055   0.486E-02    0.743E-02
RMM:   4    -0.134204921704E+03    0.96051E-04   -0.66255E-05   842   0.293E-02    0.246E-02
RMM:   5    -0.134204934206E+03   -0.12502E-04   -0.37379E-05   674   0.262E-02    0.222E-02
RMM:   6    -0.134204933666E+03    0.54065E-06   -0.23658E-05   594   0.214E-02
  81 F= -.13420493E+03 E0= -.13420372E+03  d E =-.860745E-03
quench:  g(F)=  0.000E+00 g(S)=  0.000E+00 dE (1.order)= 0.000E+00
 bond charge predicted
       N       E                     dE             d eps       ncg     rms          rms(c)
DAV:   1    -0.134205475344E+03   -0.54114E-03   -0.16975E-01  1008   0.704E-01    0.105E-01
RMM:   2    -0.134206034965E+03   -0.55962E-03   -0.67517E-03  1488   0.151E-01    0.580E-02
RMM:   3    -0.134205941673E+03    0.93291E-04   -0.26961E-04  1016   0.318E-02    0.381E-02
RMM:   4    -0.134205993808E+03   -0.52135E-04   -0.85192E-05   949   0.341E-02    0.467E-02
RMM:   5    -0.134205958446E+03    0.35362E-04   -0.34924E-05   645   0.251E-02    0.231E-02
RMM:   6    -0.134205962398E+03   -0.39520E-05   -0.21731E-05   610   0.185E-02
  82 F= -.13420596E+03 E0= -.13420478E+03  d E =-.102873E-02
quench:  g(F)=  0.000E+00 g(S)=  0.000E+00 dE (1.order)= 0.000E+00
 bond charge predicted
       N       E                     dE             d eps       ncg     rms          rms(c)
DAV:   1    -0.134206314929E+03   -0.35648E-03   -0.17535E-01  1008   0.657E-01    0.127E-01
RMM:   2    -0.134206850348E+03   -0.53542E-03   -0.72617E-03  1436   0.148E-01    0.798E-02
RMM:   3    -0.134206776548E+03    0.73800E-04   -0.51990E-04  1114   0.507E-02    0.628E-02
RMM:   4    -0.134206813737E+03   -0.37188E-04   -0.18106E-04  1025   0.492E-02    0.712E-02
RMM:   5    -0.134206715578E+03    0.98158E-04   -0.65428E-05   779   0.266E-02    0.258E-02
RMM:   6    -0.134206712577E+03    0.30017E-05   -0.34388E-05   648   0.244E-02
  83 F= -.13420671E+03 E0= -.13420555E+03  d E =-.750178E-03
quench:  g(F)=  0.000E+00 g(S)=  0.000E+00 dE (1.order)= 0.000E+00
 bond charge predicted
       N       E                     dE             d eps       ncg     rms          rms(c)
DAV:   1    -0.134207291623E+03   -0.57604E-03   -0.71063E-02  1026   0.430E-01    0.857E-02
RMM:   2    -0.134207573920E+03   -0.28230E-03   -0.36811E-03  1499   0.103E-01    0.627E-02
RMM:   3    -0.134207503492E+03    0.70429E-04   -0.20347E-04   978   0.354E-02    0.396E-02
RMM:   4    -0.134207514866E+03   -0.11374E-04   -0.94729E-05   907   0.376E-02    0.369E-02
RMM:   5    -0.134207503428E+03    0.11438E-04   -0.49035E-05   742   0.308E-02    0.119E-02
RMM:   6    -0.134207504351E+03   -0.92297E-06   -0.13755E-05   555   0.161E-02
  84 F= -.13420750E+03 E0= -.13420633E+03  d E =-.791775E-03
quench:  g(F)=  0.000E+00 g(S)=  0.000E+00 dE (1.order)= 0.000E+00
 bond charge predicted
       N       E                     dE             d eps       ncg     rms          rms(c)
DAV:   1    -0.134208053329E+03   -0.54990E-03   -0.62734E-02  1008   0.420E-01    0.665E-02
RMM:   2    -0.134208242498E+03   -0.18917E-03   -0.23939E-03  1359   0.932E-02    0.357E-02
RMM:   3    -0.134208213569E+03    0.28929E-04   -0.13835E-04   890   0.296E-02    0.264E-02
RMM:   4    -0.134208217100E+03   -0.35307E-05   -0.45262E-05   755   0.297E-02
  85 F= -.13420822E+03 E0= -.13420709E+03  d E =-.712749E-03
quench:  g(F)=  0.000E+00 g(S)=  0.000E+00 dE (1.order)= 0.000E+00
 bond charge predicted
       N       E                     dE             d eps       ncg     rms          rms(c)
DAV:   1    -0.134208840830E+03   -0.62726E-03   -0.13089E-01  1008   0.638E-01    0.925E-02
RMM:   2    -0.134209316543E+03   -0.47571E-03   -0.51502E-03  1462   0.139E-01    0.655E-02
RMM:   3    -0.134209371346E+03   -0.54804E-04   -0.42132E-04  1076   0.509E-02    0.814E-02
RMM:   4    -0.134209193151E+03    0.17819E-03   -0.85605E-05   961   0.350E-02    0.255E-02
RMM:   5    -0.134209216562E+03   -0.23411E-04   -0.26646E-05   606   0.206E-02    0.175E-02
RMM:   6    -0.134209223813E+03   -0.72507E-05   -0.28428E-05   618   0.248E-02
  86 F= -.13420922E+03 E0= -.13420809E+03  d E =-.100671E-02
quench:  g(F)=  0.000E+00 g(S)=  0.000E+00 dE (1.order)= 0.000E+00
 bond charge predicted
       N       E                     dE             d eps       ncg     rms          rms(c)
DAV:   1    -0.134209728060E+03   -0.51150E-03   -0.20084E-01  1008   0.728E-01    0.124E-01
RMM:   2    -0.134210312078E+03   -0.58402E-03   -0.77783E-03  1406   0.160E-01    0.713E-02
RMM:   3    -0.134210217257E+03    0.94821E-04   -0.47652E-04  1140   0.438E-02    0.492E-02
RMM:   4    -0.134210269548E+03   -0.52291E-04   -0.13221E-04  1006   0.430E-02    0.600E-02
RMM:   5    -0.134210218739E+03    0.50809E-04   -0.61702E-05   847   0.286E-02    0.295E-02
RMM:   6    -0.134210210732E+03    0.80065E-05   -0.40757E-05   721   0.272E-02
  87 F= -.13421021E+03 E0= -.13420911E+03  d E =-.986919E-03
quench:  g(F)=  0.000E+00 g(S)=  0.000E+00 dE (1.order)= 0.000E+00
 bond charge predicted
       N       E                     dE             d eps       ncg     rms          rms(c)
DAV:   1    -0.134210615041E+03   -0.39630E-03   -0.13220E-01  1008   0.584E-01    0.112E-01
RMM:   2    -0.134211110063E+03   -0.49502E-03   -0.65177E-03  1502   0.139E-01    0.816E-02
RMM:   3    -0.134210999052E+03    0.11101E-03   -0.39643E-04  1054   0.508E-02    0.528E-02
RMM:   4    -0.134211017861E+03   -0.18809E-04   -0.16927E-04   991   0.493E-02    0.476E-02
RMM:   5    -0.134211003261E+03    0.14600E-04   -0.80609E-05   869   0.376E-02    0.204E-02
RMM:   6    -0.134211011294E+03   -0.80328E-05   -0.28558E-05   630   0.225E-02
  88 F= -.13421101E+03 E0= -.13420982E+03  d E =-.800562E-03
quench:  g(F)=  0.000E+00 g(S)=  0.000E+00 dE (1.order)= 0.000E+00
 bond charge predicted
       N       E                     dE             d eps       ncg     rms          rms(c)
DAV:   1    -0.134211561691E+03   -0.55843E-03   -0.59636E-02  1026   0.410E-01    0.772E-02
RMM:   2    -0.134211766121E+03   -0.20443E-03   -0.27027E-03  1336   0.943E-02    0.491E-02
RMM:   3    -0.134211722770E+03    0.43351E-04   -0.18617E-04   978   0.325E-02    0.359E-02
RMM:   4    -0.134211725878E+03   -0.31086E-05   -0.69296E-05   882   0.330E-02
  89 F= -.13421173E+03 E0= -.13421063E+03  d E =-.714584E-03
quench:  g(F)=  0.000E+00 g(S)=  0.000E+00 dE (1.order)= 0.000E+00
 bond charge predicted
       N       E                     dE             d eps       ncg     rms          rms(c)
DAV:   1    -0.134212330081E+03   -0.60731E-03   -0.88639E-02  1008   0.542E-01    0.754E-02
RMM:   2    -0.134212648938E+03   -0.31886E-03   -0.35861E-03  1408   0.118E-01    0.504E-02
RMM:   3    -0.134212657724E+03   -0.87864E-05   -0.29519E-04  1065   0.436E-02    0.676E-02
RMM:   4    -0.134212578336E+03    0.79388E-04   -0.49296E-05   741   0.266E-02    0.215E-02
RMM:   5    -0.134212593598E+03   -0.15262E-04   -0.26491E-05   601   0.225E-02    0.189E-02
RMM:   6    -0.134212597960E+03   -0.43624E-05   -0.18591E-05   570   0.195E-02
  90 F= -.13421260E+03 E0= -.13421152E+03  d E =-.872082E-03
quench:  g(F)=  0.000E+00 g(S)=  0.000E+00 dE (1.order)= 0.000E+00
 bond charge predicted
       N       E                     dE             d eps       ncg     rms          rms(c)
DAV:   1    -0.134213328298E+03   -0.73470E-03   -0.18920E-01  1008   0.725E-01    0.112E-01
RMM:   2    -0.134213872534E+03   -0.54424E-03   -0.68609E-03  1429   0.154E-01    0.568E-02
RMM:   3    -0.134213835467E+03    0.37067E-04   -0.39337E-04  1089   0.484E-02    0.552E-02
RMM:   4    -0.134213818858E+03    0.16609E-04   -0.11199E-04   978   0.393E-02    0.440E-02
RMM:   5    -0.134213815872E+03    0.29852E-05   -0.43227E-05   675   0.192E-02
  91 F= -.13421382E+03 E0= -.13421276E+03  d E =-.121791E-02
quench:  g(F)=  0.000E+00 g(S)=  0.000E+00 dE (1.order)= 0.000E+00
 bond charge predicted
       N       E                     dE             d eps       ncg     rms          rms(c)
DAV:   1    -0.134214052614E+03   -0.23376E-03   -0.24819E-01  1008   0.835E-01    0.136E-01
RMM:   2    -0.134214918707E+03   -0.86609E-03   -0.10826E-02  1536   0.180E-01    0.863E-02
RMM:   3    -0.134214727552E+03    0.19116E-03   -0.52380E-04  1137   0.455E-02    0.536E-02
RMM:   4    -0.134214767939E+03   -0.40387E-04   -0.15166E-04  1003   0.463E-02    0.492E-02
RMM:   5    -0.134214759798E+03    0.81416E-05   -0.94667E-05   942   0.423E-02
  92 F= -.13421476E+03 E0= -.13421374E+03  d E =-.943925E-03
quench:  g(F)=  0.000E+00 g(S)=  0.000E+00 dE (1.order)= 0.000E+00
 bond charge predicted
       N       E                     dE             d eps       ncg     rms          rms(c)
DAV:   1    -0.134215424814E+03   -0.65688E-03   -0.12812E-01  1008   0.552E-01    0.121E-01
RMM:   2    -0.134215834928E+03   -0.41011E-03   -0.57279E-03  1449   0.129E-01    0.790E-02
RMM:   3    -0.134215768324E+03    0.66604E-04   -0.45111E-04  1079   0.524E-02    0.652E-02
RMM:   4    -0.134215789995E+03   -0.21671E-04   -0.18717E-04  1018   0.527E-02    0.676E-02
RMM:   5    -0.134215709629E+03    0.80365E-04   -0.56133E-05   722   0.243E-02    0.270E-02
RMM:   6    -0.134215703621E+03    0.60081E-05   -0.33235E-05   653   0.233E-02
  93 F= -.13421570E+03 E0= -.13421472E+03  d E =-.943823E-03
quench:  g(F)=  0.000E+00 g(S)=  0.000E+00 dE (1.order)= 0.000E+00
 bond charge predicted
       N       E                     dE             d eps       ncg     rms          rms(c)
DAV:   1    -0.134216193276E+03   -0.48365E-03   -0.49949E-02  1026   0.380E-01    0.629E-02
RMM:   2    -0.134216377585E+03   -0.18431E-03   -0.22982E-03  1504   0.860E-02    0.427E-02
RMM:   3    -0.134216342464E+03    0.35120E-04   -0.10869E-04   793   0.233E-02    0.269E-02
RMM:   4    -0.134216352202E+03   -0.97380E-05   -0.46387E-05   734   0.279E-02
  94 F= -.13421635E+03 E0= -.13421538E+03  d E =-.648581E-03
quench:  g(F)=  0.000E+00 g(S)=  0.000E+00 dE (1.order)= 0.000E+00
 bond charge predicted
       N       E                     dE             d eps       ncg     rms          rms(c)
DAV:   1    -0.134216970675E+03   -0.62821E-03   -0.99388E-02  1008   0.543E-01    0.828E-02
RMM:   2    -0.134217292490E+03   -0.32181E-03   -0.38883E-03  1430   0.119E-01    0.418E-02
RMM:   3    -0.134217311672E+03   -0.19183E-04   -0.24623E-04  1094   0.331E-02    0.611E-02
RMM:   4    -0.134217235321E+03    0.76351E-04   -0.54946E-05   737   0.247E-02    0.255E-02
RMM:   5    -0.134217248122E+03   -0.12801E-04   -0.32468E-05   627   0.237E-02    0.216E-02
RMM:   6    -0.134217248892E+03   -0.77039E-06   -0.22325E-05   579   0.221E-02
  95 F= -.13421725E+03 E0= -.13421631E+03  d E =-.896690E-03
quench:  g(F)=  0.000E+00 g(S)=  0.000E+00 dE (1.order)= 0.000E+00
 bond charge predicted
       N       E                     dE             d eps       ncg     rms          rms(c)
DAV:   1    -0.134217864076E+03   -0.61595E-03   -0.19971E-01  1008   0.756E-01    0.112E-01
RMM:   2    -0.134218479938E+03   -0.61586E-03   -0.75118E-03  1465   0.164E-01    0.570E-02
RMM:   3    -0.134218404001E+03    0.75937E-04   -0.42393E-04  1072   0.389E-02    0.372E-02
RMM:   4    -0.134218430187E+03   -0.26186E-04   -0.80225E-05   909   0.337E-02    0.378E-02
RMM:   5    -0.134218431551E+03   -0.13636E-05   -0.45697E-05   740   0.297E-02
  96 F= -.13421843E+03 E0= -.13421754E+03  d E =-.118266E-02
quench:  g(F)=  0.000E+00 g(S)=  0.000E+00 dE (1.order)= 0.000E+00
 bond charge predicted
       N       E                     dE             d eps       ncg     rms          rms(c)
DAV:   1    -0.134218683626E+03   -0.25344E-03   -0.23986E-01  1008   0.802E-01    0.146E-01
RMM:   2    -0.134219558260E+03   -0.87463E-03   -0.10328E-02  1458   0.178E-01    0.106E-01
RMM:   3    -0.134219583540E+03   -0.25280E-04   -0.87438E-04  1100   0.673E-02    0.130E-01
RMM:   4    -0.134219256504E+03    0.32704E-03   -0.25414E-04  1040   0.520E-02    0.533E-02
RMM:   5    -0.134219269210E+03   -0.12706E-04   -0.11160E-04   958   0.373E-02    0.412E-02
RMM:   6    -0.134219258615E+03    0.10595E-04   -0.88426E-05   950   0.407E-02    0.247E-02
RMM:   7    -0.134219251285E+03    0.73302E-05   -0.20057E-05   596   0.196E-02
  97 F= -.13421925E+03 E0= -.13421836E+03  d E =-.819735E-03
quench:  g(F)=  0.000E+00 g(S)=  0.000E+00 dE (1.order)= 0.000E+00
 bond charge predicted
       N       E                     dE             d eps       ncg     rms          rms(c)
DAV:   1    -0.134219914363E+03   -0.65575E-03   -0.91253E-02  1026   0.469E-01    0.995E-02
RMM:   2    -0.134220248741E+03   -0.33438E-03   -0.44050E-03  1553   0.107E-01    0.707E-02
RMM:   3    -0.134220176908E+03    0.71834E-04   -0.28582E-04  1013   0.367E-02    0.459E-02
RMM:   4    -0.134220213613E+03   -0.36705E-04   -0.11841E-04   990   0.393E-02    0.557E-02
RMM:   5    -0.134220175818E+03    0.37795E-04   -0.49583E-05   741   0.269E-02    0.257E-02
RMM:   6    -0.134220166256E+03    0.95620E-05   -0.34552E-05   665   0.259E-02
  98 F= -.13422017E+03 E0= -.13421923E+03  d E =-.914971E-03
quench:  g(F)=  0.000E+00 g(S)=  0.000E+00 dE (1.order)= 0.000E+00
 bond charge predicted
       N       E                     dE             d eps       ncg     rms          rms(c)
DAV:   1    -0.134220687889E+03   -0.51207E-03   -0.62233E-02  1026   0.420E-01    0.685E-02
RMM:   2    -0.134220898646E+03   -0.21076E-03   -0.25834E-03  1395   0.966E-02    0.393E-02
RMM:   3    -0.134220876732E+03    0.21914E-04   -0.16884E-04   982   0.366E-02    0.385E-02
RMM:   4    -0.134220865933E+03    0.10800E-04   -0.47967E-05   727   0.277E-02    0.291E-02
RMM:   5    -0.134220861589E+03    0.43436E-05   -0.17772E-05   603   0.146E-02
  99 F= -.13422086E+03 E0= -.13421996E+03  d E =-.695333E-03
quench:  g(F)=  0.000E+00 g(S)=  0.000E+00 dE (1.order)= 0.000E+00
 bond charge predicted
       N       E                     dE             d eps       ncg     rms          rms(c)
DAV:   1    -0.134221498972E+03   -0.63304E-03   -0.13791E-01  1008   0.636E-01    0.938E-02
RMM:   2    -0.134221938699E+03   -0.43973E-03   -0.52823E-03  1518   0.136E-01    0.469E-02
RMM:   3    -0.134221878420E+03    0.60279E-04   -0.21120E-04   995   0.321E-02    0.326E-02
RMM:   4    -0.134221905415E+03   -0.26996E-04   -0.62316E-05   891   0.308E-02    0.373E-02
RMM:   5    -0.134221888666E+03    0.16749E-04   -0.22707E-05   607   0.199E-02    0.198E-02
RMM:   6    -0.134221891148E+03   -0.24818E-05   -0.15814E-05   580   0.165E-02
 100 F= -.13422189E+03 E0= -.13422104E+03  d E =-.102956E-02
quench:  g(F)=  0.000E+00 g(S)=  0.000E+00 dE (1.order)= 0.000E+00
 bond charge predicted
       N       E                     dE             d eps       ncg     rms          rms(c)
DAV:   1    -0.134222354847E+03   -0.46618E-03   -0.23555E-01  1008   0.800E-01    0.132E-01
RMM:   2    -0.134223082216E+03   -0.72737E-03   -0.92516E-03  1468   0.174E-01    0.732E-02
RMM:   3    -0.134222984444E+03    0.97772E-04   -0.52419E-04  1159   0.467E-02    0.589E-02
RMM:   4    -0.134223012509E+03   -0.28065E-04   -0.15892E-04  1015   0.460E-02    0.637E-02
RMM:   5    -0.134222954590E+03    0.57919E-04   -0.58912E-05   743   0.240E-02    0.313E-02
RMM:   6    -0.134222952752E+03    0.18385E-05   -0.44418E-05   725   0.269E-02
 101 F= -.13422295E+03 E0= -.13422213E+03  d E =-.106160E-02
quench:  g(F)=  0.000E+00 g(S)=  0.000E+00 dE (1.order)= 0.000E+00
 bond charge predicted
       N       E                     dE             d eps       ncg     rms          rms(c)
DAV:   1    -0.134223165667E+03   -0.21108E-03   -0.17869E-01  1008   0.677E-01    0.129E-01
RMM:   2    -0.134223850882E+03   -0.68521E-03   -0.86320E-03  1523   0.158E-01    0.947E-02
RMM:   3    -0.134223696822E+03    0.15406E-03   -0.53308E-04  1064   0.594E-02    0.624E-02
RMM:   4    -0.134223706715E+03   -0.98927E-05   -0.22406E-04  1018   0.568E-02    0.530E-02
RMM:   5    -0.134223687641E+03    0.19074E-04   -0.10317E-04   917   0.429E-02    0.259E-02
RMM:   6    -0.134223694780E+03   -0.71391E-05   -0.32365E-05   639   0.198E-02
 102 F= -.13422369E+03 E0= -.13422297E+03  d E =-.742028E-03
quench:  g(F)=  0.000E+00 g(S)=  0.000E+00 dE (1.order)= 0.000E+00
 bond charge predicted
       N       E                     dE             d eps       ncg     rms          rms(c)
DAV:   1    -0.134224305524E+03   -0.61788E-03   -0.84986E-02  1008   0.479E-01    0.977E-02
RMM:   2    -0.134224606747E+03   -0.30122E-03   -0.40555E-03  1406   0.112E-01    0.634E-02
RMM:   3    -0.134224542726E+03    0.64021E-04   -0.28720E-04  1054   0.406E-02    0.505E-02
RMM:   4    -0.134224556326E+03   -0.13600E-04   -0.12528E-04   995   0.441E-02    0.526E-02
RMM:   5    -0.134224521136E+03    0.35190E-04   -0.41103E-05   672   0.245E-02    0.244E-02
RMM:   6    -0.134224514404E+03    0.67318E-05   -0.27151E-05   613   0.236E-02
 103 F= -.13422451E+03 E0= -.13422375E+03  d E =-.819624E-03
quench:  g(F)=  0.000E+00 g(S)=  0.000E+00 dE (1.order)= 0.000E+00
 bond charge predicted
       N       E                     dE             d eps       ncg     rms          rms(c)
DAV:   1    -0.134225025678E+03   -0.50454E-03   -0.79683E-02  1008   0.487E-01    0.719E-02
RMM:   2    -0.134225305776E+03   -0.28010E-03   -0.32650E-03  1478   0.111E-01    0.387E-02
RMM:   3    -0.134225263984E+03    0.41793E-04   -0.17626E-04   892   0.292E-02    0.255E-02
RMM:   4    -0.134225281368E+03   -0.17384E-04   -0.30152E-05   635   0.210E-02    0.302E-02
RMM:   5    -0.134225271786E+03    0.95823E-05   -0.16061E-05   577   0.180E-02
 104 F= -.13422527E+03 E0= -.13422453E+03  d E =-.757382E-03
quench:  g(F)=  0.000E+00 g(S)=  0.000E+00 dE (1.order)= 0.000E+00
 bond charge predicted
       N       E                     dE             d eps       ncg     rms          rms(c)
DAV:   1    -0.134225815386E+03   -0.53402E-03   -0.16436E-01  1008   0.688E-01    0.109E-01
RMM:   2    -0.134226356806E+03   -0.54142E-03   -0.66544E-03  1464   0.154E-01    0.563E-02
RMM:   3    -0.134226284791E+03    0.72016E-04   -0.36809E-04  1097   0.432E-02    0.534E-02
RMM:   4    -0.134226273941E+03    0.10850E-04   -0.99862E-05   962   0.372E-02    0.450E-02
RMM:   5    -0.134226266714E+03    0.72269E-05   -0.38178E-05   662   0.221E-02
 105 F= -.13422627E+03 E0= -.13422547E+03  d E =-.994928E-03
quench:  g(F)=  0.000E+00 g(S)=  0.000E+00 dE (1.order)= 0.000E+00
 bond charge predicted
       N       E                     dE             d eps       ncg     rms          rms(c)
DAV:   1    -0.134226467498E+03   -0.19356E-03   -0.21631E-01  1008   0.791E-01    0.128E-01
[...]
RMM:   2    -0.134585980178E+03   -0.69580E-04   -0.84222E-04  1244   0.604E-02    0.262E-02
RMM:   3    -0.134585981659E+03   -0.14804E-05   -0.68653E-05   804   0.249E-02
 669 F= -.13458598E+03 E0= -.13459267E+03  d E =-.169759E-03
quench:  g(F)=  0.000E+00 g(S)=  0.000E+00 dE (1.order)= 0.000E+00
 bond charge predicted
       N       E                     dE             d eps       ncg     rms          rms(c)
DAV:   1    -0.134586032400E+03   -0.52221E-04   -0.23504E-02  1134   0.348E-01    0.513E-02
RMM:   2    -0.134586139955E+03   -0.10756E-03   -0.12157E-03  1373   0.761E-02    0.341E-02
RMM:   3    -0.134586145121E+03   -0.51658E-05   -0.12508E-04   980   0.376E-02    0.426E-02
RMM:   4    -0.134586125610E+03    0.19511E-04   -0.27835E-05   617   0.226E-02    0.180E-02
RMM:   5    -0.134586127743E+03   -0.21323E-05   -0.14848E-05   552   0.178E-02
 670 F= -.13458613E+03 E0= -.13459292E+03  d E =-.146084E-03
quench:  g(F)=  0.000E+00 g(S)=  0.000E+00 dE (1.order)= 0.000E+00
 bond charge predicted
       N       E                     dE             d eps       ncg     rms          rms(c)
DAV:   1    -0.134586243403E+03   -0.11779E-03   -0.17207E-02  1053   0.240E-01    0.495E-02
RMM:   2    -0.134586309397E+03   -0.65994E-04   -0.93632E-04  1311   0.576E-02    0.318E-02
RMM:   3    -0.134586300514E+03    0.88825E-05   -0.65954E-05   753   0.210E-02
 671 F= -.13458630E+03 E0= -.13459300E+03  d E =-.172772E-03
quench:  g(F)=  0.000E+00 g(S)=  0.000E+00 dE (1.order)= 0.000E+00
 bond charge predicted
       N       E                     dE             d eps       ncg     rms          rms(c)
DAV:   1    -0.134586372833E+03   -0.63436E-04   -0.14175E-02  1215   0.301E-01    0.384E-02
RMM:   2    -0.134586478184E+03   -0.10535E-03   -0.72963E-04  1382   0.599E-02    0.443E-02
RMM:   3    -0.134586431388E+03    0.46797E-04   -0.78677E-05   858   0.257E-02    0.277E-02
RMM:   4    -0.134586426737E+03    0.46502E-05   -0.13690E-05   559   0.166E-02
 672 F= -.13458643E+03 E0= -.13459321E+03  d E =-.126223E-03
quench:  g(F)=  0.000E+00 g(S)=  0.000E+00 dE (1.order)= 0.000E+00
 bond charge predicted
       N       E                     dE             d eps       ncg     rms          rms(c)
DAV:   1    -0.134586553172E+03   -0.12178E-03   -0.15015E-02  1008   0.219E-01    0.423E-02
RMM:   2    -0.134586602821E+03   -0.49649E-04   -0.69853E-04  1290   0.518E-02    0.230E-02
RMM:   3    -0.134586592219E+03    0.10602E-04   -0.35063E-05   642   0.132E-02    0.152E-02
RMM:   4    -0.134586596220E+03   -0.40011E-05   -0.16215E-05   557   0.183E-02
 673 F= -.13458660E+03 E0= -.13459342E+03  d E =-.169483E-03
quench:  g(F)=  0.000E+00 g(S)=  0.000E+00 dE (1.order)= 0.000E+00
 bond charge predicted
       N       E                     dE             d eps       ncg     rms          rms(c)
DAV:   1    -0.134586678197E+03   -0.85978E-04   -0.24229E-02  1008   0.308E-01    0.492E-02
RMM:   2    -0.134586784943E+03   -0.10675E-03   -0.11493E-03  1478   0.740E-02    0.329E-02
RMM:   3    -0.134586793901E+03   -0.89573E-05   -0.10841E-04   944   0.311E-02    0.426E-02
RMM:   4    -0.134586761230E+03    0.32671E-04   -0.26807E-05   602   0.217E-02    0.151E-02
RMM:   5    -0.134586763036E+03   -0.18057E-05   -0.14698E-05   545   0.184E-02
 674 F= -.13458676E+03 E0= -.13459353E+03  d E =-.166815E-03
quench:  g(F)=  0.000E+00 g(S)=  0.000E+00 dE (1.order)= 0.000E+00
 bond charge predicted
       N       E                     dE             d eps       ncg     rms          rms(c)
DAV:   1    -0.134586875668E+03   -0.11444E-03   -0.19069E-02  1008   0.240E-01    0.519E-02
RMM:   2    -0.134586944289E+03   -0.68620E-04   -0.10150E-03  1339   0.594E-02    0.329E-02
RMM:   3    -0.134586923409E+03    0.20880E-04   -0.60538E-05   715   0.197E-02    0.206E-02
RMM:   4    -0.134586925563E+03   -0.21540E-05   -0.32559E-05   670   0.253E-02
 675 F= -.13458693E+03 E0= -.13459370E+03  d E =-.162527E-03
quench:  g(F)=  0.000E+00 g(S)=  0.000E+00 dE (1.order)= 0.000E+00
 bond charge predicted
       N       E                     dE             d eps       ncg     rms          rms(c)
DAV:   1    -0.134587012730E+03   -0.89321E-04   -0.14549E-02  1098   0.251E-01    0.398E-02
RMM:   2    -0.134587089562E+03   -0.76832E-04   -0.73407E-04  1446   0.568E-02    0.340E-02
RMM:   3    -0.134587079140E+03    0.10422E-04   -0.63343E-05   815   0.250E-02    0.326E-02
RMM:   4    -0.134587061906E+03    0.17233E-04   -0.18191E-05   579   0.189E-02    0.114E-02
RMM:   5    -0.134587063292E+03   -0.13855E-05   -0.10132E-05   544   0.147E-02
 676 F= -.13458706E+03 E0= -.13459385E+03  d E =-.137729E-03
quench:  g(F)=  0.000E+00 g(S)=  0.000E+00 dE (1.order)= 0.000E+00
 bond charge predicted
       N       E                     dE             d eps       ncg     rms          rms(c)
DAV:   1    -0.134587183088E+03   -0.12118E-03   -0.13537E-02  1008   0.212E-01    0.401E-02
RMM:   2    -0.134587231991E+03   -0.48903E-04   -0.67867E-04  1282   0.510E-02    0.234E-02
RMM:   3    -0.134587220326E+03    0.11664E-04   -0.35598E-05   643   0.158E-02    0.168E-02
RMM:   4    -0.134587223758E+03   -0.34315E-05   -0.19673E-05   567   0.206E-02
 677 F= -.13458722E+03 E0= -.13459407E+03  d E =-.160466E-03
quench:  g(F)=  0.000E+00 g(S)=  0.000E+00 dE (1.order)= 0.000E+00
 bond charge predicted
       N       E                     dE             d eps       ncg     rms          rms(c)
DAV:   1    -0.134587311826E+03   -0.91500E-04   -0.23168E-02  1008   0.305E-01    0.477E-02
RMM:   2    -0.134587407717E+03   -0.95891E-04   -0.10843E-03  1492   0.714E-02    0.272E-02
RMM:   3    -0.134587420244E+03   -0.12527E-04   -0.95108E-05   893   0.296E-02    0.390E-02
RMM:   4    -0.134587392507E+03    0.27738E-04   -0.23589E-05   598   0.209E-02    0.150E-02
RMM:   5    -0.134587394024E+03   -0.15177E-05   -0.12652E-05   544   0.169E-02
 678 F= -.13458739E+03 E0= -.13459417E+03  d E =-.170267E-03
quench:  g(F)=  0.000E+00 g(S)=  0.000E+00 dE (1.order)= 0.000E+00
 bond charge predicted
       N       E                     dE             d eps       ncg     rms          rms(c)
DAV:   1    -0.134587506632E+03   -0.11412E-03   -0.21419E-02  1008   0.258E-01    0.540E-02
RMM:   2    -0.134587583150E+03   -0.76518E-04   -0.11187E-03  1346   0.638E-02    0.342E-02
RMM:   3    -0.134587560764E+03    0.22386E-04   -0.68639E-05   753   0.222E-02    0.221E-02
RMM:   4    -0.134587563452E+03   -0.26884E-05   -0.35434E-05   680   0.264E-02
 679 F= -.13458756E+03 E0= -.13459434E+03  d E =-.169428E-03
quench:  g(F)=  0.000E+00 g(S)=  0.000E+00 dE (1.order)= 0.000E+00
 bond charge predicted
       N       E                     dE             d eps       ncg     rms          rms(c)
DAV:   1    -0.134587648084E+03   -0.87321E-04   -0.16404E-02  1116   0.272E-01    0.434E-02
RMM:   2    -0.134587746424E+03   -0.98340E-04   -0.84960E-04  1425   0.618E-02    0.427E-02
RMM:   3    -0.134587717251E+03    0.29173E-04   -0.79563E-05   904   0.273E-02    0.328E-02
RMM:   4    -0.134587702498E+03    0.14753E-04   -0.20426E-05   589   0.190E-02    0.135E-02
RMM:   5    -0.134587703578E+03   -0.10800E-05   -0.13765E-05   549   0.176E-02
 680 F= -.13458770E+03 E0= -.13459450E+03  d E =-.140126E-03
quench:  g(F)=  0.000E+00 g(S)=  0.000E+00 dE (1.order)= 0.000E+00
 bond charge predicted
       N       E                     dE             d eps       ncg     rms          rms(c)
DAV:   1    -0.134587821289E+03   -0.11879E-03   -0.12169E-02  1008   0.202E-01    0.389E-02
RMM:   2    -0.134587865146E+03   -0.43857E-04   -0.61614E-04  1256   0.483E-02    0.230E-02
RMM:   3    -0.134587855275E+03    0.98706E-05   -0.33960E-05   638   0.157E-02
 681 F= -.13458786E+03 E0= -.13459463E+03  d E =-.151697E-03
quench:  g(F)=  0.000E+00 g(S)=  0.000E+00 dE (1.order)= 0.000E+00
 bond charge predicted
       N       E                     dE             d eps       ncg     rms          rms(c)
DAV:   1    -0.134587951893E+03   -0.86747E-04   -0.20240E-02  1071   0.302E-01    0.461E-02
RMM:   2    -0.134588074761E+03   -0.12287E-03   -0.97711E-04  1469   0.681E-02    0.466E-02
RMM:   3    -0.134588035120E+03    0.39640E-04   -0.97351E-05   976   0.292E-02    0.348E-02
RMM:   4    -0.134588020205E+03    0.14915E-04   -0.14099E-05   567   0.162E-02    0.106E-02
RMM:   5    -0.134588025182E+03   -0.49764E-05   -0.78908E-06   541   0.126E-02
 682 F= -.13458803E+03 E0= -.13459482E+03  d E =-.169906E-03
quench:  g(F)=  0.000E+00 g(S)=  0.000E+00 dE (1.order)= 0.000E+00
 bond charge predicted
       N       E                     dE             d eps       ncg     rms          rms(c)
DAV:   1    -0.134588145349E+03   -0.12514E-03   -0.23352E-02  1008   0.273E-01    0.542E-02
RMM:   2    -0.134588232253E+03   -0.86904E-04   -0.12209E-03  1363   0.665E-02    0.335E-02
RMM:   3    -0.134588213033E+03    0.19220E-04   -0.70169E-05   775   0.183E-02    0.262E-02
RMM:   4    -0.134588216634E+03   -0.36004E-05   -0.28814E-05   624   0.221E-02
 683 F= -.13458822E+03 E0= -.13459511E+03  d E =-.191452E-03
quench:  g(F)=  0.000E+00 g(S)=  0.000E+00 dE (1.order)= 0.000E+00
 bond charge predicted
       N       E                     dE             d eps       ncg     rms          rms(c)
DAV:   1    -0.134588279779E+03   -0.66746E-04   -0.21502E-02  1080   0.306E-01    0.480E-02
RMM:   2    -0.134588370335E+03   -0.90556E-04   -0.10760E-03  1500   0.669E-02    0.272E-02
RMM:   3    -0.134588367657E+03    0.26782E-05   -0.82897E-05   833   0.285E-02
 684 F= -.13458837E+03 E0= -.13459512E+03  d E =-.151023E-03
quench:  g(F)=  0.000E+00 g(S)=  0.000E+00 dE (1.order)= 0.000E+00
 bond charge predicted
       N       E                     dE             d eps       ncg     rms          rms(c)
DAV:   1    -0.134588454199E+03   -0.83864E-04   -0.99195E-03  1305   0.268E-01    0.375E-02
RMM:   2    -0.134588539822E+03   -0.85623E-04   -0.52428E-04  1134   0.528E-02    0.453E-02
RMM:   3    -0.134588493872E+03    0.45950E-04   -0.60485E-05   790   0.222E-02    0.278E-02
RMM:   4    -0.134588486410E+03    0.74621E-05   -0.17397E-05   562   0.186E-02
 685 F= -.13458849E+03 E0= -.13459531E+03  d E =-.118753E-03
quench:  g(F)=  0.000E+00 g(S)=  0.000E+00 dE (1.order)= 0.000E+00
 bond charge predicted
       N       E                     dE             d eps       ncg     rms          rms(c)
DAV:   1    -0.134588590248E+03   -0.96376E-04   -0.15156E-02  1008   0.238E-01    0.390E-02
RMM:   2    -0.134588644987E+03   -0.54739E-04   -0.67207E-04  1506   0.548E-02    0.159E-02
RMM:   3    -0.134588643566E+03    0.14218E-05   -0.25990E-05   611   0.161E-02
 686 F= -.13458864E+03 E0= -.13459548E+03  d E =-.157155E-03
quench:  g(F)=  0.000E+00 g(S)=  0.000E+00 dE (1.order)= 0.000E+00
 bond charge predicted
       N       E                     dE             d eps       ncg     rms          rms(c)
DAV:   1    -0.134588755691E+03   -0.11070E-03   -0.21690E-02  1008   0.286E-01    0.504E-02
RMM:   2    -0.134588852295E+03   -0.96604E-04   -0.11075E-03  1348   0.666E-02    0.367E-02
RMM:   3    -0.134588852266E+03    0.29424E-07   -0.97872E-05   928   0.263E-02
 687 F= -.13458885E+03 E0= -.13459553E+03  d E =-.208700E-03
quench:  g(F)=  0.000E+00 g(S)=  0.000E+00 dE (1.order)= 0.000E+00
 bond charge predicted
       N       E                     dE             d eps       ncg     rms          rms(c)
DAV:   1    -0.134588870195E+03   -0.17900E-04   -0.23955E-02  1170   0.365E-01    0.505E-02
RMM:   2    -0.134588975276E+03   -0.10508E-03   -0.12402E-03  1468   0.704E-02    0.265E-02
RMM:   3    -0.134588987950E+03   -0.12674E-04   -0.76242E-05   781   0.221E-02    0.333E-02
RMM:   4    -0.134588967341E+03    0.20608E-04   -0.25064E-05   597   0.220E-02    0.170E-02
RMM:   5    -0.134588969220E+03   -0.18789E-05   -0.95954E-06   546   0.139E-02
 688 F= -.13458897E+03 E0= -.13459579E+03  d E =-.116954E-03
quench:  g(F)=  0.000E+00 g(S)=  0.000E+00 dE (1.order)= 0.000E+00
 bond charge predicted
       N       E                     dE             d eps       ncg     rms          rms(c)
DAV:   1    -0.134589088655E+03   -0.12131E-03   -0.12078E-02  1008   0.193E-01    0.430E-02
RMM:   2    -0.134589135896E+03   -0.47240E-04   -0.67168E-04  1256   0.492E-02    0.305E-02
RMM:   3    -0.134589125636E+03    0.10259E-04   -0.52425E-05   727   0.232E-02    0.266E-02
RMM:   4    -0.134589121700E+03    0.39359E-05   -0.23403E-05   591   0.225E-02
 689 F= -.13458912E+03 E0= -.13459600E+03  d E =-.152480E-03
quench:  g(F)=  0.000E+00 g(S)=  0.000E+00 dE (1.order)= 0.000E+00
 bond charge predicted
       N       E                     dE             d eps       ncg     rms          rms(c)
DAV:   1    -0.134589219906E+03   -0.94270E-04   -0.14608E-02  1062   0.255E-01    0.386E-02
RMM:   2    -0.134589290340E+03   -0.70434E-04   -0.70539E-04  1457   0.568E-02    0.261E-02
RMM:   3    -0.134589291165E+03   -0.82543E-06   -0.62559E-05   772   0.230E-02
 690 F= -.13458929E+03 E0= -.13459601E+03  d E =-.169465E-03
quench:  g(F)=  0.000E+00 g(S)=  0.000E+00 dE (1.order)= 0.000E+00
 bond charge predicted
       N       E                     dE             d eps       ncg     rms          rms(c)
DAV:   1    -0.134589376781E+03   -0.86442E-04   -0.20350E-02  1143   0.315E-01    0.495E-02
RMM:   2    -0.134589465040E+03   -0.88258E-04   -0.10927E-03  1214   0.697E-02    0.334E-02
RMM:   3    -0.134589450446E+03    0.14594E-04   -0.92538E-05   897   0.323E-02    0.296E-02
RMM:   4    -0.134589446604E+03    0.38417E-05   -0.30321E-05   631   0.247E-02
 691 F= -.13458945E+03 E0= -.13459625E+03  d E =-.155439E-03
quench:  g(F)=  0.000E+00 g(S)=  0.000E+00 dE (1.order)= 0.000E+00
 bond charge predicted
       N       E                     dE             d eps       ncg     rms          rms(c)
DAV:   1    -0.134589526091E+03   -0.75645E-04   -0.25044E-02  1008   0.299E-01    0.514E-02
RMM:   2    -0.134589638309E+03   -0.11222E-03   -0.11426E-03  1595   0.682E-02    0.419E-02
RMM:   3    -0.134589633854E+03    0.44551E-05   -0.10921E-04   932   0.256E-02    0.416E-02
RMM:   4    -0.134589613729E+03    0.20125E-04   -0.29749E-05   620   0.223E-02    0.155E-02
RMM:   5    -0.134589616309E+03   -0.25794E-05   -0.15734E-05   552   0.186E-02
 692 F= -.13458962E+03 E0= -.13459644E+03  d E =-.169705E-03
quench:  g(F)=  0.000E+00 g(S)=  0.000E+00 dE (1.order)= 0.000E+00
 bond charge predicted
       N       E                     dE             d eps       ncg     rms          rms(c)
DAV:   1    -0.134589735445E+03   -0.12172E-03   -0.14161E-02  1044   0.209E-01    0.453E-02
RMM:   2    -0.134589778705E+03   -0.43261E-04   -0.75659E-04  1288   0.511E-02    0.293E-02
RMM:   3    -0.134589766270E+03    0.12435E-04   -0.49438E-05   688   0.197E-02    0.228E-02
RMM:   4    -0.134589768089E+03   -0.18186E-05   -0.26858E-05   603   0.231E-02
 693 F= -.13458977E+03 E0= -.13459666E+03  d E =-.151780E-03
quench:  g(F)=  0.000E+00 g(S)=  0.000E+00 dE (1.order)= 0.000E+00
 bond charge predicted
       N       E                     dE             d eps       ncg     rms          rms(c)
DAV:   1    -0.134589854012E+03   -0.87742E-04   -0.14507E-02  1134   0.260E-01    0.379E-02
RMM:   2    -0.134589921865E+03   -0.67853E-04   -0.70987E-04  1428   0.572E-02    0.236E-02
RMM:   3    -0.134589926677E+03   -0.48128E-05   -0.63768E-05   799   0.254E-02
 694 F= -.13458993E+03 E0= -.13459666E+03  d E =-.158589E-03
quench:  g(F)=  0.000E+00 g(S)=  0.000E+00 dE (1.order)= 0.000E+00
 bond charge predicted
       N       E                     dE             d eps       ncg     rms          rms(c)
DAV:   1    -0.134590000594E+03   -0.78730E-04   -0.16415E-02  1197   0.292E-01    0.451E-02
RMM:   2    -0.134590071480E+03   -0.70886E-04   -0.88164E-04  1189   0.621E-02    0.291E-02
RMM:   3    -0.134590060245E+03    0.11235E-04   -0.68538E-05   812   0.292E-02    0.257E-02
RMM:   4    -0.134590058580E+03    0.16651E-05   -0.26448E-05   591   0.236E-02
 695 F= -.13459006E+03 E0= -.13459687E+03  d E =-.131903E-03
quench:  g(F)=  0.000E+00 g(S)=  0.000E+00 dE (1.order)= 0.000E+00
 bond charge predicted
       N       E                     dE             d eps       ncg     rms          rms(c)
DAV:   1    -0.134590139341E+03   -0.79096E-04   -0.20311E-02  1026   0.276E-01    0.457E-02
RMM:   2    -0.134590235093E+03   -0.95752E-04   -0.93184E-04  1574   0.621E-02    0.370E-02
RMM:   3    -0.134590229610E+03    0.54832E-05   -0.87624E-05   865   0.249E-02
 696 F= -.13459023E+03 E0= -.13459719E+03  d E =-.171030E-03
quench:  g(F)=  0.000E+00 g(S)=  0.000E+00 dE (1.order)= 0.000E+00
 bond charge predicted
       N       E                     dE             d eps       ncg     rms          rms(c)
DAV:   1    -0.134590290246E+03   -0.55153E-04   -0.12690E-02  1260   0.273E-01    0.410E-02
RMM:   2    -0.134590348008E+03   -0.57762E-04   -0.71876E-04  1167   0.498E-02    0.249E-02
RMM:   3    -0.134590339518E+03    0.84903E-05   -0.42609E-05   693   0.193E-02
 697 F= -.13459034E+03 E0= -.13459721E+03  d E =-.109908E-03
quench:  g(F)=  0.000E+00 g(S)=  0.000E+00 dE (1.order)= 0.000E+00
 bond charge predicted
       N       E                     dE             d eps       ncg     rms          rms(c)
DAV:   1    -0.134590420016E+03   -0.72008E-04   -0.12997E-02  1080   0.243E-01    0.382E-02
RMM:   2    -0.134590515909E+03   -0.95893E-04   -0.64864E-04  1447   0.548E-02    0.434E-02
RMM:   3    -0.134590479546E+03    0.36363E-04   -0.67308E-05   809   0.234E-02    0.272E-02
RMM:   4    -0.134590474574E+03    0.49723E-05   -0.16410E-05   558   0.186E-02
 698 F= -.13459047E+03 E0= -.13459731E+03  d E =-.135056E-03
quench:  g(F)=  0.000E+00 g(S)=  0.000E+00 dE (1.order)= 0.000E+00
 bond charge predicted
       N       E                     dE             d eps       ncg     rms          rms(c)
DAV:   1    -0.134590586377E+03   -0.10683E-03   -0.14976E-02  1044   0.222E-01    0.430E-02
RMM:   2    -0.134590631809E+03   -0.45432E-04   -0.71710E-04  1273   0.532E-02    0.272E-02
RMM:   3    -0.134590622778E+03    0.90309E-05   -0.54069E-05   734   0.239E-02
 699 F= -.13459062E+03 E0= -.13459742E+03  d E =-.148205E-03
quench:  g(F)=  0.000E+00 g(S)=  0.000E+00 dE (1.order)= 0.000E+00
 bond charge predicted
       N       E                     dE             d eps       ncg     rms          rms(c)
DAV:   1    -0.134590691322E+03   -0.59513E-04   -0.19778E-02  1026   0.298E-01    0.449E-02
RMM:   2    -0.134590785994E+03   -0.94672E-04   -0.93349E-04  1494   0.671E-02    0.353E-02
RMM:   3    -0.134590785914E+03    0.80261E-07   -0.87418E-05   879   0.263E-02
 700 F= -.13459079E+03 E0= -.13459776E+03  d E =-.163136E-03
quench:  g(F)=  0.000E+00 g(S)=  0.000E+00 dE (1.order)= 0.000E+00
 bond charge predicted
       N       E                     dE             d eps       ncg     rms          rms(c)
DAV:   1    -0.134590845872E+03   -0.59877E-04   -0.13618E-02  1251   0.278E-01    0.442E-02
RMM:   2    -0.134590906980E+03   -0.61108E-04   -0.78184E-04  1184   0.526E-02    0.274E-02
RMM:   3    -0.134590896911E+03    0.10069E-04   -0.45025E-05   702   0.175E-02    0.208E-02
RMM:   4    -0.134590902427E+03   -0.55166E-05   -0.19650E-05   590   0.186E-02
 701 F= -.13459090E+03 E0= -.13459768E+03  d E =-.116513E-03
quench:  g(F)=  0.000E+00 g(S)=  0.000E+00 dE (1.order)= 0.000E+00
 bond charge predicted
       N       E                     dE             d eps       ncg     rms          rms(c)
DAV:   1    -0.134590981166E+03   -0.84255E-04   -0.13154E-02  1152   0.253E-01    0.368E-02
RMM:   2    -0.134591043819E+03   -0.62654E-04   -0.63357E-04  1422   0.538E-02    0.235E-02
RMM:   3    -0.134591050503E+03   -0.66837E-05   -0.55649E-05   726   0.224E-02
 702 F= -.13459105E+03 E0= -.13459800E+03  d E =-.148076E-03
quench:  g(F)=  0.000E+00 g(S)=  0.000E+00 dE (1.order)= 0.000E+00
 bond charge predicted
       N       E                     dE             d eps       ncg     rms          rms(c)
