
*************** JDFTx 1.7.0  ***************

Start date and time: Sun Mar 24 14:30:29 2024
Executable jdftx with command-line: -i dft.in
Running on hosts (process indices):  exp-12-25 (0-9)
Divided in process groups (process indices):  0 (0)  1 (1)  2 (2)  3 (3)  4 (4)  5 (5)  6 (6)  7 (7)  8 (8)  9 (9)
Resource initialization completed at t[s]:      0.02
Run totals: 10 processes, 80 threads, 0 GPUs


Input parsed successfully to the following command list (including defaults):

basis kpoint-dependent
coords-type Cartesian
core-overlap-check vector
coulomb-interaction Periodic
davidson-band-ratio 1.1
dump Ionic State IonicPositions Forces Ecomponents
dump-name $VAR
elec-cutoff 20 100
elec-eigen-algo Davidson
elec-ex-corr gga-x-rpbe gga-c-pbe
elec-smearing Fermi 0.00734
electronic-minimize  \
	dirUpdateScheme      FletcherReeves \
	linminMethod         DirUpdateRecommended \
	nIterations          100 \
	history              15 \
	knormThreshold       0 \
	energyDiffThreshold  1e-07 \
	nEnergyDiff          2 \
	alphaTstart          1 \
	alphaTmin            1e-10 \
	updateTestStepSize   yes \
	alphaTreduceFactor   0.1 \
	alphaTincreaseFactor 3 \
	nAlphaAdjustMax      3 \
	wolfeEnergy          0.0001 \
	wolfeGradient        0.9 \
	fdTest               no
exchange-regularization WignerSeitzTruncated
fluid LinearPCM 298.000000 1.013250
fluid-anion F- 1 MeanFieldLJ \
	epsBulk 1 \
	pMol 0 \
	epsInf 1 \
	Pvap 0 \
	sigmaBulk 0 \
	Rvdw 2.24877 \
	Res 0 \
	tauNuc 343133
fluid-cation Na+ 1 MeanFieldLJ \
	epsBulk 1 \
	pMol 0 \
	epsInf 1 \
	Pvap 0 \
	sigmaBulk 0 \
	Rvdw 2.19208 \
	Res 0 \
	tauNuc 343133
fluid-ex-corr (null) lda-PZ
fluid-gummel-loop 10 1.000000e-05
fluid-minimize  \
	dirUpdateScheme      PolakRibiere \
	linminMethod         DirUpdateRecommended \
	nIterations          400 \
	history              15 \
	knormThreshold       1e-11 \
	energyDiffThreshold  0 \
	nEnergyDiff          2 \
	alphaTstart          1 \
	alphaTmin            1e-10 \
	updateTestStepSize   yes \
	alphaTreduceFactor   0.1 \
	alphaTincreaseFactor 3 \
	nAlphaAdjustMax      6 \
	wolfeEnergy          0.0001 \
	wolfeGradient        0.9 \
	fdTest               no
fluid-solvent H2O 55.338 ScalarEOS \
	epsBulk 78.4 \
	pMol 0.92466 \
	epsInf 1.77 \
	Pvap 1.06736e-10 \
	sigmaBulk 4.62e-05 \
	Rvdw 2.61727 \
	Res 1.42 \
	tauNuc 343133 \
	poleEl 15 7 1
forces-output-coords Positions
ion Cu   0.000000000000000   2.854467000000000   0.000000000000000 0
ion Cu   4.944081000000001   2.854467000000000   0.000000000000000 0
ion Cu   9.888161999999998   2.854467000000000   0.000000000000000 0
ion Cu   2.472041000000000   7.136167000000000   0.000000000000000 0
ion Cu   7.416122000000000   7.136167000000000   0.000000000000000 0
ion Cu  12.360203000000002   7.136167000000000   0.000000000000000 0
ion Cu   4.944081000000000  11.417866000000000   0.000000000000000 0
ion Cu   9.888161999999999  11.417866000000000   0.000000000000000 0
ion Cu  14.832243999999999  11.417866000000000   0.000000000000000 0
ion Cu   0.000000000000000   0.000000000000000   4.036825000000000 1
ion Cu   4.944081000000000   0.000000000000000   4.036825000000000 1
ion Cu   9.888161999999999   0.000000000000000   4.036825000000000 1
ion Cu   2.472041000000000   4.281700000000000   4.036825000000000 1
ion Cu   7.416122000000001   4.281700000000000   4.036825000000000 1
ion Cu  12.360203000000002   4.281700000000000   4.036825000000000 1
ion Cu   4.944081000000000   8.563400000000000   4.036825000000000 1
ion Cu   9.888161999999999   8.563400000000000   4.036825000000000 1
ion Cu  14.832244000000001   8.563400000000000   4.036825000000000 1
ion Cu   2.472041000000000   1.427233000000000   8.073651000000000 1
ion Cu   7.416122000000000   1.427233000000000   8.073651000000000 1
ion Cu  12.360203000000000   1.427233000000000   8.073651000000000 1
ion Cu   4.944081000000000   5.708933000000000   8.073651000000000 1
ion Cu   9.888161999999999   5.708933000000000   8.073651000000000 1
ion Cu  14.832243999999999   5.708933000000000   8.073651000000000 1
ion Cu   7.416122000000000   9.990633000000001   8.073651000000000 1
ion Cu  12.360203000000002   9.990633000000001   8.073651000000000 1
ion Cu  17.304284000000003   9.990633000000001   8.073651000000000 1
ion Cu   0.000000000000000   2.854467000000000  12.110475999999998 1
ion Cu   4.944081000000001   2.854467000000000  12.110475999999998 1
ion Cu   9.888161999999998   2.854467000000000  12.110475999999998 1
ion Cu   2.472041000000000   7.136167000000000  12.110475999999998 1
ion Cu   7.416122000000000   7.136167000000000  12.110475999999998 1
ion Cu  12.360203000000002   7.136167000000000  12.110475999999998 1
ion Cu   4.944081000000000  11.417866000000000  12.110475999999998 1
ion Cu   9.888161999999999  11.417866000000000  12.110475999999998 1
ion Cu  14.832243999999999  11.417866000000000  12.110475999999998 1
ion Cu   0.000000000000000   0.000000000000000  16.147302000000000 1
ion Cu   4.944081000000000   0.000000000000000  16.147302000000000 1
ion Cu   9.888161999999999   0.000000000000000  16.147302000000000 1
ion Cu   2.472041000000000   4.281700000000000  16.147302000000000 1
ion Cu   4.944081000000000   8.563400000000000  16.147302000000000 1
ion Cu   9.888161999999999   8.563400000000000  16.147302000000000 1
ion Cu  14.832244000000001   8.563400000000000  16.147302000000000 1
ion Pt   7.416122000000001   4.281700000000000  16.147302000000000 1
ion Pt  12.360203000000002   4.281700000000000  16.147302000000000 1
ion N  10.013659000000001   4.344480000000000  21.438535000000002 1
ion O  10.013659000000001   4.344480000000000  23.798282999999998 1
ion O  12.058611000000003   4.344480000000000  20.255491999999997 1
ion O   7.968707000000000   4.344480000000000  20.255491999999997 1
ion-species GBRV/$ID_pbe.uspp
ion-width Ecut
ionic-minimize  \
	dirUpdateScheme      L-BFGS \
	linminMethod         DirUpdateRecommended \
	nIterations          100 \
	history              15 \
	knormThreshold       0.0001 \
	energyDiffThreshold  1e-06 \
	nEnergyDiff          2 \
	alphaTstart          1 \
	alphaTmin            1e-10 \
	updateTestStepSize   yes \
	alphaTreduceFactor   0.1 \
	alphaTincreaseFactor 3 \
	nAlphaAdjustMax      3 \
	wolfeEnergy          0.0001 \
	wolfeGradient        0.9 \
	fdTest               no
kpoint   0.000000000000   0.000000000000   0.000000000000  1.00000000000000
kpoint-folding 4 4 1 
latt-move-scale 1 1 1
latt-scale 1 1 1 
lattice  \
	  14.832243999999999    7.416122000000000    0.000000000000000  \
	   0.000000000000000   12.845100000000000    0.000000000000000  \
	   0.000000000000000    0.000000000000000   48.530019000000003 
lattice-minimize  \
	dirUpdateScheme      L-BFGS \
	linminMethod         DirUpdateRecommended \
	nIterations          0 \
	history              15 \
	knormThreshold       0 \
	energyDiffThreshold  1e-06 \
	nEnergyDiff          2 \
	alphaTstart          1 \
	alphaTmin            1e-10 \
	updateTestStepSize   yes \
	alphaTreduceFactor   0.1 \
	alphaTincreaseFactor 3 \
	nAlphaAdjustMax      3 \
	wolfeEnergy          0.0001 \
	wolfeGradient        0.9 \
	fdTest               no
lcao-params -1 1e-06 0.00734
pcm-variant CANDLE
spintype no-spin
subspace-rotation-factor 1 yes
symmetries automatic
symmetry-threshold 0.0001
target-mu -0.14501 no




---------- Setting up symmetries ----------

Found 24 point-group symmetries of the bravais lattice
Found 1 space-group symmetries with basis
Applied RMS atom displacement 0 bohrs to make symmetries exact.

---------- Initializing the Grid ----------
R = 
[      14.8322      7.41612            0  ]
[            0      12.8451            0  ]
[            0            0        48.53  ]
unit cell volume = 9246.02
G =
[   0.423617  -0.244575          0  ]
[          0    0.48915          0  ]
[          0          0    0.12947  ]
Minimum fftbox size, Smin = [  68  68  220  ]
Chosen fftbox size, S = [  70  70  224  ]

---------- Initializing tighter grid for wavefunction operations ----------
R = 
[      14.8322      7.41612            0  ]
[            0      12.8451            0  ]
[            0            0        48.53  ]
unit cell volume = 9246.02
G =
[   0.423617  -0.244575          0  ]
[          0    0.48915          0  ]
[          0          0    0.12947  ]
Minimum fftbox size, Smin = [  60  60  196  ]
Chosen fftbox size, S = [  60  60  196  ]

---------- Exchange Correlation functional ----------
Initialized LibXC exchange functional 'Hammer, Hansen, and Norskov'
Initialized LibXC correlation functional 'Perdew, Burke & Ernzerhof'

---------- Setting up pseudopotentials ----------
Width of ionic core gaussian charges (only for fluid interactions / plotting) set to 0.397384

Reading pseudopotential file '/home/dsweeney3/jdftx/build-2/pseudopotentials/GBRV/cu_pbe.uspp':
  Title: Cu.  Created by USPP 7.3.6 on 3-2-2014
  Reference state energy: -201.059491.  19 valence electrons in orbitals:
    |300>  occupation: 2  eigenvalue: -5.020764
    |310>  occupation: 6  eigenvalue: -3.445588
    |320>  occupation: 8  eigenvalue: -0.925168
    |400>  occupation: 2  eigenvalue: -0.567638
    |410>  occupation: 0  eigenvalue: -0.326154
  lMax: 2  lLocal: 3  QijEcut: 6
  6 projectors sampled on a log grid with 613 points:
    l: 0  eig: -5.020767  rCut: 1.4
    l: 0  eig: -0.567640  rCut: 1.4
    l: 1  eig: -3.445589  rCut: 1.55
    l: 1  eig: -0.326157  rCut: 1.55
    l: 2  eig: -0.925170  rCut: 1.5
    l: 2  eig: 1.500000  rCut: 1.5
  Partial core density with radius 0.8
  Transforming core density to a uniform radial grid of dG=0.02 with 1656 points.
  Transforming local potential to a uniform radial grid of dG=0.02 with 1656 points.
  Transforming nonlocal projectors to a uniform radial grid of dG=0.02 with 432 points.
  Transforming density augmentations to a uniform radial grid of dG=0.02 with 1656 points.
  Transforming atomic orbitals to a uniform radial grid of dG=0.02 with 432 points.
  Core radius for overlap checks: 1.55 bohrs.

Reading pseudopotential file '/home/dsweeney3/jdftx/build-2/pseudopotentials/GBRV/pt_pbe.uspp':
  Title: Pt.  Created by USPP 7.3.6 on 31-3-15
  Reference state energy: -105.002503.  16 valence electrons in orbitals:
    |510>  occupation: 6  eigenvalue: -2.158104
    |520>  occupation: 9.5  eigenvalue: -0.335376
    |600>  occupation: 0  eigenvalue: -0.319640
    |610>  occupation: 0  eigenvalue: -0.122947
  lMax: 2  lLocal: 3  QijEcut: 5.5
  6 projectors sampled on a log grid with 745 points:
    l: 0  eig: -0.319640  rCut: 2.45
    l: 0  eig: 1.500000  rCut: 2.45
    l: 1  eig: -2.158104  rCut: 1.6
    l: 1  eig: -0.122947  rCut: 1.6
    l: 2  eig: -0.500000  rCut: 1.6
    l: 2  eig: -0.335375  rCut: 1.6
  Partial core density with radius 1.1
  Transforming core density to a uniform radial grid of dG=0.02 with 1656 points.
  Transforming local potential to a uniform radial grid of dG=0.02 with 1656 points.
  Transforming nonlocal projectors to a uniform radial grid of dG=0.02 with 432 points.
  Transforming density augmentations to a uniform radial grid of dG=0.02 with 1656 points.
  Transforming atomic orbitals to a uniform radial grid of dG=0.02 with 432 points.
  Core radius for overlap checks: 2.45 bohrs.

Reading pseudopotential file '/home/dsweeney3/jdftx/build-2/pseudopotentials/GBRV/n_pbe.uspp':
  Title: N.  Created by USPP 7.3.6 on 3-2-2014
  Reference state energy: -9.763716.  5 valence electrons in orbitals:
    |200>  occupation: 2  eigenvalue: -0.681964
    |210>  occupation: 3  eigenvalue: -0.260726
  lMax: 1  lLocal: 2  QijEcut: 6
  4 projectors sampled on a log grid with 491 points:
    l: 0  eig: -0.681964  rCut: 1.15
    l: 0  eig: 0.000000  rCut: 1.15
    l: 1  eig: -0.260729  rCut: 1.2
    l: 1  eig: 0.500000  rCut: 1.2
  Partial core density with radius 0.8
  Transforming core density to a uniform radial grid of dG=0.02 with 1656 points.
  Transforming local potential to a uniform radial grid of dG=0.02 with 1656 points.
  Transforming nonlocal projectors to a uniform radial grid of dG=0.02 with 432 points.
  Transforming density augmentations to a uniform radial grid of dG=0.02 with 1656 points.
  Transforming atomic orbitals to a uniform radial grid of dG=0.02 with 432 points.
  Core radius for overlap checks: 1.20 bohrs.

Reading pseudopotential file '/home/dsweeney3/jdftx/build-2/pseudopotentials/GBRV/o_pbe.uspp':
  Title: O.  Created by USPP 7.3.6 on 3-2-2014
  Reference state energy: -15.894388.  6 valence electrons in orbitals:
    |200>  occupation: 2  eigenvalue: -0.878823
    |210>  occupation: 4  eigenvalue: -0.332131
  lMax: 2  lLocal: 2  QijEcut: 6
  5 projectors sampled on a log grid with 511 points:
    l: 0  eig: -0.878823  rCut: 1.25
    l: 0  eig: 0.000000  rCut: 1.25
    l: 1  eig: -0.332132  rCut: 1.25
    l: 1  eig: 0.000000  rCut: 1.25
    l: 2  eig: 1.000000  rCut: 1.25
  Partial core density with radius 0.7
  Transforming core density to a uniform radial grid of dG=0.02 with 1656 points.
  Transforming local potential to a uniform radial grid of dG=0.02 with 1656 points.
  Transforming nonlocal projectors to a uniform radial grid of dG=0.02 with 432 points.
  Transforming density augmentations to a uniform radial grid of dG=0.02 with 1656 points.
  Transforming atomic orbitals to a uniform radial grid of dG=0.02 with 432 points.
  Core radius for overlap checks: 1.25 bohrs.

Initialized 4 species with 49 total atoms.

Folded 1 k-points by 4x4x1 to 16 k-points.

---------- Setting up k-points, bands, fillings ----------
Adding inversion symmetry to k-mesh for non-inversion-symmetric unit cell.
Reduced to 10 k-points under symmetry. 
Computing the number of bands and number of electrons
Calculating initial fillings.
nElectrons: 872.000000   nBands: 599   nStates: 10

----- Setting up reduced wavefunction bases (one per k-point) -----
average nbasis = 39499.562 , ideal nbasis = 39499.701

Initializing DFT-D2 calculator for fluid / solvation:
	Cu:  C6:  187.33 Eh-a0^6  R0: 2.952 a0
	Pt:  C6:  815.23 Eh-a0^6  R0: 3.326 a0 (WARNING: beyond Grimme's data set)
	 N:  C6:   21.33 Eh-a0^6  R0: 2.640 a0
	 O:  C6:   12.14 Eh-a0^6  R0: 2.536 a0

---------- Setting up ewald sum ----------
Optimum gaussian width for ewald sums = 4.377193 bohr.
Real space sum over 605 unit cells with max indices [  5  5  2  ]
Reciprocal space sum over 8325 terms with max indices [  7  7  18  ]

---------- Allocating electronic variables ----------
Initializing wave functions:  linear combination of atomic orbitals
Cu pseudo-atom occupations:   s ( 2 1 )  p ( 6 0 )  d ( 10 )
Pt pseudo-atom occupations:   s ( 0 )  p ( 6 0 )  d ( 10 )
N pseudo-atom occupations:   s ( 2 )  p ( 3 )
O pseudo-atom occupations:   s ( 2 )  p ( 4 )
	FillingsUpdate:  mu: -0.145010000  nElectrons: 872.000000
LCAOMinimize: Iter:   0  G: -8434.3870123785582109  |grad|_K:  8.383e-02  alpha:  1.000e+00
LCAOMinimize: 	Step increased G by 3.627097e+03, reducing alpha to 3.986659e-02.
LCAOMinimize: 	Step increased G by 4.210608e+02, reducing alpha to 3.986659e-03.
	FillingsUpdate:  mu: -0.145010000  nElectrons: 872.000000
LCAOMinimize: Iter:   1  G: -8499.5260539685823460  |grad|_K:  3.848e-02  alpha:  3.987e-03  linmin: -1.554e-01  cgtest:  5.374e-01  t[s]:     73.47
LCAOMinimize: Encountered beta<0, resetting CG.
	FillingsUpdate:  mu: -0.145010000  nElectrons: 872.000000
LCAOMinimize: Iter:   2  G: -8526.2755729360269470  |grad|_K:  3.623e-02  alpha:  1.081e-02  linmin:  1.976e-02  cgtest: -1.236e-01  t[s]:     90.80
	FillingsUpdate:  mu: -0.145010000  nElectrons: 872.000000
LCAOMinimize: Iter:   3  G: -8575.4350761707282800  |grad|_K:  6.494e-02  alpha:  1.936e-02  linmin:  1.478e-02  cgtest: -1.821e-01  t[s]:    108.14
	FillingsUpdate:  mu: -0.145010000  nElectrons: 872.000000
LCAOMinimize: Iter:   4  G: -8587.5892844620138931  |grad|_K:  1.009e-01  alpha:  4.296e-03  linmin:  1.426e-04  cgtest:  8.544e-01  t[s]:    125.48
	FillingsUpdate:  mu: -0.145010000  nElectrons: 872.000000
LCAOMinimize: Iter:   5  G: -8643.5850931950917584  |grad|_K:  5.105e-02  alpha:  6.957e-03  linmin:  1.052e-01  cgtest:  9.199e-01  t[s]:    142.81
LCAOMinimize: Encountered beta<0, resetting CG.
	FillingsUpdate:  mu: -0.145010000  nElectrons: 872.000000
LCAOMinimize: Iter:   6  G: -8712.9605458390433341  |grad|_K:  3.892e-02  alpha:  1.820e-02  linmin:  7.516e-02  cgtest: -5.511e-01  t[s]:    160.17
	FillingsUpdate:  mu: -0.145010000  nElectrons: 872.000000
LCAOMinimize: Iter:   7  G: -8715.2832338513544528  |grad|_K:  4.447e-02  alpha:  7.260e-03  linmin:  8.007e-02  cgtest:  6.776e-01  t[s]:    177.58
LCAOMinimize: 	Step increased G by 2.358185e+01, reducing alpha to 1.568564e-03.
	FillingsUpdate:  mu: -0.145010000  nElectrons: 872.000000
LCAOMinimize: Iter:   8  G: -8723.6368205820836010  |grad|_K:  4.167e-02  alpha:  1.569e-03  linmin: -1.220e-01  cgtest:  9.677e-01  t[s]:    207.69
LCAOMinimize: Encountered beta<0, resetting CG.
LCAOMinimize: 	Predicted alpha/alphaT>3.000000, increasing alphaT to 4.705691e-03.
	FillingsUpdate:  mu: -0.145010000  nElectrons: 872.000000
LCAOMinimize: Iter:   9  G: -8747.4991686648445466  |grad|_K:  3.518e-02  alpha:  1.354e-02  linmin:  1.498e-01  cgtest: -5.537e-01  t[s]:    229.76
LCAOMinimize: 	Bad step direction: g.d > 0.
LCAOMinimize: 	Undoing step.
LCAOMinimize: 	Step failed: resetting search direction.
	FillingsUpdate:  mu: -0.145010000  nElectrons: 872.000000
LCAOMinimize: Iter:  10  G: -8747.4991686648445466  |grad|_K:  3.518e-02  alpha:  0.000e+00
	FillingsUpdate:  mu: -0.145010000  nElectrons: 872.000000
LCAOMinimize: Iter:  11  G: -8761.5996451776554750  |grad|_K:  1.147e-02  alpha:  5.602e-03  linmin: -2.263e-02  cgtest:  2.611e-02  t[s]:    259.76
LCAOMinimize: 	Predicted alpha/alphaT>3.000000, increasing alphaT to 1.680556e-02.
	FillingsUpdate:  mu: -0.145010000  nElectrons: 872.000000
LCAOMinimize: Iter:  12  G: -8766.8279263515087223  |grad|_K:  8.091e-03  alpha:  2.044e-02  linmin: -8.948e-02  cgtest:  1.455e-01  t[s]:    281.73
	FillingsUpdate:  mu: -0.145010000  nElectrons: 872.000000
LCAOMinimize: Iter:  13  G: -8769.7920362878030573  |grad|_K:  1.007e-02  alpha:  2.211e-02  linmin:  3.768e-02  cgtest: -3.120e-02  t[s]:    299.07
	FillingsUpdate:  mu: -0.145010000  nElectrons: 872.000000
LCAOMinimize: Iter:  14  G: -8771.5813805375200900  |grad|_K:  1.178e-02  alpha:  1.521e-02  linmin: -5.901e-04  cgtest:  5.758e-01  t[s]:    316.41
	FillingsUpdate:  mu: -0.145010000  nElectrons: 872.000000
LCAOMinimize: Iter:  15  G: -8777.8666610048676375  |grad|_K:  7.562e-03  alpha:  2.430e-02  linmin: -1.578e-02  cgtest: -2.197e-01  t[s]:    333.82
	FillingsUpdate:  mu: -0.145010000  nElectrons: 872.000000
LCAOMinimize: Iter:  16  G: -8779.4182536277621693  |grad|_K:  7.067e-03  alpha:  1.491e-02  linmin:  4.144e-03  cgtest: -2.811e-01  t[s]:    351.22
	FillingsUpdate:  mu: -0.145010000  nElectrons: 872.000000
LCAOMinimize: Iter:  17  G: -8781.8795184092505224  |grad|_K:  3.574e-03  alpha:  2.706e-02  linmin: -1.964e-02  cgtest:  4.574e-01  t[s]:    368.53
	FillingsUpdate:  mu: -0.145010000  nElectrons: 872.000000
LCAOMinimize: Iter:  18  G: -8782.2116462885660439  |grad|_K:  2.676e-03  alpha:  1.475e-02  linmin:  6.553e-03  cgtest: -4.115e-02  t[s]:    385.88
	FillingsUpdate:  mu: -0.145010000  nElectrons: 872.000000
LCAOMinimize: Iter:  19  G: -8782.4605434956010868  |grad|_K:  1.096e-03  alpha:  1.949e-02  linmin: -1.896e-02  cgtest:  1.575e-01  t[s]:    403.19
	FillingsUpdate:  mu: -0.145010000  nElectrons: 872.000000
LCAOMinimize: Iter:  20  G: -8782.5651186431514361  |grad|_K:  1.865e-03  alpha:  5.020e-02  linmin:  1.070e-02  cgtest: -6.835e-02  t[s]:    420.52
	FillingsUpdate:  mu: -0.145010000  nElectrons: 872.000000
LCAOMinimize: Iter:  21  G: -8782.6881603139408980  |grad|_K:  1.576e-03  alpha:  2.093e-02  linmin:  4.782e-03  cgtest:  2.182e-01  t[s]:    437.82
	FillingsUpdate:  mu: -0.145010000  nElectrons: 872.000000
LCAOMinimize: Iter:  22  G: -8782.8257604796253872  |grad|_K:  5.356e-04  alpha:  3.220e-02  linmin:  2.436e-02  cgtest: -4.153e-01  t[s]:    455.14
LCAOMinimize: 	Predicted alpha/alphaT>3.000000, increasing alphaT to 9.661476e-02.
	FillingsUpdate:  mu: -0.145010000  nElectrons: 872.000000
LCAOMinimize: Iter:  23  G: -8782.8642708488114295  |grad|_K:  3.808e-04  alpha:  8.431e-02  linmin:  1.459e-02  cgtest:  1.799e-01  t[s]:    477.14
	FillingsUpdate:  mu: -0.145010000  nElectrons: 872.000000
LCAOMinimize: Iter:  24  G: -8782.8689855116190301  |grad|_K:  3.105e-04  alpha:  1.857e-02  linmin: -6.712e-03  cgtest:  1.059e-01  t[s]:    494.48
	FillingsUpdate:  mu: -0.145010000  nElectrons: 872.000000
LCAOMinimize: Iter:  25  G: -8782.8732643964940507  |grad|_K:  1.698e-04  alpha:  2.345e-02  linmin: -4.665e-02  cgtest:  9.485e-02  t[s]:    511.80
	FillingsUpdate:  mu: -0.145010000  nElectrons: 872.000000
LCAOMinimize: Iter:  26  G: -8782.8747568067901739  |grad|_K:  1.075e-04  alpha:  2.537e-02  linmin: -1.206e-01  cgtest:  3.369e-01  t[s]:    529.09
	FillingsUpdate:  mu: -0.145010000  nElectrons: 872.000000
LCAOMinimize: Iter:  27  G: -8782.8752268132902827  |grad|_K:  1.001e-04  alpha:  2.126e-02  linmin: -1.304e-01  cgtest:  3.593e-01  t[s]:    546.41
	FillingsUpdate:  mu: -0.145010000  nElectrons: 872.000000
LCAOMinimize: Iter:  28  G: -8782.8756663060030405  |grad|_K:  6.916e-05  alpha:  1.956e-02  linmin: -2.739e-01  cgtest:  5.386e-01  t[s]:    563.76
	FillingsUpdate:  mu: -0.145010000  nElectrons: 872.000000
LCAOMinimize: Iter:  29  G: -8782.8758505211262673  |grad|_K:  6.247e-05  alpha:  1.880e-02  linmin: -3.072e-01  cgtest:  8.075e-01  t[s]:    581.13
	FillingsUpdate:  mu: -0.145010000  nElectrons: 872.000000
LCAOMinimize: Iter:  30  G: -8782.8759789532723516  |grad|_K:  5.845e-05  alpha:  1.762e-02  linmin: -3.048e-01  cgtest:  8.468e-01  t[s]:    598.51
LCAOMinimize: None of the convergence criteria satisfied after 30 iterations.
----- createFluidSolver() ----- (Fluid-side solver setup)
   Initializing fluid molecule 'H2O'
     Initializing site 'O'
       Electron density: proportional to exp(-r/0.36935)*erfc((r-0.51523)/0.36823) with norm 6.826
       Charge density: gaussian nuclear width 0.478731 with net site charge 0.826
       Polarizability: cuspless exponential with width 0.32 and norm 3.73
       Hard sphere radius: 2.57003 bohrs
       Positions in reference frame:
         [ +0.000000 +0.000000 +0.000000 ]
     Initializing site 'H'
       Electron density: proportional to exp(-r/0.34641)*erfc((r-0)/0.390882) with norm 0.587
       Charge density: gaussian nuclear width 0.377945 with net site charge -0.413
       Polarizability: cuspless exponential with width 0.39 and norm 3.3
       Positions in reference frame:
         [ +0.000000 -1.441945 +1.122523 ]
         [ +0.000000 +1.441945 +1.122523 ]
     Net charge: 0   dipole magnitude: 0.927204
     Initializing spherical shell mfKernel with radius 2.61727 Bohr
     deltaS corrections:
       site 'O': -7.54299
       site 'H': -6.83917
   Initializing fluid molecule 'Na+'
     Initializing site 'Na'
       Electron density: proportional to exp(-r/0.19682)*erfc((r-0.71491)/0.41314) with norm 8.1383
       Charge density: gaussian nuclear width 0.365347 with net site charge -1
       Hard sphere radius: 1.86327 bohrs
       Positions in reference frame:
         [ +0.000000 +0.000000 +0.000000 ]
     Net charge: -1   dipole magnitude: 0
     Initializing gaussian mfKernel with width: 1.55004 Bohr
     deltaS corrections:
       site 'Na': -22.3555
   Initializing fluid molecule 'F-'
     Initializing site 'F'
       Electron density: proportional to exp(-r/0.38886)*erfc((r-0)/0.438782) with norm 8
       Charge density: gaussian nuclear width 0.374796 with net site charge 1
       Hard sphere radius: 2.39995 bohrs
       Positions in reference frame:
         [ +0.000000 +0.000000 +0.000000 ]
     Net charge: 1   dipole magnitude: 0
     Initializing gaussian mfKernel with width: 1.59012 Bohr
     deltaS corrections:
       site 'F': -9.04335

Correction to mu due to finite nuclear width = -0.0935753
   Cavity determined by nc: 0.00142 and sigma: 0.707107
   Nonlocal vdW cavity from gaussian model electron density with norm = 8 and sigma = 0.993594 bohr
   Charge asymmetry in cavity with sensitivity pCavity = 36.5 e-bohr/Eh
   Electrostatic cavity expanded by eta = 1.46 bohrs
   Weighted density cavitation model constrained by Nbulk: 0.0049383 bohr^-3, Pvap: 3.14029 kPa, Rvdw: 2.61727 bohr and sigmaBulk: 4.62e-05 Eh/bohr^2 at T: 298 K.
   Weighted density dispersion model using vdW pair potentials with single solvent site with sqrtC6eff: 0.77 SI.


---- Citations for features of the code used in this run ----

   Software package:
      R. Sundararaman, K. Letchworth-Weaver, K.A. Schwarz, D. Gunceler, Y. Ozhabes and T.A. Arias, 'JDFTx: software for joint density-functional theory', SoftwareX 6, 278 (2017)

   LibXC library of exchange-correlation functions:
      M. A. L. Marques, M. J. T. Oliveira and T. Burnus, Comput. Phys. Commun. 183, 2272 (2012)

   Hammer, Hansen, and Norskov exchange functional:
      B. Hammer, L. B. Hansen, and J. K. Nørskov.,  Phys. Rev. B 59, 7413 (1999)

   Perdew, Burke & Ernzerhof correlation functional:
      J. P. Perdew, K. Burke, and M. Ernzerhof.,  Phys. Rev. Lett. 77, 3865 (1996)

   Pseudopotentials:
      KF Garrity, JW Bennett, KM Rabe and D Vanderbilt, Comput. Mater. Sci. 81, 446 (2014)

   DFT-D2 dispersion correction:
      S. Grimme, J. Comput. Chem. 27, 1787 (2006)

   Charge-asymmetric nonlocally-determined local-electric (CANDLE) solvation model:
      R. Sundararaman and W.A. Goddard III, J. Chem. Phys. 142, 064107 (2015)

   Total energy minimization with Auxiliary Hamiltonian:
      C. Freysoldt, S. Boeck, and J. Neugebauer, Phys. Rev. B 79, 241103(R) (2009)

   Grand-canonical (fixed-potential) DFT:
      R. Sundararaman, W. A. Goddard III and T. A. Arias, J. Chem. Phys. 146, 114104 (2017)

This list may not be complete. Please suggest additional citations or
report any other bugs at https://github.com/shankar1729/jdftx/issues

Initialization completed successfully at t[s]:    603.65

Fluid solver invoked on fresh (random / LCAO) wavefunctions
Running a vacuum solve first:

-------- Initial electronic minimization -----------
	FillingsUpdate:  mu: +0.171000526  nElectrons: 872.000000
ElecMinimize: Iter:   0  G: -8783.088616133465621  |grad|_K:  3.556e-04  alpha:  1.000e+00
	FillingsUpdate:  mu: +0.084543642  nElectrons: 872.000000
	SubspaceRotationAdjust: set factor to 0.81
ElecMinimize: Iter:   1  G: -8786.002173796645366  |grad|_K:  1.820e-04  alpha:  1.009e-01  linmin:  2.142e-04  t[s]:    655.59
	FillingsUpdate:  mu: +0.425362292  nElectrons: 872.000000
	SubspaceRotationAdjust: set factor to 0.426
ElecMinimize: Iter:   2  G: -8787.638573485541201  |grad|_K:  4.011e-04  alpha:  2.085e-01  linmin: -8.473e-05  t[s]:    688.97
	FillingsUpdate:  mu: +0.642976010  nElectrons: 872.000000
	SubspaceRotationAdjust: set factor to 0.261
ElecMinimize: Iter:   3  G: -8788.279307831582628  |grad|_K:  2.499e-04  alpha:  7.685e-02  linmin:  2.328e-04  t[s]:    722.44
	FillingsUpdate:  mu: +0.386824138  nElectrons: 872.000000
	SubspaceRotationAdjust: set factor to 0.202
ElecMinimize: Iter:   4  G: -8789.082146194454253  |grad|_K:  9.840e-05  alpha:  8.026e-02  linmin: -7.278e-05  t[s]:    755.82
	FillingsUpdate:  mu: +0.236534143  nElectrons: 872.000000
	SubspaceRotationAdjust: set factor to 0.237
ElecMinimize: Iter:   5  G: -8789.409148938717408  |grad|_K:  6.364e-05  alpha:  1.361e-01  linmin:  1.423e-05  t[s]:    789.17
	FillingsUpdate:  mu: +0.221022417  nElectrons: 872.000000
	SubspaceRotationAdjust: set factor to 0.239
ElecMinimize: Iter:   6  G: -8789.582047966046957  |grad|_K:  6.007e-05  alpha:  1.787e-01  linmin: -6.905e-05  t[s]:    822.61
	FillingsUpdate:  mu: +0.159595138  nElectrons: 872.000000
	SubspaceRotationAdjust: set factor to 0.233
ElecMinimize: Iter:   7  G: -8789.741273631354488  |grad|_K:  4.336e-05  alpha:  1.811e-01  linmin: -1.095e-04  t[s]:    855.92
	FillingsUpdate:  mu: +0.156271474  nElectrons: 872.000000
	SubspaceRotationAdjust: set factor to 0.303
ElecMinimize: Iter:   8  G: -8789.843247799639357  |grad|_K:  4.078e-05  alpha:  2.255e-01  linmin:  1.526e-04  t[s]:    889.26
	FillingsUpdate:  mu: +0.178172082  nElectrons: 872.000000
	SubspaceRotationAdjust: set factor to 0.35
ElecMinimize: Iter:   9  G: -8789.909880210312622  |grad|_K:  3.911e-05  alpha:  1.714e-01  linmin:  9.526e-06  t[s]:    922.64
	FillingsUpdate:  mu: +0.150961202  nElectrons: 872.000000
	SubspaceRotationAdjust: set factor to 0.457
ElecMinimize: Iter:  10  G: -8790.000614347392911  |grad|_K:  4.194e-05  alpha:  2.524e-01  linmin:  4.931e-05  t[s]:    956.04
	FillingsUpdate:  mu: +0.120066531  nElectrons: 872.000000
	SubspaceRotationAdjust: set factor to 0.47
ElecMinimize: Iter:  11  G: -8790.048835408637387  |grad|_K:  2.921e-05  alpha:  1.136e-01  linmin: -4.841e-05  t[s]:    989.29
	FillingsUpdate:  mu: +0.109400038  nElectrons: 872.000000
	SubspaceRotationAdjust: set factor to 0.496
ElecMinimize: Iter:  12  G: -8790.075203832055195  |grad|_K:  2.566e-05  alpha:  1.263e-01  linmin:  8.396e-06  t[s]:   1022.60
	FillingsUpdate:  mu: +0.115118347  nElectrons: 872.000000
	SubspaceRotationAdjust: set factor to 0.584
ElecMinimize: Iter:  13  G: -8790.100505822965715  |grad|_K:  2.430e-05  alpha:  1.622e-01  linmin:  1.172e-06  t[s]:   1055.93
	FillingsUpdate:  mu: +0.125689948  nElectrons: 872.000000
	SubspaceRotationAdjust: set factor to 0.591
ElecMinimize: Iter:  14  G: -8790.115827453482780  |grad|_K:  1.818e-05  alpha:  1.087e-01  linmin:  1.478e-06  t[s]:   1089.39
	FillingsUpdate:  mu: +0.131992679  nElectrons: 872.000000
	SubspaceRotationAdjust: set factor to 0.621
ElecMinimize: Iter:  15  G: -8790.124453580716363  |grad|_K:  1.674e-05  alpha:  1.097e-01  linmin:  5.131e-06  t[s]:   1122.71
	FillingsUpdate:  mu: +0.135284895  nElectrons: 872.000000
	SubspaceRotationAdjust: set factor to 0.698
ElecMinimize: Iter:  16  G: -8790.131959653152080  |grad|_K:  1.349e-05  alpha:  1.129e-01  linmin:  9.981e-07  t[s]:   1156.18
	FillingsUpdate:  mu: +0.134830716  nElectrons: 872.000000
	SubspaceRotationAdjust: set factor to 0.802
ElecMinimize: Iter:  17  G: -8790.136351025323165  |grad|_K:  1.066e-05  alpha:  1.014e-01  linmin: -1.565e-08  t[s]:   1189.59
	FillingsUpdate:  mu: +0.132565625  nElectrons: 872.000000
	SubspaceRotationAdjust: set factor to 0.867
ElecMinimize: Iter:  18  G: -8790.140355761559476  |grad|_K:  1.064e-05  alpha:  1.477e-01  linmin:  8.550e-07  t[s]:   1222.91
	FillingsUpdate:  mu: +0.133642826  nElectrons: 872.000000
	SubspaceRotationAdjust: set factor to 0.949
ElecMinimize: Iter:  19  G: -8790.143081709746184  |grad|_K:  7.653e-06  alpha:  1.013e-01  linmin:  8.111e-07  t[s]:   1256.41
	FillingsUpdate:  mu: +0.135875934  nElectrons: 872.000000
	SubspaceRotationAdjust: set factor to 0.8
ElecMinimize: Iter:  20  G: -8790.144199113228751  |grad|_K:  7.716e-06  alpha:  8.015e-02  linmin: -8.617e-08  t[s]:   1289.78
	FillingsUpdate:  mu: +0.137091691  nElectrons: 872.000000
	SubspaceRotationAdjust: set factor to 0.64
ElecMinimize: Iter:  21  G: -8790.145233337010723  |grad|_K:  7.205e-06  alpha:  7.287e-02  linmin: -1.301e-07  t[s]:   1323.16
	FillingsUpdate:  mu: +0.135970767  nElectrons: 872.000000
	SubspaceRotationAdjust: set factor to 0.71
ElecMinimize: Iter:  22  G: -8790.146503956808374  |grad|_K:  4.966e-06  alpha:  1.026e-01  linmin: -2.840e-07  t[s]:   1356.59
	FillingsUpdate:  mu: +0.134180827  nElectrons: 872.000000
	SubspaceRotationAdjust: set factor to 0.78
ElecMinimize: Iter:  23  G: -8790.147114688161309  |grad|_K:  4.171e-06  alpha:  1.039e-01  linmin:  3.522e-07  t[s]:   1389.94
	FillingsUpdate:  mu: +0.133127992  nElectrons: 872.000000
	SubspaceRotationAdjust: set factor to 0.735
ElecMinimize: Iter:  24  G: -8790.147589073834752  |grad|_K:  4.924e-06  alpha:  1.144e-01  linmin:  6.360e-07  t[s]:   1423.29
	FillingsUpdate:  mu: +0.133306366  nElectrons: 872.000000
	SubspaceRotationAdjust: set factor to 0.629
ElecMinimize: Iter:  25  G: -8790.148019765059871  |grad|_K:  3.473e-06  alpha:  7.456e-02  linmin:  1.508e-07  t[s]:   1456.67
	FillingsUpdate:  mu: +0.134226051  nElectrons: 872.000000
	SubspaceRotationAdjust: set factor to 0.717
ElecMinimize: Iter:  26  G: -8790.148274217279322  |grad|_K:  2.380e-06  alpha:  8.852e-02  linmin:  4.049e-07  t[s]:   1490.01
	FillingsUpdate:  mu: +0.134522360  nElectrons: 872.000000
	SubspaceRotationAdjust: set factor to 0.771
ElecMinimize: Iter:  27  G: -8790.148476187712731  |grad|_K:  2.646e-06  alpha:  1.497e-01  linmin:  3.859e-07  t[s]:   1523.45
	FillingsUpdate:  mu: +0.134055546  nElectrons: 872.000000
	SubspaceRotationAdjust: set factor to 0.643
ElecMinimize: Iter:  28  G: -8790.148628610195374  |grad|_K:  2.359e-06  alpha:  9.141e-02  linmin:  1.898e-07  t[s]:   1556.88
	FillingsUpdate:  mu: +0.133629555  nElectrons: 872.000000
	SubspaceRotationAdjust: set factor to 0.562
ElecMinimize: Iter:  29  G: -8790.148719601365883  |grad|_K:  1.672e-06  alpha:  6.861e-02  linmin:  2.474e-07  t[s]:   1590.28
	FillingsUpdate:  mu: +0.133690385  nElectrons: 872.000000
	SubspaceRotationAdjust: set factor to 0.637
ElecMinimize: Iter:  30  G: -8790.148803650825357  |grad|_K:  1.528e-06  alpha:  1.262e-01  linmin:  2.150e-07  t[s]:   1623.60
	FillingsUpdate:  mu: +0.133928826  nElectrons: 872.000000
	SubspaceRotationAdjust: set factor to 0.619
ElecMinimize: Iter:  31  G: -8790.148868584281445  |grad|_K:  1.292e-06  alpha:  1.167e-01  linmin:  2.183e-07  t[s]:   1656.99
	FillingsUpdate:  mu: +0.133899933  nElectrons: 872.000000
	SubspaceRotationAdjust: set factor to 0.537
ElecMinimize: Iter:  32  G: -8790.148901552613097  |grad|_K:  1.125e-06  alpha:  8.287e-02  linmin:  1.361e-07  t[s]:   1690.31
	FillingsUpdate:  mu: +0.133729820  nElectrons: 872.000000
	SubspaceRotationAdjust: set factor to 0.549
ElecMinimize: Iter:  33  G: -8790.148936865134601  |grad|_K:  1.001e-06  alpha:  1.171e-01  linmin:  1.298e-07  t[s]:   1723.72
	FillingsUpdate:  mu: +0.133736016  nElectrons: 872.000000
	SubspaceRotationAdjust: set factor to 0.596
ElecMinimize: Iter:  34  G: -8790.148964280971995  |grad|_K:  7.581e-07  alpha:  1.147e-01  linmin:  1.385e-07  t[s]:   1757.00
	FillingsUpdate:  mu: +0.133866074  nElectrons: 872.000000
	SubspaceRotationAdjust: set factor to 0.525
ElecMinimize: Iter:  35  G: -8790.148976817257790  |grad|_K:  6.840e-07  alpha:  9.153e-02  linmin:  2.741e-08  t[s]:   1790.34
	FillingsUpdate:  mu: +0.134049691  nElectrons: 872.000000
	SubspaceRotationAdjust: set factor to 0.5
ElecMinimize: Iter:  36  G: -8790.148990454252271  |grad|_K:  6.417e-07  alpha:  1.223e-01  linmin:  1.333e-08  t[s]:   1823.76
	FillingsUpdate:  mu: +0.134053914  nElectrons: 872.000000
	SubspaceRotationAdjust: set factor to 0.57
ElecMinimize: Iter:  37  G: -8790.149001610539926  |grad|_K:  4.633e-07  alpha:  1.137e-01  linmin:  3.133e-08  t[s]:   1857.18
	FillingsUpdate:  mu: +0.133965351  nElectrons: 872.000000
	SubspaceRotationAdjust: set factor to 0.545
ElecMinimize: Iter:  38  G: -8790.149006917579754  |grad|_K:  4.279e-07  alpha:  1.037e-01  linmin:  2.441e-08  t[s]:   1890.62
	FillingsUpdate:  mu: +0.133881007  nElectrons: 872.000000
	SubspaceRotationAdjust: set factor to 0.501
ElecMinimize: Iter:  39  G: -8790.149011843181142  |grad|_K:  3.710e-07  alpha:  1.129e-01  linmin: -3.525e-08  t[s]:   1923.94
	FillingsUpdate:  mu: +0.133878522  nElectrons: 872.000000
	SubspaceRotationAdjust: set factor to 0.56
ElecMinimize: Iter:  40  G: -8790.149015485763812  |grad|_K:  2.834e-07  alpha:  1.110e-01  linmin:  4.966e-08  t[s]:   1957.19
	FillingsUpdate:  mu: +0.133919428  nElectrons: 872.000000
	SubspaceRotationAdjust: set factor to 0.562
ElecMinimize: Iter:  41  G: -8790.149017932051720  |grad|_K:  2.744e-07  alpha:  1.278e-01  linmin: -2.687e-08  t[s]:   1990.56
	FillingsUpdate:  mu: +0.133947340  nElectrons: 872.000000
	SubspaceRotationAdjust: set factor to 0.505
ElecMinimize: Iter:  42  G: -8790.149019738873903  |grad|_K:  2.239e-07  alpha:  1.006e-01  linmin:  4.061e-08  t[s]:   2023.95
	FillingsUpdate:  mu: +0.133931063  nElectrons: 872.000000
	SubspaceRotationAdjust: set factor to 0.529
ElecMinimize: Iter:  43  G: -8790.149020997932894  |grad|_K:  1.770e-07  alpha:  1.053e-01  linmin: -5.969e-08  t[s]:   2057.37
	FillingsUpdate:  mu: +0.133894987  nElectrons: 872.000000
	SubspaceRotationAdjust: set factor to 0.548
ElecMinimize: Iter:  44  G: -8790.149022045367019  |grad|_K:  1.676e-07  alpha:  1.402e-01  linmin:  6.797e-08  t[s]:   2090.68
	FillingsUpdate:  mu: +0.133889829  nElectrons: 872.000000
	SubspaceRotationAdjust: set factor to 0.53
ElecMinimize: Iter:  45  G: -8790.149022780153246  |grad|_K:  1.424e-07  alpha:  1.098e-01  linmin: -1.863e-08  t[s]:   2124.05
	FillingsUpdate:  mu: +0.133912286  nElectrons: 872.000000
	SubspaceRotationAdjust: set factor to 0.506
ElecMinimize: Iter:  46  G: -8790.149023262514675  |grad|_K:  1.130e-07  alpha:  9.985e-02  linmin:  6.827e-08  t[s]:   2157.34
	FillingsUpdate:  mu: +0.133939086  nElectrons: 872.000000
	SubspaceRotationAdjust: set factor to 0.529
ElecMinimize: Iter:  47  G: -8790.149023649126320  |grad|_K:  9.640e-08  alpha:  1.273e-01  linmin:  3.141e-09  t[s]:   2190.65
	FillingsUpdate:  mu: +0.133934363  nElectrons: 872.000000
	SubspaceRotationAdjust: set factor to 0.56
ElecMinimize: Iter:  48  G: -8790.149023918662351  |grad|_K:  8.733e-08  alpha:  1.217e-01  linmin: -4.909e-08  t[s]:   2224.00
	FillingsUpdate:  mu: +0.133914400  nElectrons: 872.000000
	SubspaceRotationAdjust: set factor to 0.518
ElecMinimize: Iter:  49  G: -8790.149024120202739  |grad|_K:  7.633e-08  alpha:  1.107e-01  linmin:  1.652e-08  t[s]:   2257.30
	FillingsUpdate:  mu: +0.133910625  nElectrons: 872.000000
	SubspaceRotationAdjust: set factor to 0.549
ElecMinimize: Iter:  50  G: -8790.149024266798733  |grad|_K:  5.558e-08  alpha:  1.055e-01  linmin:  7.606e-08  t[s]:   2290.72
	FillingsUpdate:  mu: +0.133926754  nElectrons: 872.000000
	SubspaceRotationAdjust: set factor to 0.569
ElecMinimize: Iter:  51  G: -8790.149024358390307  |grad|_K:  4.988e-08  alpha:  1.241e-01  linmin: -1.713e-07  t[s]:   2324.06
	FillingsUpdate:  mu: +0.133936636  nElectrons: 872.000000
	SubspaceRotationAdjust: set factor to 0.552
ElecMinimize: Iter:  52  G: -8790.149024436041145  |grad|_K:  4.759e-08  alpha:  1.304e-01  linmin: -7.469e-08  t[s]:   2357.38
ElecMinimize: Converged (|Delta G|<1.000000e-07 for 2 iters).
Setting wave functions to eigenvectors of Hamiltonian
Vacuum energy after initial minimize, F = -8790.149024436041145

Shifting auxilliary hamiltonian by -0.278947 to set nElectrons=872.000000

-------- Electronic minimization -----------
	Linear fluid (dielectric constant: 78.4, screening length: 5.74355 Bohr) occupying 0.375368 of unit cell:	Completed after 27 iterations at t[s]:   2365.68
	FillingsUpdate:  mu: -0.145010000  nElectrons: 872.000000
ElecMinimize: Iter:   0  G: -8790.152224468702116  |grad|_K:  2.081e-05  alpha:  1.000e+00
	Linear fluid (dielectric constant: 78.4, screening length: 5.74355 Bohr) occupying 0.463894 of unit cell:	Completed after 32 iterations at t[s]:   2394.90
	Linear fluid (dielectric constant: 78.4, screening length: 5.74355 Bohr) occupying 0.375896 of unit cell:	Completed after 29 iterations at t[s]:   2406.47
	FillingsUpdate:  mu: -0.145010000  nElectrons: 872.296585
	SubspaceRotationAdjust: set factor to 0.286
ElecMinimize: Iter:   1  G: -8790.153187236119265  |grad|_K:  2.167e-05  alpha:  4.116e-02  linmin:  2.124e-02  t[s]:   2420.04
	Linear fluid (dielectric constant: 78.4, screening length: 5.74355 Bohr) occupying 0.376178 of unit cell:	Completed after 20 iterations at t[s]:   2433.63
	Linear fluid (dielectric constant: 78.4, screening length: 5.74355 Bohr) occupying 0.376759 of unit cell:	Completed after 21 iterations at t[s]:   2444.54
	FillingsUpdate:  mu: -0.145010000  nElectrons: 872.472184
	SubspaceRotationAdjust: set factor to 0.153
ElecMinimize: Iter:   2  G: -8790.156089309857634  |grad|_K:  1.542e-05  alpha:  1.069e-01  linmin: -3.672e-04  t[s]:   2458.09
	Linear fluid (dielectric constant: 78.4, screening length: 5.74355 Bohr) occupying 0.376004 of unit cell:	Completed after 21 iterations at t[s]:   2471.82
	Linear fluid (dielectric constant: 78.4, screening length: 5.74355 Bohr) occupying 0.376442 of unit cell:	Completed after 20 iterations at t[s]:   2482.61
	FillingsUpdate:  mu: -0.145010000  nElectrons: 872.360704
	SubspaceRotationAdjust: set factor to 0.136
ElecMinimize: Iter:   3  G: -8790.158514105285576  |grad|_K:  4.765e-06  alpha:  4.182e-02  linmin: -1.715e-04  t[s]:   2496.29
	Linear fluid (dielectric constant: 78.4, screening length: 5.74355 Bohr) occupying 0.376403 of unit cell:	Completed after 15 iterations at t[s]:   2509.47
ElecMinimize: 	Predicted alpha/alphaT>3.000000, increasing alphaT to 1.254450e-01.
	Linear fluid (dielectric constant: 78.4, screening length: 5.74355 Bohr) occupying 0.376325 of unit cell:	Completed after 17 iterations at t[s]:   2520.23
	Linear fluid (dielectric constant: 78.4, screening length: 5.74355 Bohr) occupying 0.376282 of unit cell:	Completed after 15 iterations at t[s]:   2531.05
	FillingsUpdate:  mu: -0.145010000  nElectrons: 872.342031
	SubspaceRotationAdjust: set factor to 0.18
ElecMinimize: Iter:   4  G: -8790.159450816701792  |grad|_K:  4.802e-06  alpha:  1.718e-01  linmin:  1.612e-05  t[s]:   2544.54
	Linear fluid (dielectric constant: 78.4, screening length: 5.74355 Bohr) occupying 0.376290 of unit cell:	Completed after 19 iterations at t[s]:   2558.14
	Linear fluid (dielectric constant: 78.4, screening length: 5.74355 Bohr) occupying 0.376292 of unit cell:	Completed after 15 iterations at t[s]:   2568.65
	FillingsUpdate:  mu: -0.145010000  nElectrons: 872.398383
	SubspaceRotationAdjust: set factor to 0.159
ElecMinimize: Iter:   5  G: -8790.160589326658737  |grad|_K:  3.736e-06  alpha:  2.075e-01  linmin: -5.273e-06  t[s]:   2582.23
	Linear fluid (dielectric constant: 78.4, screening length: 5.74355 Bohr) occupying 0.376345 of unit cell:	Completed after 17 iterations at t[s]:   2595.58
	Linear fluid (dielectric constant: 78.4, screening length: 5.74355 Bohr) occupying 0.376327 of unit cell:	Completed after 15 iterations at t[s]:   2606.19
	FillingsUpdate:  mu: -0.145010000  nElectrons: 872.388237
	SubspaceRotationAdjust: set factor to 0.203
ElecMinimize: Iter:   6  G: -8790.161062452785700  |grad|_K:  3.569e-06  alpha:  1.421e-01  linmin:  2.920e-06  t[s]:   2619.66
	Linear fluid (dielectric constant: 78.4, screening length: 5.74355 Bohr) occupying 0.376546 of unit cell:	Completed after 12 iterations at t[s]:   2632.74
	Linear fluid (dielectric constant: 78.4, screening length: 5.74355 Bohr) occupying 0.376803 of unit cell:	Completed after 12 iterations at t[s]:   2642.91
	FillingsUpdate:  mu: -0.145010000  nElectrons: 872.428761
	SubspaceRotationAdjust: set factor to 0.234
ElecMinimize: Iter:   7  G: -8790.161952148289856  |grad|_K:  3.265e-06  alpha:  2.920e-01  linmin: -2.150e-05  t[s]:   2656.41
	Linear fluid (dielectric constant: 78.4, screening length: 5.74355 Bohr) occupying 0.377306 of unit cell:	Completed after 20 iterations at t[s]:   2670.07
	Linear fluid (dielectric constant: 78.4, screening length: 5.74355 Bohr) occupying 0.377095 of unit cell:	Completed after 16 iterations at t[s]:   2680.66
	FillingsUpdate:  mu: -0.145010000  nElectrons: 872.495158
	SubspaceRotationAdjust: set factor to 0.198
ElecMinimize: Iter:   8  G: -8790.162404212076581  |grad|_K:  3.861e-06  alpha:  1.772e-01  linmin:  4.549e-06  t[s]:   2694.27
	Linear fluid (dielectric constant: 78.4, screening length: 5.74355 Bohr) occupying 0.376984 of unit cell:	Completed after 16 iterations at t[s]:   2707.68
	Linear fluid (dielectric constant: 78.4, screening length: 5.74355 Bohr) occupying 0.377007 of unit cell:	Completed after 13 iterations at t[s]:   2717.95
	FillingsUpdate:  mu: -0.145010000  nElectrons: 872.505027
	SubspaceRotationAdjust: set factor to 0.162
ElecMinimize: Iter:   9  G: -8790.162894983355727  |grad|_K:  3.004e-06  alpha:  1.384e-01  linmin:  1.504e-06  t[s]:   2731.63
	Linear fluid (dielectric constant: 78.4, screening length: 5.74355 Bohr) occupying 0.376998 of unit cell:	Completed after 17 iterations at t[s]:   2745.18
	Linear fluid (dielectric constant: 78.4, screening length: 5.74355 Bohr) occupying 0.376998 of unit cell:	Completed after 9 iterations at t[s]:   2755.06
	FillingsUpdate:  mu: -0.145010000  nElectrons: 872.546393
	SubspaceRotationAdjust: set factor to 0.186
ElecMinimize: Iter:  10  G: -8790.163166172038473  |grad|_K:  1.999e-06  alpha:  1.262e-01  linmin:  6.870e-07  t[s]:   2768.62
	Linear fluid (dielectric constant: 78.4, screening length: 5.74355 Bohr) occupying 0.376975 of unit cell:	Completed after 15 iterations at t[s]:   2781.80
	Linear fluid (dielectric constant: 78.4, screening length: 5.74355 Bohr) occupying 0.376965 of unit cell:	Completed after 11 iterations at t[s]:   2791.95
	FillingsUpdate:  mu: -0.145010000  nElectrons: 872.577740
	SubspaceRotationAdjust: set factor to 0.182
ElecMinimize: Iter:  11  G: -8790.163340754208548  |grad|_K:  1.913e-06  alpha:  1.834e-01  linmin: -2.961e-07  t[s]:   2805.57
	Linear fluid (dielectric constant: 78.4, screening length: 5.74355 Bohr) occupying 0.376751 of unit cell:	Completed after 15 iterations at t[s]:   2818.73
	Linear fluid (dielectric constant: 78.4, screening length: 5.74355 Bohr) occupying 0.376808 of unit cell:	Completed after 11 iterations at t[s]:   2829.19
	FillingsUpdate:  mu: -0.145010000  nElectrons: 872.566926
	SubspaceRotationAdjust: set factor to 0.161
ElecMinimize: Iter:  12  G: -8790.163457876584289  |grad|_K:  1.501e-06  alpha:  1.342e-01  linmin:  9.686e-08  t[s]:   2842.74
	Linear fluid (dielectric constant: 78.4, screening length: 5.74355 Bohr) occupying 0.376774 of unit cell:	Completed after 15 iterations at t[s]:   2855.99
	Linear fluid (dielectric constant: 78.4, screening length: 5.74355 Bohr) occupying 0.376759 of unit cell:	Completed after 11 iterations at t[s]:   2866.05
	FillingsUpdate:  mu: -0.145010000  nElectrons: 872.577901
	SubspaceRotationAdjust: set factor to 0.175
ElecMinimize: Iter:  13  G: -8790.163560144370422  |grad|_K:  1.477e-06  alpha:  1.905e-01  linmin: -4.077e-07  t[s]:   2879.68
	Linear fluid (dielectric constant: 78.4, screening length: 5.74355 Bohr) occupying 0.376678 of unit cell:	Completed after 15 iterations at t[s]:   2892.93
	Linear fluid (dielectric constant: 78.4, screening length: 5.74355 Bohr) occupying 0.376694 of unit cell:	Completed after 11 iterations at t[s]:   2903.02
	FillingsUpdate:  mu: -0.145010000  nElectrons: 872.586404
	SubspaceRotationAdjust: set factor to 0.177
ElecMinimize: Iter:  14  G: -8790.163639996804704  |grad|_K:  9.770e-07  alpha:  1.534e-01  linmin: -5.281e-07  t[s]:   2916.66
	Linear fluid (dielectric constant: 78.4, screening length: 5.74355 Bohr) occupying 0.376549 of unit cell:	Completed after 12 iterations at t[s]:   2929.69
	Linear fluid (dielectric constant: 78.4, screening length: 5.74355 Bohr) occupying 0.376569 of unit cell:	Completed after 10 iterations at t[s]:   2939.69
	FillingsUpdate:  mu: -0.145010000  nElectrons: 872.576582
	SubspaceRotationAdjust: set factor to 0.156
ElecMinimize: Iter:  15  G: -8790.163670101212119  |grad|_K:  9.001e-07  alpha:  1.323e-01  linmin: -1.312e-06  t[s]:   2953.29
	Linear fluid (dielectric constant: 78.4, screening length: 5.74355 Bohr) occupying 0.376476 of unit cell:	Completed after 11 iterations at t[s]:   2966.29
	Linear fluid (dielectric constant: 78.4, screening length: 5.74355 Bohr) occupying 0.376397 of unit cell:	Completed after 10 iterations at t[s]:   2976.35
	FillingsUpdate:  mu: -0.145010000  nElectrons: 872.584340
	SubspaceRotationAdjust: set factor to 0.191
ElecMinimize: Iter:  16  G: -8790.163717162906323  |grad|_K:  8.539e-07  alpha:  2.433e-01  linmin: -6.787e-07  t[s]:   2989.91
	Linear fluid (dielectric constant: 78.4, screening length: 5.74355 Bohr) occupying 0.376255 of unit cell:	Completed after 13 iterations at t[s]:   3002.99
	Linear fluid (dielectric constant: 78.4, screening length: 5.74355 Bohr) occupying 0.376327 of unit cell:	Completed after 11 iterations at t[s]:   3013.17
	FillingsUpdate:  mu: -0.145010000  nElectrons: 872.591450
	SubspaceRotationAdjust: set factor to 0.202
ElecMinimize: Iter:  17  G: -8790.163738145707612  |grad|_K:  5.825e-07  alpha:  1.208e-01  linmin: -2.549e-07  t[s]:   3026.82
	Linear fluid (dielectric constant: 78.4, screening length: 5.74355 Bohr) occupying 0.376271 of unit cell:	Completed after 11 iterations at t[s]:   3039.78
	Linear fluid (dielectric constant: 78.4, screening length: 5.74355 Bohr) occupying 0.376230 of unit cell:	Completed after 10 iterations at t[s]:   3049.80
	FillingsUpdate:  mu: -0.145010000  nElectrons: 872.587300
	SubspaceRotationAdjust: set factor to 0.194
ElecMinimize: Iter:  18  G: -8790.163755020083045  |grad|_K:  7.143e-07  alpha:  2.083e-01  linmin: -8.403e-07  t[s]:   3063.51
	Linear fluid (dielectric constant: 78.4, screening length: 5.74355 Bohr) occupying 0.376142 of unit cell:	Completed after 13 iterations at t[s]:   3076.73
	Linear fluid (dielectric constant: 78.4, screening length: 5.74355 Bohr) occupying 0.376162 of unit cell:	Completed after 10 iterations at t[s]:   3086.98
	FillingsUpdate:  mu: -0.145010000  nElectrons: 872.593640
	SubspaceRotationAdjust: set factor to 0.191
ElecMinimize: Iter:  19  G: -8790.163774680228016  |grad|_K:  5.594e-07  alpha:  1.612e-01  linmin: -1.269e-07  t[s]:   3100.51
	Linear fluid (dielectric constant: 78.4, screening length: 5.74355 Bohr) occupying 0.376093 of unit cell:	Completed after 8 iterations at t[s]:   3113.30
	Linear fluid (dielectric constant: 78.4, screening length: 5.74355 Bohr) occupying 0.376093 of unit cell:	Completed after 0 iterations at t[s]:   3122.47
	FillingsUpdate:  mu: -0.145010000  nElectrons: 872.594270
	SubspaceRotationAdjust: set factor to 0.216
ElecMinimize: Iter:  20  G: -8790.163786776356574  |grad|_K:  4.656e-07  alpha:  1.621e-01  linmin: -2.654e-07  t[s]:   3136.04
	Linear fluid (dielectric constant: 78.4, screening length: 5.74355 Bohr) occupying 0.376018 of unit cell:	Completed after 11 iterations at t[s]:   3149.02
	Linear fluid (dielectric constant: 78.4, screening length: 5.74355 Bohr) occupying 0.376013 of unit cell:	Completed after 1 iterations at t[s]:   3158.43
	FillingsUpdate:  mu: -0.145010000  nElectrons: 872.592299
	SubspaceRotationAdjust: set factor to 0.215
ElecMinimize: Iter:  21  G: -8790.163795775843028  |grad|_K:  4.315e-07  alpha:  1.738e-01  linmin: -2.408e-06  t[s]:   3171.99
	Linear fluid (dielectric constant: 78.4, screening length: 5.74355 Bohr) occupying 0.375964 of unit cell:	Completed after 11 iterations at t[s]:   3184.89
	Linear fluid (dielectric constant: 78.4, screening length: 5.74355 Bohr) occupying 0.375974 of unit cell:	Completed after 8 iterations at t[s]:   3194.94
	FillingsUpdate:  mu: -0.145010000  nElectrons: 872.596997
	SubspaceRotationAdjust: set factor to 0.172
ElecMinimize: Iter:  22  G: -8790.163801997248811  |grad|_K:  3.752e-07  alpha:  1.381e-01  linmin:  1.342e-06  t[s]:   3208.50
	Linear fluid (dielectric constant: 78.4, screening length: 5.74355 Bohr) occupying 0.375918 of unit cell:	Completed after 11 iterations at t[s]:   3221.44
	Linear fluid (dielectric constant: 78.4, screening length: 5.74355 Bohr) occupying 0.375916 of unit cell:	Completed after 0 iterations at t[s]:   3230.76
	FillingsUpdate:  mu: -0.145010000  nElectrons: 872.595157
	SubspaceRotationAdjust: set factor to 0.163
ElecMinimize: Iter:  23  G: -8790.163806755672340  |grad|_K:  2.625e-07  alpha:  1.428e-01  linmin: -1.594e-06  t[s]:   3244.30
	Linear fluid (dielectric constant: 78.4, screening length: 5.74355 Bohr) occupying 0.375895 of unit cell:	Completed after 3 iterations at t[s]:   3256.73
	Linear fluid (dielectric constant: 78.4, screening length: 5.74355 Bohr) occupying 0.375895 of unit cell:	Completed after 0 iterations at t[s]:   3265.92
	FillingsUpdate:  mu: -0.145010000  nElectrons: 872.595392
	SubspaceRotationAdjust: set factor to 0.19
ElecMinimize: Iter:  24  G: -8790.163809120916994  |grad|_K:  1.931e-07  alpha:  1.427e-01  linmin: -4.542e-07  t[s]:   3279.50
	Linear fluid (dielectric constant: 78.4, screening length: 5.74355 Bohr) occupying 0.375892 of unit cell:	Completed after 8 iterations at t[s]:   3292.30
	Linear fluid (dielectric constant: 78.4, screening length: 5.74355 Bohr) occupying 0.375891 of unit cell:	Completed after 2 iterations at t[s]:   3301.71
	FillingsUpdate:  mu: -0.145010000  nElectrons: 872.597117
	SubspaceRotationAdjust: set factor to 0.179
ElecMinimize: Iter:  25  G: -8790.163810558171463  |grad|_K:  1.544e-07  alpha:  1.618e-01  linmin:  3.435e-07  t[s]:   3315.23
	Linear fluid (dielectric constant: 78.4, screening length: 5.74355 Bohr) occupying 0.375879 of unit cell:	Completed after 6 iterations at t[s]:   3327.84
	Linear fluid (dielectric constant: 78.4, screening length: 5.74355 Bohr) occupying 0.375878 of unit cell:	Completed after 0 iterations at t[s]:   3337.19
	FillingsUpdate:  mu: -0.145010000  nElectrons: 872.596587
	SubspaceRotationAdjust: set factor to 0.187
ElecMinimize: Iter:  26  G: -8790.163811505322883  |grad|_K:  1.179e-07  alpha:  1.670e-01  linmin:  1.672e-07  t[s]:   3350.77
	Linear fluid (dielectric constant: 78.4, screening length: 5.74355 Bohr) occupying 0.375866 of unit cell:	Completed after 6 iterations at t[s]:   3363.38
	Linear fluid (dielectric constant: 78.4, screening length: 5.74355 Bohr) occupying 0.375867 of unit cell:	Completed after 0 iterations at t[s]:   3372.61
	FillingsUpdate:  mu: -0.145010000  nElectrons: 872.596341
	SubspaceRotationAdjust: set factor to 0.209
ElecMinimize: Iter:  27  G: -8790.163811977818114  |grad|_K:  9.331e-08  alpha:  1.432e-01  linmin:  1.991e-07  t[s]:   3386.15
	Linear fluid (dielectric constant: 78.4, screening length: 5.74355 Bohr) occupying 0.375862 of unit cell:	Completed after 7 iterations at t[s]:   3398.82
	Linear fluid (dielectric constant: 78.4, screening length: 5.74355 Bohr) occupying 0.375863 of unit cell:	Completed after 1 iterations at t[s]:   3408.21
	FillingsUpdate:  mu: -0.145010000  nElectrons: 872.597206
	SubspaceRotationAdjust: set factor to 0.17
ElecMinimize: Iter:  28  G: -8790.163812235559817  |grad|_K:  8.056e-08  alpha:  1.249e-01  linmin:  2.680e-06  t[s]:   3421.84
	Linear fluid (dielectric constant: 78.4, screening length: 5.74355 Bohr) occupying 0.375853 of unit cell:	Completed after 6 iterations at t[s]:   3434.41
	Linear fluid (dielectric constant: 78.4, screening length: 5.74355 Bohr) occupying 0.375853 of unit cell:	Completed after 0 iterations at t[s]:   3443.60
	FillingsUpdate:  mu: -0.145010000  nElectrons: 872.596686
	SubspaceRotationAdjust: set factor to 0.162
ElecMinimize: Iter:  29  G: -8790.163812421345938  |grad|_K:  5.947e-08  alpha:  1.243e-01  linmin: -1.369e-06  t[s]:   3457.20
	Linear fluid (dielectric constant: 78.4, screening length: 5.74355 Bohr) occupying 0.375849 of unit cell:	Completed after 1 iterations at t[s]:   3469.39
	Linear fluid (dielectric constant: 78.4, screening length: 5.74355 Bohr) occupying 0.375848 of unit cell:	Completed after 0 iterations at t[s]:   3478.62
	FillingsUpdate:  mu: -0.145010000  nElectrons: 872.596562
	SubspaceRotationAdjust: set factor to 0.199
ElecMinimize: Iter:  30  G: -8790.163812546225017  |grad|_K:  4.376e-08  alpha:  1.431e-01  linmin: -1.776e-06  t[s]:   3492.18
	Linear fluid (dielectric constant: 78.4, screening length: 5.74355 Bohr) occupying 0.375847 of unit cell:	Completed after 2 iterations at t[s]:   3504.49
	Linear fluid (dielectric constant: 78.4, screening length: 5.74355 Bohr) occupying 0.375846 of unit cell:	Completed after 0 iterations at t[s]:   3513.63
	FillingsUpdate:  mu: -0.145010000  nElectrons: 872.596852
	SubspaceRotationAdjust: set factor to 0.234
ElecMinimize: Iter:  31  G: -8790.163812635073555  |grad|_K:  3.919e-08  alpha:  1.863e-01  linmin: -1.685e-06  t[s]:   3527.18
	Linear fluid (dielectric constant: 78.4, screening length: 5.74355 Bohr) occupying 0.375845 of unit cell:	Completed after 6 iterations at t[s]:   3539.77
	Linear fluid (dielectric constant: 78.4, screening length: 5.74355 Bohr) occupying 0.375846 of unit cell:	Completed after 1 iterations at t[s]:   3549.11
	FillingsUpdate:  mu: -0.145010000  nElectrons: 872.597107
	SubspaceRotationAdjust: set factor to 0.155
ElecMinimize: Iter:  32  G: -8790.163812673721623  |grad|_K:  5.409e-08  alpha:  1.151e-01  linmin:  1.284e-06  t[s]:   3562.62
ElecMinimize: Converged (|Delta G|<1.000000e-07 for 2 iters).
Setting wave functions to eigenvectors of Hamiltonian
Single-point solvation energy estimate, DeltaG = -0.014788237680477

# Ionic positions in cartesian coordinates:
ion Cu   0.000000000000000   2.854467000000000   0.000000000000000 0
ion Cu   4.944081000000001   2.854467000000000   0.000000000000000 0
ion Cu   9.888161999999998   2.854467000000000   0.000000000000000 0
ion Cu   2.472041000000000   7.136167000000000   0.000000000000000 0
ion Cu   7.416122000000000   7.136167000000000   0.000000000000000 0
ion Cu  12.360203000000002   7.136167000000000   0.000000000000000 0
ion Cu   4.944081000000000  11.417866000000000   0.000000000000000 0
ion Cu   9.888161999999999  11.417866000000000   0.000000000000000 0
ion Cu  14.832243999999999  11.417866000000000   0.000000000000000 0
ion Cu   0.000000000000000   0.000000000000000   4.036825000000000 1
ion Cu   4.944081000000000   0.000000000000000   4.036825000000000 1
ion Cu   9.888161999999999   0.000000000000000   4.036825000000000 1
ion Cu   2.472041000000000   4.281700000000000   4.036825000000000 1
ion Cu   7.416122000000001   4.281700000000000   4.036825000000000 1
ion Cu  12.360203000000002   4.281700000000000   4.036825000000000 1
ion Cu   4.944081000000000   8.563400000000000   4.036825000000000 1
ion Cu   9.888161999999999   8.563400000000000   4.036825000000000 1
ion Cu  14.832244000000001   8.563400000000000   4.036825000000000 1
ion Cu   2.472041000000000   1.427233000000000   8.073651000000000 1
ion Cu   7.416122000000000   1.427233000000000   8.073651000000000 1
ion Cu  12.360203000000000   1.427233000000000   8.073651000000000 1
ion Cu   4.944081000000000   5.708933000000000   8.073651000000000 1
ion Cu   9.888161999999999   5.708933000000000   8.073651000000000 1
ion Cu  14.832243999999999   5.708933000000000   8.073651000000000 1
ion Cu   7.416122000000000   9.990633000000001   8.073651000000000 1
ion Cu  12.360203000000002   9.990633000000001   8.073651000000000 1
ion Cu  17.304284000000003   9.990633000000001   8.073651000000000 1
ion Cu   0.000000000000000   2.854467000000000  12.110475999999998 1
ion Cu   4.944081000000001   2.854467000000000  12.110475999999998 1
ion Cu   9.888161999999998   2.854467000000000  12.110475999999998 1
ion Cu   2.472041000000000   7.136167000000000  12.110475999999998 1
ion Cu   7.416122000000000   7.136167000000000  12.110475999999998 1
ion Cu  12.360203000000002   7.136167000000000  12.110475999999998 1
ion Cu   4.944081000000000  11.417866000000000  12.110475999999998 1
ion Cu   9.888161999999999  11.417866000000000  12.110475999999998 1
ion Cu  14.832243999999999  11.417866000000000  12.110475999999998 1
ion Cu   0.000000000000000   0.000000000000000  16.147302000000000 1
ion Cu   4.944081000000000   0.000000000000000  16.147302000000000 1
ion Cu   9.888161999999999   0.000000000000000  16.147302000000000 1
ion Cu   2.472041000000000   4.281700000000000  16.147302000000000 1
ion Cu   4.944081000000000   8.563400000000000  16.147302000000000 1
ion Cu   9.888161999999999   8.563400000000000  16.147302000000000 1
ion Cu  14.832244000000001   8.563400000000000  16.147302000000000 1
ion Pt   7.416122000000001   4.281700000000000  16.147302000000000 1
ion Pt  12.360203000000002   4.281700000000000  16.147302000000000 1
ion N  10.013659000000001   4.344480000000000  21.438535000000002 1
ion O  10.013659000000001   4.344480000000000  23.798282999999998 1
ion O  12.058611000000003   4.344480000000000  20.255491999999997 1
ion O   7.968707000000000   4.344480000000000  20.255491999999997 1

# Forces in Cartesian coordinates:
force Cu  -0.000104883517500   0.000142509753392   0.002494218019596 0
force Cu   0.000083304695434   0.000025509834831   0.002485852426833 0
force Cu   0.000026460587588   0.000136815007098   0.002680565112386 0
force Cu  -0.000111855399202   0.000016571385414   0.002713768816677 0
force Cu   0.000052180134168  -0.000136255685257   0.002638249671002 0
force Cu   0.000062144480144  -0.000098734354826   0.002644063296523 0
force Cu  -0.000071671164646   0.000010013109539   0.002594439416256 0
force Cu   0.000092577209629  -0.000024594071235   0.002477319114965 0
force Cu  -0.000016212471051  -0.000071656987615   0.002574321624203 0
force Cu   0.000109820171110  -0.000127368302011   0.000024697283918 1
force Cu  -0.000194462851011  -0.000125953142885   0.000005223049460 1
force Cu   0.000088610579521  -0.000289935243569  -0.000153722811029 1
force Cu  -0.000049224210584  -0.000063686948581  -0.000323615422390 1
force Cu  -0.000108005085710   0.000031707767870   0.000057022973409 1
force Cu   0.000169100669392  -0.000051508109004   0.000104545471984 1
force Cu  -0.000080839260122   0.000196080744354  -0.000126671171011 1
force Cu  -0.000052052027257   0.000353375007759  -0.000194502778425 1
force Cu   0.000129569188658   0.000121444182144  -0.000117052307337 1
force Cu   0.000089053054690   0.000835015704476   0.001564078968391 1
force Cu   0.000608363853686   0.000035029295797  -0.000305773851732 1
force Cu  -0.000684548091958  -0.000072565123117  -0.000376324182230 1
force Cu  -0.000443854731904   0.000076963011559  -0.000779303985873 1
force Cu  -0.000125655068396   0.000436804067800  -0.001722849291502 1
force Cu   0.000584444305213   0.000136282390729  -0.000767630761730 1
force Cu  -0.000002267145021  -0.000710226108627   0.001072752453473 1
force Cu  -0.000016508435251  -0.000607215799050   0.001069426477952 1
force Cu   0.000020449771811   0.000026382016704   0.000828098242517 1
force Cu  -0.000772934984773   0.000640347774888  -0.002594545326627 1
force Cu   0.000800699355965   0.000696154228954  -0.002137552919866 1
force Cu   0.000338116590815  -0.001617695364205  -0.008856047889256 1
force Cu  -0.000147184762438   0.001033547928631  -0.001061560264299 1
force Cu  -0.001405976037390   0.000906658379626  -0.004283965865751 1
force Cu   0.001355971122667   0.000798775909163  -0.004262150962191 1
force Cu  -0.000431177176057  -0.001115371901710  -0.000575028282870 1
force Cu   0.000065474753245  -0.000531865494884  -0.000280728116329 1
force Cu   0.000346056435969  -0.001235798426446  -0.000602269621864 1
force Cu   0.003106549991379  -0.004965961809025  -0.003153300582064 1
force Cu  -0.003143396051811  -0.004730490184790  -0.002991838522320 1
force Cu   0.000043804565388  -0.012440043686928  -0.004216246387120 1
force Cu   0.000230357860608   0.000114829824518  -0.001912799030590 1
force Cu  -0.003119004824778   0.004906623620889  -0.003267268547900 1
force Cu  -0.000128044099136   0.012838317816953  -0.004596825107284 1
force Cu   0.003230726194926   0.005039350855147  -0.003440565660811 1
force Pt  -0.023061877123345  -0.000047082110347  -0.008210913184117 1
force Pt   0.024040148469181   0.000060740385936  -0.009325052375014 1
force N  -0.002077246614923  -0.000381384768263   0.015453821236326 1
force O   0.000317433644037   0.000374507759648   0.009683285852439 1
force O   0.035688377357576  -0.000036012607578   0.006686674271976 1
force O  -0.035451838775208  -0.000086373511365   0.008846433401802 1

# Energy components:
   A_diel =       -0.1438991025969404
   Eewald =    28116.4296160240410245
       EH =    36306.7002283628025907
     Eloc =   -75022.8161384147388162
      Enl =     1583.9566742377792252
      Exc =     -906.5781177111427951
 Exc_core =       35.3556067894520183
       KE =      970.5380909420772468
  MuShift =       -0.0558744987526390
-------------------------------------
     Etot =    -8916.6138133710755937
       TS =        0.0853058302883383
-------------------------------------
        F =    -8916.6991192013647378
      muN =     -126.5353065276427458
-------------------------------------
        G =    -8790.1638126737216226


Dumping 'fillings' ... done
Dumping 'wfns' ... done
Dumping 'fluidState' ... done
Dumping 'ionpos' ... done
Dumping 'force' ... done
Dumping 'eigenvals' ... done
Dumping 'Ecomponents' ... done
IonicMinimize: Iter:   0  G: -8790.163812673721623  |grad|_K:  6.423e-03  t[s]:   3580.67

#--- Lowdin population analysis ---
# oxidation-state Cu +0.100 +0.101 +0.098 +0.100 +0.099 +0.099 +0.101 +0.102 +0.101 +0.069 +0.069 +0.070 +0.071 +0.070 +0.070 +0.069 +0.070 +0.069 +0.080 +0.085 +0.085 +0.086 +0.087 +0.086 +0.082 +0.082 +0.082 +0.108 +0.108 +0.133 +0.097 +0.113 +0.112 +0.090 +0.085 +0.090 +0.174 +0.173 +0.199 +0.205 +0.173 +0.199 +0.174
# oxidation-state Pt -0.435 -0.434
# oxidation-state N +0.778
# oxidation-state O -0.436 -0.242 -0.245

Shifting auxilliary hamiltonian by -0.000084 to set nElectrons=872.597107

-------- Electronic minimization -----------
	Linear fluid (dielectric constant: 78.4, screening length: 5.74355 Bohr) occupying 0.376025 of unit cell:	Completed after 23 iterations at t[s]:   3594.05
	FillingsUpdate:  mu: -0.145010000  nElectrons: 872.597107
ElecMinimize: Iter:   0  G: -8790.065511996361238  |grad|_K:  3.086e-05  alpha:  1.000e+00
	Linear fluid (dielectric constant: 78.4, screening length: 5.74355 Bohr) occupying 0.382890 of unit cell:	Completed after 27 iterations at t[s]:   3623.08
	Linear fluid (dielectric constant: 78.4, screening length: 5.74355 Bohr) occupying 0.376668 of unit cell:	Completed after 25 iterations at t[s]:   3634.35
	FillingsUpdate:  mu: -0.145010000  nElectrons: 872.791509
	SubspaceRotationAdjust: set factor to 0.146
ElecMinimize: Iter:   1  G: -8790.135491564160475  |grad|_K:  2.870e-05  alpha:  3.114e-01  linmin:  2.341e-04  t[s]:   3647.94
	Linear fluid (dielectric constant: 78.4, screening length: 5.74355 Bohr) occupying 0.373182 of unit cell:	Completed after 22 iterations at t[s]:   3661.79
	Linear fluid (dielectric constant: 78.4, screening length: 5.74355 Bohr) occupying 0.375136 of unit cell:	Completed after 21 iterations at t[s]:   3672.72
	FillingsUpdate:  mu: -0.145010000  nElectrons: 872.541132
	SubspaceRotationAdjust: set factor to 0.0879
ElecMinimize: Iter:   2  G: -8790.156760598212713  |grad|_K:  8.987e-06  alpha:  1.082e-01  linmin: -3.084e-04  t[s]:   3686.26
	Linear fluid (dielectric constant: 78.4, screening length: 5.74355 Bohr) occupying 0.375368 of unit cell:	Completed after 17 iterations at t[s]:   3699.80
	Linear fluid (dielectric constant: 78.4, screening length: 5.74355 Bohr) occupying 0.375516 of unit cell:	Completed after 15 iterations at t[s]:   3710.08
	FillingsUpdate:  mu: -0.145010000  nElectrons: 872.603627
	SubspaceRotationAdjust: set factor to 0.0859
ElecMinimize: Iter:   3  G: -8790.160171846497178  |grad|_K:  7.615e-06  alpha:  1.760e-01  linmin: -1.945e-05  t[s]:   3723.79
	Linear fluid (dielectric constant: 78.4, screening length: 5.74355 Bohr) occupying 0.375675 of unit cell:	Completed after 13 iterations at t[s]:   3736.84
	Linear fluid (dielectric constant: 78.4, screening length: 5.74355 Bohr) occupying 0.375677 of unit cell:	Completed after 2 iterations at t[s]:   3746.59
	FillingsUpdate:  mu: -0.145010000  nElectrons: 872.611972
	SubspaceRotationAdjust: set factor to 0.106
ElecMinimize: Iter:   4  G: -8790.162639656391548  |grad|_K:  4.476e-06  alpha:  1.783e-01  linmin: -5.233e-06  t[s]:   3760.11
	Linear fluid (dielectric constant: 78.4, screening length: 5.74355 Bohr) occupying 0.375564 of unit cell:	Completed after 15 iterations at t[s]:   3773.41
	Linear fluid (dielectric constant: 78.4, screening length: 5.74355 Bohr) occupying 0.375561 of unit cell:	Completed after 7 iterations at t[s]:   3783.27
	FillingsUpdate:  mu: -0.145010000  nElectrons: 872.583055
	SubspaceRotationAdjust: set factor to 0.119
ElecMinimize: Iter:   5  G: -8790.163515262576766  |grad|_K:  2.818e-06  alpha:  1.833e-01  linmin: -1.385e-07  t[s]:   3796.81
	Linear fluid (dielectric constant: 78.4, screening length: 5.74355 Bohr) occupying 0.375549 of unit cell:	Completed after 13 iterations at t[s]:   3810.14
	Linear fluid (dielectric constant: 78.4, screening length: 5.74355 Bohr) occupying 0.375547 of unit cell:	Completed after 9 iterations at t[s]:   3820.09
	FillingsUpdate:  mu: -0.145010000  nElectrons: 872.590258
	SubspaceRotationAdjust: set factor to 0.15
ElecMinimize: Iter:   6  G: -8790.163929431435463  |grad|_K:  2.843e-06  alpha:  2.187e-01  linmin:  3.216e-07  t[s]:   3833.67
	Linear fluid (dielectric constant: 78.4, screening length: 5.74355 Bohr) occupying 0.375526 of unit cell:	Completed after 15 iterations at t[s]:   3846.99
	Linear fluid (dielectric constant: 78.4, screening length: 5.74355 Bohr) occupying 0.375518 of unit cell:	Completed after 13 iterations at t[s]:   3857.40
	FillingsUpdate:  mu: -0.145010000  nElectrons: 872.605405
	SubspaceRotationAdjust: set factor to 0.171
ElecMinimize: Iter:   7  G: -8790.164499434273239  |grad|_K:  3.477e-06  alpha:  2.958e-01  linmin: -4.976e-06  t[s]:   3871.16
	Linear fluid (dielectric constant: 78.4, screening length: 5.74355 Bohr) occupying 0.375340 of unit cell:	Completed after 17 iterations at t[s]:   3884.57
	Linear fluid (dielectric constant: 78.4, screening length: 5.74355 Bohr) occupying 0.375391 of unit cell:	Completed after 12 iterations at t[s]:   3894.92
	FillingsUpdate:  mu: -0.145010000  nElectrons: 872.592060
	SubspaceRotationAdjust: set factor to 0.204
ElecMinimize: Iter:   8  G: -8790.165116555137502  |grad|_K:  3.085e-06  alpha:  2.138e-01  linmin: -4.698e-06  t[s]:   3908.56
	Linear fluid (dielectric constant: 78.4, screening length: 5.74355 Bohr) occupying 0.375413 of unit cell:	Completed after 12 iterations at t[s]:   3921.61
	Linear fluid (dielectric constant: 78.4, screening length: 5.74355 Bohr) occupying 0.375423 of unit cell:	Completed after 10 iterations at t[s]:   3931.82
	FillingsUpdate:  mu: -0.145010000  nElectrons: 872.590071
	SubspaceRotationAdjust: set factor to 0.216
ElecMinimize: Iter:   9  G: -8790.165928804981377  |grad|_K:  4.504e-06  alpha:  3.566e-01  linmin: -6.908e-06  t[s]:   3945.32
	Linear fluid (dielectric constant: 78.4, screening length: 5.74355 Bohr) occupying 0.375376 of unit cell:	Completed after 17 iterations at t[s]:   3958.80
	Linear fluid (dielectric constant: 78.4, screening length: 5.74355 Bohr) occupying 0.375414 of unit cell:	Completed after 17 iterations at t[s]:   3969.51
	FillingsUpdate:  mu: -0.145010000  nElectrons: 872.584421
	SubspaceRotationAdjust: set factor to 0.232
ElecMinimize: Iter:  10  G: -8790.166774412811719  |grad|_K:  2.905e-06  alpha:  1.742e-01  linmin: -2.304e-06  t[s]:   3983.03
	Linear fluid (dielectric constant: 78.4, screening length: 5.74355 Bohr) occupying 0.375420 of unit cell:	Completed after 15 iterations at t[s]:   3996.32
	Linear fluid (dielectric constant: 78.4, screening length: 5.74355 Bohr) occupying 0.375420 of unit cell:	Completed after 2 iterations at t[s]:   4005.82
	FillingsUpdate:  mu: -0.145010000  nElectrons: 872.606201
	SubspaceRotationAdjust: set factor to 0.214
ElecMinimize: Iter:  11  G: -8790.167121740043513  |grad|_K:  2.734e-06  alpha:  1.724e-01  linmin: -3.740e-07  t[s]:   4019.38
	Linear fluid (dielectric constant: 78.4, screening length: 5.74355 Bohr) occupying 0.375133 of unit cell:	Completed after 17 iterations at t[s]:   4032.80
	Linear fluid (dielectric constant: 78.4, screening length: 5.74355 Bohr) occupying 0.375191 of unit cell:	Completed after 13 iterations at t[s]:   4043.05
	FillingsUpdate:  mu: -0.145010000  nElectrons: 872.574988
	SubspaceRotationAdjust: set factor to 0.146
ElecMinimize: Iter:  12  G: -8790.167366712941657  |grad|_K:  2.325e-06  alpha:  1.374e-01  linmin:  1.009e-06  t[s]:   4056.68
	Linear fluid (dielectric constant: 78.4, screening length: 5.74355 Bohr) occupying 0.375239 of unit cell:	Completed after 14 iterations at t[s]:   4069.89
	Linear fluid (dielectric constant: 78.4, screening length: 5.74355 Bohr) occupying 0.375236 of unit cell:	Completed after 7 iterations at t[s]:   4079.72
	FillingsUpdate:  mu: -0.145010000  nElectrons: 872.592396
	SubspaceRotationAdjust: set factor to 0.135
ElecMinimize: Iter:  13  G: -8790.167534789308775  |grad|_K:  1.541e-06  alpha:  1.305e-01  linmin: -4.072e-07  t[s]:   4093.39
	Linear fluid (dielectric constant: 78.4, screening length: 5.74355 Bohr) occupying 0.375274 of unit cell:	Completed after 13 iterations at t[s]:   4106.49
	Linear fluid (dielectric constant: 78.4, screening length: 5.74355 Bohr) occupying 0.375285 of unit cell:	Completed after 7 iterations at t[s]:   4116.37
	FillingsUpdate:  mu: -0.145010000  nElectrons: 872.596648
	SubspaceRotationAdjust: set factor to 0.152
ElecMinimize: Iter:  14  G: -8790.167630204148736  |grad|_K:  1.207e-06  alpha:  1.685e-01  linmin:  8.272e-09  t[s]:   4130.00
	Linear fluid (dielectric constant: 78.4, screening length: 5.74355 Bohr) occupying 0.375300 of unit cell:	Completed after 15 iterations at t[s]:   4143.27
	Linear fluid (dielectric constant: 78.4, screening length: 5.74355 Bohr) occupying 0.375300 of unit cell:	Completed after 0 iterations at t[s]:   4152.65
	FillingsUpdate:  mu: -0.145010000  nElectrons: 872.589665
	SubspaceRotationAdjust: set factor to 0.148
ElecMinimize: Iter:  15  G: -8790.167688135637945  |grad|_K:  9.128e-07  alpha:  1.669e-01  linmin:  6.166e-06  t[s]:   4166.15
	Linear fluid (dielectric constant: 78.4, screening length: 5.74355 Bohr) occupying 0.375339 of unit cell:	Completed after 13 iterations at t[s]:   4179.30
	Linear fluid (dielectric constant: 78.4, screening length: 5.74355 Bohr) occupying 0.375340 of unit cell:	Completed after 2 iterations at t[s]:   4188.73
	FillingsUpdate:  mu: -0.145010000  nElectrons: 872.591370
	SubspaceRotationAdjust: set factor to 0.162
ElecMinimize: Iter:  16  G: -8790.167722762855192  |grad|_K:  7.017e-07  alpha:  1.750e-01  linmin:  1.369e-06  t[s]:   4202.29
	Linear fluid (dielectric constant: 78.4, screening length: 5.74355 Bohr) occupying 0.375354 of unit cell:	Completed after 10 iterations at t[s]:   4215.14
	Linear fluid (dielectric constant: 78.4, screening length: 5.74355 Bohr) occupying 0.375353 of unit cell:	Completed after 2 iterations at t[s]:   4224.72
	FillingsUpdate:  mu: -0.145010000  nElectrons: 872.592147
	SubspaceRotationAdjust: set factor to 0.19
ElecMinimize: Iter:  17  G: -8790.167741154149553  |grad|_K:  5.407e-07  alpha:  1.569e-01  linmin:  3.528e-07  t[s]:   4238.30
	Linear fluid (dielectric constant: 78.4, screening length: 5.74355 Bohr) occupying 0.375346 of unit cell:	Completed after 10 iterations at t[s]:   4251.12
	Linear fluid (dielectric constant: 78.4, screening length: 5.74355 Bohr) occupying 0.375343 of unit cell:	Completed after 7 iterations at t[s]:   4261.00
	FillingsUpdate:  mu: -0.145010000  nElectrons: 872.590598
	SubspaceRotationAdjust: set factor to 0.212
ElecMinimize: Iter:  18  G: -8790.167756716613439  |grad|_K:  5.190e-07  alpha:  2.234e-01  linmin:  1.456e-07  t[s]:   4274.62
	Linear fluid (dielectric constant: 78.4, screening length: 5.74355 Bohr) occupying 0.375348 of unit cell:	Completed after 8 iterations at t[s]:   4287.38
	Linear fluid (dielectric constant: 78.4, screening length: 5.74355 Bohr) occupying 0.375347 of unit cell:	Completed after 4 iterations at t[s]:   4297.24
	FillingsUpdate:  mu: -0.145010000  nElectrons: 872.590993
	SubspaceRotationAdjust: set factor to 0.254
ElecMinimize: Iter:  19  G: -8790.167767089320478  |grad|_K:  3.819e-07  alpha:  1.615e-01  linmin:  1.072e-06  t[s]:   4310.81
	Linear fluid (dielectric constant: 78.4, screening length: 5.74355 Bohr) occupying 0.375362 of unit cell:	Completed after 7 iterations at t[s]:   4323.54
	Linear fluid (dielectric constant: 78.4, screening length: 5.74355 Bohr) occupying 0.375363 of unit cell:	Completed after 2 iterations at t[s]:   4333.04
	FillingsUpdate:  mu: -0.145010000  nElectrons: 872.590827
	SubspaceRotationAdjust: set factor to 0.307
ElecMinimize: Iter:  20  G: -8790.167773165672770  |grad|_K:  3.686e-07  alpha:  1.750e-01  linmin: -5.446e-07  t[s]:   4346.59
	Linear fluid (dielectric constant: 78.4, screening length: 5.74355 Bohr) occupying 0.375401 of unit cell:	Completed after 11 iterations at t[s]:   4359.59
	Linear fluid (dielectric constant: 78.4, screening length: 5.74355 Bohr) occupying 0.375406 of unit cell:	Completed after 2 iterations at t[s]:   4369.02
	FillingsUpdate:  mu: -0.145010000  nElectrons: 872.593779
	SubspaceRotationAdjust: set factor to 0.324
ElecMinimize: Iter:  21  G: -8790.167779495253853  |grad|_K:  3.558e-07  alpha:  1.952e-01  linmin: -5.371e-07  t[s]:   4382.57
	Linear fluid (dielectric constant: 78.4, screening length: 5.74355 Bohr) occupying 0.375402 of unit cell:	Completed after 11 iterations at t[s]:   4395.52
	Linear fluid (dielectric constant: 78.4, screening length: 5.74355 Bohr) occupying 0.375403 of unit cell:	Completed after 11 iterations at t[s]:   4405.64
	FillingsUpdate:  mu: -0.145010000  nElectrons: 872.590589
	SubspaceRotationAdjust: set factor to 0.284
ElecMinimize: Iter:  22  G: -8790.167783387236341  |grad|_K:  3.662e-07  alpha:  1.273e-01  linmin:  1.437e-06  t[s]:   4419.19
	Linear fluid (dielectric constant: 78.4, screening length: 5.74355 Bohr) occupying 0.375427 of unit cell:	Completed after 11 iterations at t[s]:   4432.14
	Linear fluid (dielectric constant: 78.4, screening length: 5.74355 Bohr) occupying 0.375423 of unit cell:	Completed after 6 iterations at t[s]:   4441.88
	FillingsUpdate:  mu: -0.145010000  nElectrons: 872.594264
	SubspaceRotationAdjust: set factor to 0.224
ElecMinimize: Iter:  23  G: -8790.167786763542608  |grad|_K:  3.172e-07  alpha:  1.062e-01  linmin:  7.122e-07  t[s]:   4455.51
	Linear fluid (dielectric constant: 78.4, screening length: 5.74355 Bohr) occupying 0.375420 of unit cell:	Completed after 10 iterations at t[s]:   4468.58
	Linear fluid (dielectric constant: 78.4, screening length: 5.74355 Bohr) occupying 0.375419 of unit cell:	Completed after 3 iterations at t[s]:   4478.07
	FillingsUpdate:  mu: -0.145010000  nElectrons: 872.593078
	SubspaceRotationAdjust: set factor to 0.224
ElecMinimize: Iter:  24  G: -8790.167789888921106  |grad|_K:  2.347e-07  alpha:  1.306e-01  linmin: -1.699e-06  t[s]:   4491.71
	Linear fluid (dielectric constant: 78.4, screening length: 5.74355 Bohr) occupying 0.375424 of unit cell:	Completed after 2 iterations at t[s]:   4504.00
	Linear fluid (dielectric constant: 78.4, screening length: 5.74355 Bohr) occupying 0.375425 of unit cell:	Completed after 2 iterations at t[s]:   4513.50
	FillingsUpdate:  mu: -0.145010000  nElectrons: 872.593097
	SubspaceRotationAdjust: set factor to 0.255
ElecMinimize: Iter:  25  G: -8790.167792326968993  |grad|_K:  2.065e-07  alpha:  1.839e-01  linmin: -3.363e-07  t[s]:   4527.00
	Linear fluid (dielectric constant: 78.4, screening length: 5.74355 Bohr) occupying 0.375442 of unit cell:	Completed after 10 iterations at t[s]:   4539.99
	Linear fluid (dielectric constant: 78.4, screening length: 5.74355 Bohr) occupying 0.375439 of unit cell:	Completed after 2 iterations at t[s]:   4549.49
	FillingsUpdate:  mu: -0.145010000  nElectrons: 872.594167
	SubspaceRotationAdjust: set factor to 0.252
ElecMinimize: Iter:  26  G: -8790.167793869894012  |grad|_K:  1.826e-07  alpha:  1.506e-01  linmin:  3.036e-06  t[s]:   4563.08
	Linear fluid (dielectric constant: 78.4, screening length: 5.74355 Bohr) occupying 0.375437 of unit cell:	Completed after 10 iterations at t[s]:   4575.97
[...]
	Linear fluid (dielectric constant: 78.4, screening length: 5.74355 Bohr) occupying 0.357341 of unit cell:	Completed after 9 iterations at t[s]:  52676.82
	Linear fluid (dielectric constant: 78.4, screening length: 5.74355 Bohr) occupying 0.357338 of unit cell:	Completed after 3 iterations at t[s]:  52686.50
	FillingsUpdate:  mu: -0.145010000  nElectrons: 873.127883
	SubspaceRotationAdjust: set factor to 0.168
ElecMinimize: Iter:  27  G: -8790.191453083949455  |grad|_K:  2.538e-07  alpha:  1.751e-01  linmin: -5.907e-05  t[s]:  52700.06
	Linear fluid (dielectric constant: 78.4, screening length: 5.74355 Bohr) occupying 0.357328 of unit cell:	Completed after 8 iterations at t[s]:  52712.79
	Linear fluid (dielectric constant: 78.4, screening length: 5.74355 Bohr) occupying 0.357329 of unit cell:	Completed after 0 iterations at t[s]:  52722.22
	FillingsUpdate:  mu: -0.145010000  nElectrons: 873.126902
	SubspaceRotationAdjust: set factor to 0.182
ElecMinimize: Iter:  28  G: -8790.191455616417443  |grad|_K:  2.282e-07  alpha:  1.631e-01  linmin:  5.550e-06  t[s]:  52735.72
	Linear fluid (dielectric constant: 78.4, screening length: 5.74355 Bohr) occupying 0.357332 of unit cell:	Completed after 11 iterations at t[s]:  52748.71
	Linear fluid (dielectric constant: 78.4, screening length: 5.74355 Bohr) occupying 0.357332 of unit cell:	Completed after 0 iterations at t[s]:  52758.10
	FillingsUpdate:  mu: -0.145010000  nElectrons: 873.129156
	SubspaceRotationAdjust: set factor to 0.159
ElecMinimize: Iter:  29  G: -8790.191457490645917  |grad|_K:  2.005e-07  alpha:  1.512e-01  linmin:  8.042e-05  t[s]:  52771.70
	Linear fluid (dielectric constant: 78.4, screening length: 5.74355 Bohr) occupying 0.357323 of unit cell:	Completed after 10 iterations at t[s]:  52784.63
	Linear fluid (dielectric constant: 78.4, screening length: 5.74355 Bohr) occupying 0.357323 of unit cell:	Completed after 0 iterations at t[s]:  52794.13
	FillingsUpdate:  mu: -0.145010000  nElectrons: 873.127814
	SubspaceRotationAdjust: set factor to 0.17
ElecMinimize: Iter:  30  G: -8790.191458893003073  |grad|_K:  1.681e-07  alpha:  1.486e-01  linmin: -8.147e-05  t[s]:  52807.66
	Linear fluid (dielectric constant: 78.4, screening length: 5.74355 Bohr) occupying 0.357319 of unit cell:	Completed after 2 iterations at t[s]:  52819.95
	Linear fluid (dielectric constant: 78.4, screening length: 5.74355 Bohr) occupying 0.357318 of unit cell:	Completed after 2 iterations at t[s]:  52829.70
	FillingsUpdate:  mu: -0.145010000  nElectrons: 873.127620
	SubspaceRotationAdjust: set factor to 0.206
ElecMinimize: Iter:  31  G: -8790.191460241736422  |grad|_K:  1.571e-07  alpha:  1.965e-01  linmin: -3.137e-06  t[s]:  52843.28
	Linear fluid (dielectric constant: 78.4, screening length: 5.74355 Bohr) occupying 0.357319 of unit cell:	Completed after 8 iterations at t[s]:  52856.02
	Linear fluid (dielectric constant: 78.4, screening length: 5.74355 Bohr) occupying 0.357319 of unit cell:	Completed after 0 iterations at t[s]:  52865.37
	FillingsUpdate:  mu: -0.145010000  nElectrons: 873.128895
	SubspaceRotationAdjust: set factor to 0.21
ElecMinimize: Iter:  32  G: -8790.191461360704125  |grad|_K:  1.461e-07  alpha:  1.900e-01  linmin:  6.470e-05  t[s]:  52878.92
	Linear fluid (dielectric constant: 78.4, screening length: 5.74355 Bohr) occupying 0.357311 of unit cell:	Completed after 11 iterations at t[s]:  52891.90
	Linear fluid (dielectric constant: 78.4, screening length: 5.74355 Bohr) occupying 0.357312 of unit cell:	Completed after 0 iterations at t[s]:  52901.47
	FillingsUpdate:  mu: -0.145010000  nElectrons: 873.127671
	SubspaceRotationAdjust: set factor to 0.185
ElecMinimize: Iter:  33  G: -8790.191462252831116  |grad|_K:  1.493e-07  alpha:  1.783e-01  linmin:  3.729e-05  t[s]:  52914.97
	Linear fluid (dielectric constant: 78.4, screening length: 5.74355 Bohr) occupying 0.357314 of unit cell:	Completed after 10 iterations at t[s]:  52927.92
	Linear fluid (dielectric constant: 78.4, screening length: 5.74355 Bohr) occupying 0.357313 of unit cell:	Completed after 2 iterations at t[s]:  52937.67
	FillingsUpdate:  mu: -0.145010000  nElectrons: 873.128944
	SubspaceRotationAdjust: set factor to 0.147
ElecMinimize: Iter:  34  G: -8790.191463063301853  |grad|_K:  1.211e-07  alpha:  1.547e-01  linmin:  2.729e-05  t[s]:  52951.22
	Linear fluid (dielectric constant: 78.4, screening length: 5.74355 Bohr) occupying 0.357309 of unit cell:	Completed after 8 iterations at t[s]:  52964.00
	Linear fluid (dielectric constant: 78.4, screening length: 5.74355 Bohr) occupying 0.357309 of unit cell:	Completed after 0 iterations at t[s]:  52973.44
	FillingsUpdate:  mu: -0.145010000  nElectrons: 873.128116
	SubspaceRotationAdjust: set factor to 0.132
ElecMinimize: Iter:  35  G: -8790.191463607825426  |grad|_K:  9.952e-08  alpha:  1.567e-01  linmin: -8.868e-05  t[s]:  52987.08
	Linear fluid (dielectric constant: 78.4, screening length: 5.74355 Bohr) occupying 0.357309 of unit cell:	Completed after 2 iterations at t[s]:  52999.33
	Linear fluid (dielectric constant: 78.4, screening length: 5.74355 Bohr) occupying 0.357309 of unit cell:	Completed after 0 iterations at t[s]:  53008.86
	FillingsUpdate:  mu: -0.145010000  nElectrons: 873.128186
	SubspaceRotationAdjust: set factor to 0.143
ElecMinimize: Iter:  36  G: -8790.191464099410950  |grad|_K:  8.830e-08  alpha:  2.023e-01  linmin: -7.368e-05  t[s]:  53022.44
	Linear fluid (dielectric constant: 78.4, screening length: 5.74355 Bohr) occupying 0.357311 of unit cell:	Completed after 7 iterations at t[s]:  53035.11
	Linear fluid (dielectric constant: 78.4, screening length: 5.74355 Bohr) occupying 0.357310 of unit cell:	Completed after 0 iterations at t[s]:  53044.44
	FillingsUpdate:  mu: -0.145010000  nElectrons: 873.128695
	SubspaceRotationAdjust: set factor to 0.128
ElecMinimize: Iter:  37  G: -8790.191464388884924  |grad|_K:  7.627e-08  alpha:  1.529e-01  linmin:  1.622e-04  t[s]:  53058.11
	Linear fluid (dielectric constant: 78.4, screening length: 5.74355 Bohr) occupying 0.357307 of unit cell:	Completed after 7 iterations at t[s]:  53070.83
	Linear fluid (dielectric constant: 78.4, screening length: 5.74355 Bohr) occupying 0.357308 of unit cell:	Completed after 2 iterations at t[s]:  53080.34
	FillingsUpdate:  mu: -0.145010000  nElectrons: 873.128182
	SubspaceRotationAdjust: set factor to 0.105
ElecMinimize: Iter:  38  G: -8790.191464539497247  |grad|_K:  5.538e-08  alpha:  1.187e-01  linmin: -3.697e-04  t[s]:  53093.98
	Linear fluid (dielectric constant: 78.4, screening length: 5.74355 Bohr) occupying 0.357308 of unit cell:	Completed after 1 iterations at t[s]:  53106.22
	Linear fluid (dielectric constant: 78.4, screening length: 5.74355 Bohr) occupying 0.357308 of unit cell:	Completed after 0 iterations at t[s]:  53115.53
	FillingsUpdate:  mu: -0.145010000  nElectrons: 873.128212
	SubspaceRotationAdjust: set factor to 0.118
ElecMinimize: Iter:  39  G: -8790.191464657706092  |grad|_K:  4.813e-08  alpha:  1.511e-01  linmin: -1.526e-04  t[s]:  53129.32
	Linear fluid (dielectric constant: 78.4, screening length: 5.74355 Bohr) occupying 0.357309 of unit cell:	Completed after 3 iterations at t[s]:  53141.66
	Linear fluid (dielectric constant: 78.4, screening length: 5.74355 Bohr) occupying 0.357309 of unit cell:	Completed after 0 iterations at t[s]:  53151.29
	FillingsUpdate:  mu: -0.145010000  nElectrons: 873.128448
	SubspaceRotationAdjust: set factor to 0.12
ElecMinimize: Iter:  40  G: -8790.191464725376136  |grad|_K:  4.291e-08  alpha:  1.220e-01  linmin: -1.731e-04  t[s]:  53165.25
	Linear fluid (dielectric constant: 78.4, screening length: 5.74355 Bohr) occupying 0.357309 of unit cell:	Completed after 2 iterations at t[s]:  53177.57
	Linear fluid (dielectric constant: 78.4, screening length: 5.74355 Bohr) occupying 0.357309 of unit cell:	Completed after 0 iterations at t[s]:  53186.87
	FillingsUpdate:  mu: -0.145010000  nElectrons: 873.128555
	SubspaceRotationAdjust: set factor to 0.132
ElecMinimize: Iter:  41  G: -8790.191464763738622  |grad|_K:  3.036e-08  alpha:  9.105e-02  linmin: -4.742e-04  t[s]:  53200.56
ElecMinimize: Converged (|Delta G|<1.000000e-07 for 2 iters).
Setting wave functions to eigenvectors of Hamiltonian
IonicMinimize: 	Wolfe criterion not satisfied: alpha: 0.125405  (E-E0)/|gdotd0|: -0.280896  gdotd/gdotd0: 1.95713 (taking cubic step)
Shifting auxilliary hamiltonian by -0.000018 to set nElectrons=873.128555

-------- Electronic minimization -----------
	Linear fluid (dielectric constant: 78.4, screening length: 5.74355 Bohr) occupying 0.355396 of unit cell:	Completed after 23 iterations at t[s]:  53221.85
	FillingsUpdate:  mu: -0.145010000  nElectrons: 873.128555
ElecMinimize: Iter:   0  G: -8790.163636360492092  |grad|_K:  1.418e-05  alpha:  1.000e+00
	Linear fluid (dielectric constant: 78.4, screening length: 5.74355 Bohr) occupying 0.355207 of unit cell:	Completed after 27 iterations at t[s]:  53251.15
	Linear fluid (dielectric constant: 78.4, screening length: 5.74355 Bohr) occupying 0.355293 of unit cell:	Completed after 26 iterations at t[s]:  53262.56
	FillingsUpdate:  mu: -0.145010000  nElectrons: 872.940143
	SubspaceRotationAdjust: set factor to 0.114
ElecMinimize: Iter:   1  G: -8790.179814562305182  |grad|_K:  1.624e-05  alpha:  3.354e-01  linmin: -1.633e-04  t[s]:  53276.20
	Linear fluid (dielectric constant: 78.4, screening length: 5.74355 Bohr) occupying 0.357978 of unit cell:	Completed after 24 iterations at t[s]:  53290.16
	Linear fluid (dielectric constant: 78.4, screening length: 5.74355 Bohr) occupying 0.356433 of unit cell:	Completed after 22 iterations at t[s]:  53301.43
	FillingsUpdate:  mu: -0.145010000  nElectrons: 873.111213
	SubspaceRotationAdjust: set factor to 0.124
ElecMinimize: Iter:   2  G: -8790.188682015394079  |grad|_K:  4.275e-06  alpha:  1.403e-01  linmin:  2.031e-06  t[s]:  53315.10
	Linear fluid (dielectric constant: 78.4, screening length: 5.74355 Bohr) occupying 0.356568 of unit cell:	Completed after 16 iterations at t[s]:  53328.81
	Linear fluid (dielectric constant: 78.4, screening length: 5.74355 Bohr) occupying 0.356570 of unit cell:	Completed after 2 iterations at t[s]:  53338.34
	FillingsUpdate:  mu: -0.145010000  nElectrons: 873.123466
	SubspaceRotationAdjust: set factor to 0.134
ElecMinimize: Iter:   3  G: -8790.189299448986276  |grad|_K:  3.441e-06  alpha:  1.417e-01  linmin: -2.886e-06  t[s]:  53351.86
	Linear fluid (dielectric constant: 78.4, screening length: 5.74355 Bohr) occupying 0.356665 of unit cell:	Completed after 13 iterations at t[s]:  53364.98
	Linear fluid (dielectric constant: 78.4, screening length: 5.74355 Bohr) occupying 0.356756 of unit cell:	Completed after 13 iterations at t[s]:  53375.47
	FillingsUpdate:  mu: -0.145010000  nElectrons: 873.121910
	SubspaceRotationAdjust: set factor to 0.16
ElecMinimize: Iter:   4  G: -8790.190082192024420  |grad|_K:  2.284e-06  alpha:  2.773e-01  linmin:  6.293e-06  t[s]:  53389.04
	Linear fluid (dielectric constant: 78.4, screening length: 5.74355 Bohr) occupying 0.356756 of unit cell:	Completed after 17 iterations at t[s]:  53402.55
	Linear fluid (dielectric constant: 78.4, screening length: 5.74355 Bohr) occupying 0.356756 of unit cell:	Completed after 14 iterations at t[s]:  53413.04
	FillingsUpdate:  mu: -0.145010000  nElectrons: 873.105218
	SubspaceRotationAdjust: set factor to 0.175
ElecMinimize: Iter:   5  G: -8790.190293640751406  |grad|_K:  2.026e-06  alpha:  1.701e-01  linmin: -1.702e-06  t[s]:  53426.73
	Linear fluid (dielectric constant: 78.4, screening length: 5.74355 Bohr) occupying 0.356842 of unit cell:	Completed after 15 iterations at t[s]:  53440.07
	Linear fluid (dielectric constant: 78.4, screening length: 5.74355 Bohr) occupying 0.356889 of unit cell:	Completed after 13 iterations at t[s]:  53450.48
	FillingsUpdate:  mu: -0.145010000  nElectrons: 873.122184
	SubspaceRotationAdjust: set factor to 0.194
ElecMinimize: Iter:   6  G: -8790.190550474704651  |grad|_K:  1.938e-06  alpha:  2.624e-01  linmin:  1.936e-06  t[s]:  53464.16
	Linear fluid (dielectric constant: 78.4, screening length: 5.74355 Bohr) occupying 0.356950 of unit cell:	Completed after 17 iterations at t[s]:  53477.67
	Linear fluid (dielectric constant: 78.4, screening length: 5.74355 Bohr) occupying 0.356955 of unit cell:	Completed after 8 iterations at t[s]:  53487.67
	FillingsUpdate:  mu: -0.145010000  nElectrons: 873.114592
	SubspaceRotationAdjust: set factor to 0.211
ElecMinimize: Iter:   7  G: -8790.190806348780825  |grad|_K:  2.141e-06  alpha:  2.858e-01  linmin:  5.871e-07  t[s]:  53501.32
	Linear fluid (dielectric constant: 78.4, screening length: 5.74355 Bohr) occupying 0.357172 of unit cell:	Completed after 17 iterations at t[s]:  53514.76
	Linear fluid (dielectric constant: 78.4, screening length: 5.74355 Bohr) occupying 0.357079 of unit cell:	Completed after 15 iterations at t[s]:  53525.35
	FillingsUpdate:  mu: -0.145010000  nElectrons: 873.125783
	SubspaceRotationAdjust: set factor to 0.241
ElecMinimize: Iter:   8  G: -8790.190982434436592  |grad|_K:  1.585e-06  alpha:  1.611e-01  linmin: -2.896e-08  t[s]:  53538.87
	Linear fluid (dielectric constant: 78.4, screening length: 5.74355 Bohr) occupying 0.357116 of unit cell:	Completed after 13 iterations at t[s]:  53552.04
	Linear fluid (dielectric constant: 78.4, screening length: 5.74355 Bohr) occupying 0.357156 of unit cell:	Completed after 13 iterations at t[s]:  53562.34
	FillingsUpdate:  mu: -0.145010000  nElectrons: 873.120269
	SubspaceRotationAdjust: set factor to 0.246
ElecMinimize: Iter:   9  G: -8790.191184162182253  |grad|_K:  2.116e-06  alpha:  3.370e-01  linmin:  1.165e-06  t[s]:  53575.89
	Linear fluid (dielectric constant: 78.4, screening length: 5.74355 Bohr) occupying 0.357329 of unit cell:	Completed after 18 iterations at t[s]:  53589.40
	Linear fluid (dielectric constant: 78.4, screening length: 5.74355 Bohr) occupying 0.357234 of unit cell:	Completed after 15 iterations at t[s]:  53600.06
	FillingsUpdate:  mu: -0.145010000  nElectrons: 873.134506
	SubspaceRotationAdjust: set factor to 0.219
ElecMinimize: Iter:  10  G: -8790.191342361416901  |grad|_K:  1.554e-06  alpha:  1.483e-01  linmin:  7.566e-07  t[s]:  53613.78
	Linear fluid (dielectric constant: 78.4, screening length: 5.74355 Bohr) occupying 0.357127 of unit cell:	Completed after 15 iterations at t[s]:  53627.05
	Linear fluid (dielectric constant: 78.4, screening length: 5.74355 Bohr) occupying 0.357139 of unit cell:	Completed after 11 iterations at t[s]:  53637.34
	FillingsUpdate:  mu: -0.145010000  nElectrons: 873.116495
	SubspaceRotationAdjust: set factor to 0.157
ElecMinimize: Iter:  11  G: -8790.191418018142940  |grad|_K:  1.467e-06  alpha:  1.315e-01  linmin:  2.606e-06  t[s]:  53651.06
	Linear fluid (dielectric constant: 78.4, screening length: 5.74355 Bohr) occupying 0.357125 of unit cell:	Completed after 15 iterations at t[s]:  53664.27
	Linear fluid (dielectric constant: 78.4, screening length: 5.74355 Bohr) occupying 0.357122 of unit cell:	Completed after 10 iterations at t[s]:  53674.55
	FillingsUpdate:  mu: -0.145010000  nElectrons: 873.129901
	SubspaceRotationAdjust: set factor to 0.136
ElecMinimize: Iter:  12  G: -8790.191501075647466  |grad|_K:  1.076e-06  alpha:  1.621e-01  linmin: -2.275e-06  t[s]:  53688.12
	Linear fluid (dielectric constant: 78.4, screening length: 5.74355 Bohr) occupying 0.357100 of unit cell:	Completed after 10 iterations at t[s]:  53701.06
	Linear fluid (dielectric constant: 78.4, screening length: 5.74355 Bohr) occupying 0.357100 of unit cell:	Completed after 0 iterations at t[s]:  53710.43
	FillingsUpdate:  mu: -0.145010000  nElectrons: 873.132184
	SubspaceRotationAdjust: set factor to 0.158
ElecMinimize: Iter:  13  G: -8790.191545521802254  |grad|_K:  8.260e-07  alpha:  1.609e-01  linmin: -3.215e-07  t[s]:  53723.91
	Linear fluid (dielectric constant: 78.4, screening length: 5.74355 Bohr) occupying 0.357073 of unit cell:	Completed after 13 iterations at t[s]:  53737.06
	Linear fluid (dielectric constant: 78.4, screening length: 5.74355 Bohr) occupying 0.357074 of unit cell:	Completed after 2 iterations at t[s]:  53746.68
	FillingsUpdate:  mu: -0.145010000  nElectrons: 873.126584
	SubspaceRotationAdjust: set factor to 0.147
ElecMinimize: Iter:  14  G: -8790.191570748593222  |grad|_K:  5.717e-07  alpha:  1.551e-01  linmin:  1.380e-05  t[s]:  53760.22
	Linear fluid (dielectric constant: 78.4, screening length: 5.74355 Bohr) occupying 0.357087 of unit cell:	Completed after 13 iterations at t[s]:  53773.37
	Linear fluid (dielectric constant: 78.4, screening length: 5.74355 Bohr) occupying 0.357090 of unit cell:	Completed after 7 iterations at t[s]:  53783.52
	FillingsUpdate:  mu: -0.145010000  nElectrons: 873.130453
	SubspaceRotationAdjust: set factor to 0.145
ElecMinimize: Iter:  15  G: -8790.191585390142791  |grad|_K:  4.917e-07  alpha:  1.881e-01  linmin: -2.857e-05  t[s]:  53797.04
	Linear fluid (dielectric constant: 78.4, screening length: 5.74355 Bohr) occupying 0.357085 of unit cell:	Completed after 8 iterations at t[s]:  53809.88
	Linear fluid (dielectric constant: 78.4, screening length: 5.74355 Bohr) occupying 0.357085 of unit cell:	Completed after 0 iterations at t[s]:  53819.38
	FillingsUpdate:  mu: -0.145010000  nElectrons: 873.130442
	SubspaceRotationAdjust: set factor to 0.173
ElecMinimize: Iter:  16  G: -8790.191596361470147  |grad|_K:  3.677e-07  alpha:  1.895e-01  linmin:  1.149e-06  t[s]:  53832.89
	Linear fluid (dielectric constant: 78.4, screening length: 5.74355 Bohr) occupying 0.357062 of unit cell:	Completed after 11 iterations at t[s]:  53846.02
	Linear fluid (dielectric constant: 78.4, screening length: 5.74355 Bohr) occupying 0.357064 of unit cell:	Completed after 2 iterations at t[s]:  53855.58
	FillingsUpdate:  mu: -0.145010000  nElectrons: 873.128150
	SubspaceRotationAdjust: set factor to 0.191
ElecMinimize: Iter:  17  G: -8790.191601917722437  |grad|_K:  3.149e-07  alpha:  1.724e-01  linmin:  5.247e-05  t[s]:  53869.14
	Linear fluid (dielectric constant: 78.4, screening length: 5.74355 Bohr) occupying 0.357049 of unit cell:	Completed after 11 iterations at t[s]:  53882.10
	Linear fluid (dielectric constant: 78.4, screening length: 5.74355 Bohr) occupying 0.357048 of unit cell:	Completed after 0 iterations at t[s]:  53891.59
	FillingsUpdate:  mu: -0.145010000  nElectrons: 873.129438
	SubspaceRotationAdjust: set factor to 0.219
ElecMinimize: Iter:  18  G: -8790.191606128961212  |grad|_K:  2.513e-07  alpha:  1.790e-01  linmin: -1.046e-04  t[s]:  53905.11
	Linear fluid (dielectric constant: 78.4, screening length: 5.74355 Bohr) occupying 0.357032 of unit cell:	Completed after 6 iterations at t[s]:  53917.78
	Linear fluid (dielectric constant: 78.4, screening length: 5.74355 Bohr) occupying 0.357031 of unit cell:	Completed after 0 iterations at t[s]:  53927.19
	FillingsUpdate:  mu: -0.145010000  nElectrons: 873.129185
	SubspaceRotationAdjust: set factor to 0.26
ElecMinimize: Iter:  19  G: -8790.191608957171411  |grad|_K:  2.335e-07  alpha:  1.860e-01  linmin: -8.985e-05  t[s]:  53940.80
	Linear fluid (dielectric constant: 78.4, screening length: 5.74355 Bohr) occupying 0.357020 of unit cell:	Completed after 4 iterations at t[s]:  53953.28
	Linear fluid (dielectric constant: 78.4, screening length: 5.74355 Bohr) occupying 0.357020 of unit cell:	Completed after 1 iterations at t[s]:  53962.94
	FillingsUpdate:  mu: -0.145010000  nElectrons: 873.129156
	SubspaceRotationAdjust: set factor to 0.315
ElecMinimize: Iter:  20  G: -8790.191611544656553  |grad|_K:  2.054e-07  alpha:  1.972e-01  linmin: -5.384e-06  t[s]:  53976.49
	Linear fluid (dielectric constant: 78.4, screening length: 5.74355 Bohr) occupying 0.357014 of unit cell:	Completed after 8 iterations at t[s]:  53989.20
	Linear fluid (dielectric constant: 78.4, screening length: 5.74355 Bohr) occupying 0.357014 of unit cell:	Completed after 0 iterations at t[s]:  53998.59
