 vasp.5.4.4.18Apr17-6-g9f103f2a35 (build Feb 06 2024 13:54:16) complex          
  
 POSCAR found type information on POSCAR  Cu Ni Cu N  O 
 03/POSCAR found :  5 types and      40 ions
 scaLAPACK will be used

 ----------------------------------------------------------------------------- 
|                                                                             |
|  ADVICE TO THIS USER RUNNING 'VASP/VAMP'   (HEAR YOUR MASTER'S VOICE ...):  |
|                                                                             |
|      You enforced a specific xc-type in the INCAR file,                     |
|      a different type was found on the POTCAR file                          |
|          I HOPE YOU KNOW, WHAT YOU ARE  DOING                               |
|                                                                             |
 ----------------------------------------------------------------------------- 

 LDA part: xc-table for Pade appr. of Perdew
 POSCAR found type information on POSCAR  Cu Ni Cu N  O 
 00/POSCAR found :  5 types and      40 ions
 POSCAR found type information on POSCAR  Cu Ni Cu N  O 
 06/POSCAR found :  5 types and      40 ions
 Jacobian:    19.9537150754471     
 POSCAR, INCAR and KPOINTS ok, starting setup
 FFT: planning ...
 WAVECAR not read
 entering main loop
       N       E                     dE             d eps       ncg     rms          rms(c)
  Solvation turned off during non-self-consistent phase (first NELMDL steps)
DAV:   1     0.424086308229E+04    0.42409E+04   -0.18045E+05 12096   0.211E+03
DAV:   2     0.624504535807E+03   -0.36164E+04   -0.34900E+04 12114   0.475E+02
DAV:   3    -0.331618623307E+02   -0.65767E+03   -0.60713E+03 13896   0.238E+02
DAV:   4    -0.149276698309E+03   -0.11611E+03   -0.10321E+03 21600   0.941E+01
DAV:   5    -0.162640862958E+03   -0.13364E+02   -0.12632E+02 18684   0.305E+01    0.439E+01
 Begin Solvation calculations
  rms_SCF =    4.50503807504558      tol =   0.450503807504558     
 Begin minimization
 Creating dielectric and ionic cavities
  area:      160.121759758984     
  volume:    652.168330196670     
  Acav:     8.406392387346634E-002
  Solving linear dielectric/ionic screening model
        iter                  A_solv                     rms
   LPB:       -0.356816031761218E+03   0.268376233194488E+03
   LPB:    0  -0.535651683843457E+01   0.270946915924942E+02  -0.498241E+01   0.000000E+00   0.283156E+02  -0.141080E+03
   LPB:    1  -0.102183954929694E+01   0.719752072988366E+01   0.111372E-01   0.000000E+00   0.909714E+02  -0.112042E-13
   LPB:    2  -0.419672159283834E+00   0.108403520029403E+01   0.129404E-01   0.119561E+00   0.269866E+03  -0.229302E-13
   LPB:    3  -0.262754496056118E+00   0.967778767748295E+00   0.263495E-01   0.127976E+00   0.613820E+03  -0.355145E-13
   LPB:    4  -0.212327336972407E+00   0.874961374559154E+00   0.266095E-01   0.318221E+00   0.759692E+02  -0.400607E-13
   LPB:    5  -0.188058506693267E+00   0.597231526287516E+00   0.227621E-01   0.562611E+00   0.398106E+03  -0.561895E-13
   LPB:    6  -0.172275215128650E+00   0.188663373023940E+00   0.298059E-01   0.496660E+00   0.812609E+02  -0.636977E-13
  Finished solving LPB equations
  A_corr:   -8.821129125518362E-002
 End minimization
 Ecorr=   1964.34476433390     
 A_corr= -8.821129125518362E-002
 Ecorr_band=  -1964.43297562516     
 End Solvation calculations
RMM:   6    -0.153361325967E+03    0.92795E+01   -0.35659E+02 12299   0.948E+01    0.296E+01
 Begin Solvation calculations
  rms_SCF =    4.50503807504558      tol =   0.450503807504558     
 Begin minimization
 Creating dielectric and ionic cavities
  area:      159.721994960381     
  volume:    662.673501035071     
  Acav:     8.385404735420011E-002
  Solving linear dielectric/ionic screening model
        iter                  A_solv                     rms
   LPB:       -0.759657778883127E+01   0.522216476847850E+02
   LPB:    0  -0.693888678119033E+01   0.503458655707702E+02   0.217432E+00   0.000000E+00   0.278231E+02   0.604963E+01
   LPB:    1  -0.735626801898687E+00   0.454037848969360E+01   0.880675E-02   0.000000E+00   0.629966E+02   0.594010E-16
   LPB:    2  -0.278580987200731E+00   0.133839347295730E+01   0.158470E-01   0.409457E-01   0.119237E+03   0.121802E-15
   LPB:    3  -0.207356055831577E+00   0.668631278740947E+00   0.227084E-01   0.108751E+00   0.787076E+02   0.548104E-15
   LPB:    4  -0.186440493149093E+00   0.585165960668976E+00   0.229033E-01   0.291156E+00   0.254963E+03  -0.232846E-15
   LPB:    5  -0.175417750683131E+00   0.235632296543703E+00   0.248990E-01   0.484772E+00   0.857089E+02  -0.740945E-14
  Finished solving LPB equations
  A_corr:   -9.156370332893103E-002
 End minimization
 Ecorr=   1867.30788207281     
 A_corr= -9.156370332893103E-002
 Ecorr_band=  -1867.39944577614     
 End Solvation calculations
RMM:   7    -0.145359866146E+03    0.80015E+01   -0.77687E+01 12287   0.469E+01    0.246E+01
 Begin Solvation calculations
  rms_SCF =    4.50503807504558      tol =   0.450503807504558     
 Begin minimization
 Creating dielectric and ionic cavities
  area:      161.625731051426     
  volume:    663.077786925510     
  Acav:     8.485350880199859E-002
  Solving linear dielectric/ionic screening model
        iter                  A_solv                     rms
   LPB:       -0.254846850041886E+01   0.299235737407412E+02
   LPB:    0  -0.254711150801144E+01   0.299234955031935E+02   0.987981E-02   0.000000E+00   0.278042E+02   0.274700E+00
   LPB:    1  -0.362546187330984E+00   0.277112382923041E+01   0.888681E-02   0.000000E+00   0.617824E+02   0.697716E-18
   LPB:    2  -0.188122029816673E+00   0.480016079302015E+00   0.157030E-01   0.451861E-01   0.121912E+03  -0.941038E-15
   LPB:    3  -0.161515667782044E+00   0.203893421101331E+00   0.230992E-01   0.103696E+00   0.225250E+03  -0.184879E-14
   LPB:    4  -0.155491220937463E+00   0.104043127974092E+00   0.266607E-01   0.196182E+00   0.274337E+03  -0.261772E-14
  Finished solving LPB equations
  A_corr:   -7.063771213546401E-002
 End minimization
 Ecorr=   1854.89280154253     
 A_corr= -7.063771213546401E-002
 Ecorr_band=  -1854.96343925466     
 End Solvation calculations
RMM:   8    -0.137252650365E+03    0.81072E+01   -0.43644E+00 12344   0.848E+00    0.121E+01
 Begin Solvation calculations
  rms_SCF =    2.06331172003819      tol =   0.206331172003819     
 Begin minimization
 Creating dielectric and ionic cavities
  area:      155.865451480035     
  volume:    663.959489565587     
  Acav:     8.182936202701858E-002
  Solving linear dielectric/ionic screening model
        iter                  A_solv                     rms
   LPB:       -0.838213577507796E+00   0.156274249506950E+02
   LPB:    0  -0.824282626838651E+00   0.155883781289172E+02   0.316791E-01   0.000000E+00   0.277628E+02   0.879503E+00
   LPB:    1  -0.226681441262282E+00   0.150128837782057E+01   0.894652E-02   0.000000E+00   0.613680E+02  -0.373811E-17
   LPB:    2  -0.173617549929744E+00   0.324118262339653E+00   0.161688E-01   0.491319E-01   0.116082E+03  -0.293376E-15
   LPB:    3  -0.165252271904838E+00   0.100499327577051E+00   0.229081E-01   0.111268E+00   0.138338E+03  -0.250138E-14
   LPB:    4  -0.162449468999885E+00   0.131833634018604E+00   0.321146E-01   0.239000E+00   0.185534E+03  -0.210705E-14
  Finished solving LPB equations
  A_corr:   -8.062010697286619E-002
 End minimization
 Ecorr=   1828.17117920685     
 A_corr= -8.062010697286619E-002
 Ecorr_band=  -1828.25179931383     
 End Solvation calculations
RMM:   9    -0.136663602259E+03    0.58905E+00   -0.43188E+00 12369   0.616E+00    0.796E+00
 Begin Solvation calculations
  rms_SCF =    2.06331172003819      tol =   0.206331172003819     
 Begin minimization
 Creating dielectric and ionic cavities
  area:      145.231676734831     
  volume:    663.342705698613     
  Acav:     7.624663028578643E-002
  Solving linear dielectric/ionic screening model
        iter                  A_solv                     rms
   LPB:       -0.111000189012135E+01   0.182039793166915E+02
   LPB:    0  -0.107693623133453E+01   0.181171020119215E+02   0.487804E-01   0.000000E+00   0.277918E+02   0.135569E+01
   LPB:    1  -0.266446903936716E+00   0.170742502982180E+01   0.894945E-02   0.000000E+00   0.615906E+02   0.293107E-16
   LPB:    2  -0.196715652235177E+00   0.318764041565329E+00   0.159400E-01   0.483045E-01   0.122254E+03   0.119551E-14
   LPB:    3  -0.183986912926055E+00   0.178716689745626E+00   0.245049E-01   0.118739E+00   0.232966E+03   0.270813E-14
   LPB:    4  -0.179405234207065E+00   0.102340767418264E+00   0.321652E-01   0.274224E+00   0.174306E+03   0.342221E-14
  Finished solving LPB equations
  A_corr:   -0.103158603921278     
 End minimization
 Ecorr=   1793.62950857927     
 A_corr= -0.103158603921278     
 Ecorr_band=  -1793.73266718319     
 End Solvation calculations
RMM:  10    -0.135609344252E+03    0.10543E+01   -0.10399E+00 12602   0.377E+00    0.505E+00
 Begin Solvation calculations
  rms_SCF =    1.30388601326903      tol =   0.130388601326903     
 Begin minimization
 Creating dielectric and ionic cavities
  area:      134.240509321659     
  volume:    659.872275369506     
  Acav:     7.047626739387117E-002
  Solving linear dielectric/ionic screening model
        iter                  A_solv                     rms
   LPB:       -0.259827366841192E+00   0.774900881637598E+00
   LPB:    0  -0.254026466326801E+00   0.160632735403198E+01   0.203722E-01   0.000000E+00   0.279545E+02   0.569493E+00
   LPB:    1  -0.216996506705461E+00   0.436063024989734E+00   0.168587E-01   0.000000E+00   0.587779E+02  -0.246874E-16
   LPB:    2  -0.209774829276659E+00   0.413609837732764E+00   0.208686E-01   0.157549E+00   0.261595E+03  -0.265254E-14
   LPB:    3  -0.204688550733928E+00   0.433597779009207E+00   0.281529E-01   0.522074E+00   0.582102E+02  -0.374773E-14
   LPB:    4  -0.200125890962577E+00   0.401908562921077E+00   0.322457E-01   0.783193E+00   0.607235E+02  -0.433416E-14
   LPB:    5  -0.197172013764536E+00   0.228833371865021E+00   0.214076E-01   0.975164E+00   0.162170E+03  -0.485701E-14
   LPB:    6  -0.194886118508822E+00   0.941520171160334E-01   0.278955E-01   0.593879E+00   0.852269E+02  -0.455898E-14
  Finished solving LPB equations
  A_corr:   -0.124409851114951     
 End minimization
 Ecorr=   1747.46175840175     
 A_corr= -0.124409851114951     
 Ecorr_band=  -1747.58616825286     
 End Solvation calculations
RMM:  11    -0.135424050023E+03    0.18529E+00   -0.26724E-01 12408   0.165E+00    0.217E+00
 Begin Solvation calculations
  rms_SCF =   0.635447290054482      tol =   6.354472900544815E-002
 Begin minimization
 Creating dielectric and ionic cavities
  area:      131.795062404877     
  volume:    657.543085068888     
  Acav:     6.919240776256017E-002
  Solving linear dielectric/ionic screening model
        iter                  A_solv                     rms
   LPB:       -0.219731182336134E+00   0.158103902994796E+01
   LPB:    0  -0.215796166456376E+00   0.153809759303016E+01   0.167462E-01   0.000000E+00   0.280637E+02   0.469959E+00
   LPB:    1  -0.205568079803495E+00   0.326690532345146E+00   0.102319E-01   0.000000E+00   0.793698E+02  -0.225761E-16
   LPB:    2  -0.203834680233979E+00   0.803183265219875E-01   0.161008E-01   0.107699E+00   0.215147E+03   0.824476E-16
   LPB:    3  -0.202958886939494E+00   0.766592361411577E-01   0.323697E-01   0.251311E+00   0.403417E+03   0.408122E-15
   LPB:    4  -0.201830643679040E+00   0.150155208547505E+00   0.581497E-01   0.717120E+00   0.965281E+02   0.817510E-15
   LPB:    5  -0.200615810441634E+00   0.169549117687246E+00   0.310061E-01   0.201936E+01   0.261121E+03   0.741386E-15
   LPB:    6  -0.199902912614707E+00   0.539702856300255E-01   0.259672E-01   0.700703E+00   0.434935E+02   0.188864E-15
  Finished solving LPB equations
  A_corr:   -0.130710504852146     
 End minimization
 Ecorr=   1729.36110661143     
 A_corr= -0.130710504852146     
 Ecorr_band=  -1729.49181711628     
 End Solvation calculations
RMM:  12    -0.135431224212E+03   -0.71742E-02   -0.21603E-01 12546   0.189E+00    0.354E+00
 Begin Solvation calculations
  rms_SCF =   0.635447290054482      tol =   6.354472900544815E-002
 Begin minimization
 Creating dielectric and ionic cavities
  area:      131.598716963386     
  volume:    653.255584722207     
  Acav:     6.908932640577763E-002
  Solving linear dielectric/ionic screening model
        iter                  A_solv                     rms
   LPB:       -0.242618801939941E+00   0.123794684529181E+01
   LPB:    0  -0.241986627447386E+00   0.147240436271482E+01   0.668824E-02   0.000000E+00   0.282647E+02   0.189041E+00
   LPB:    1  -0.221006249764600E+00   0.460853342707814E+00   0.144141E-01   0.000000E+00   0.662281E+02   0.591896E-17
   LPB:    2  -0.217300168811305E+00   0.236236037354531E+00   0.150717E-01   0.168937E+00   0.244172E+03   0.101496E-14
   LPB:    3  -0.216133566982508E+00   0.209446749446760E+00   0.214973E-01   0.220692E+00   0.101738E+03   0.775980E-15
   LPB:    4  -0.215499248848503E+00   0.102914570123395E+00   0.222615E-01   0.525067E+00   0.944000E+02   0.751194E-15
   LPB:    5  -0.215019719259842E+00   0.490745722765731E-01   0.281317E-01   0.598227E+00   0.377907E+03   0.190957E-14
  Finished solving LPB equations
  A_corr:   -0.145930392854065     
 End minimization
 Ecorr=   1713.37432322350     
 A_corr= -0.145930392854065     
 Ecorr_band=  -1713.52025361636     
 End Solvation calculations
RMM:  13    -0.135389110503E+03    0.42114E-01   -0.15356E-01 12419   0.122E+00    0.190E+00
 Begin Solvation calculations
  rms_SCF =   0.279895621618749      tol =   2.798956216187494E-002
 Begin minimization
 Creating dielectric and ionic cavities
  area:      132.059340350496     
  volume:    651.635983004800     
  Acav:     6.933115368401029E-002
  Solving linear dielectric/ionic screening model
        iter                  A_solv                     rms
   LPB:       -0.221687621542116E+00   0.314512450969438E+00
   LPB:    0  -0.221480769086907E+00   0.426417802120447E+00   0.382068E-02   0.000000E+00   0.283406E+02   0.108280E+00
   LPB:    1  -0.218594024259845E+00   0.227314264024351E+00   0.133508E-01   0.000000E+00   0.136165E+03  -0.803831E-18
   LPB:    2  -0.218106361524763E+00   0.724233304475963E-01   0.156806E-01   0.143832E+00   0.915818E+02  -0.422230E-16
   LPB:    3  -0.217836793689830E+00   0.103912950755683E+00   0.320135E-01   0.270755E+00   0.266685E+03  -0.330691E-15
   LPB:    4  -0.217440901710415E+00   0.117642361080718E+00   0.333928E-01   0.140796E+01   0.791152E+02  -0.309190E-15
   LPB:    5  -0.216998656055365E+00   0.655935486720796E-01   0.311166E-01   0.119881E+01   0.254875E+03  -0.407020E-15
   LPB:    6  -0.216739521293566E+00   0.207814154975207E-01   0.332543E-01   0.548284E+00   0.688100E+02  -0.583699E-15
  Finished solving LPB equations
  A_corr:   -0.147408367609556     
 End minimization
 Ecorr=   1706.48593702672     
 A_corr= -0.147408367609556     
 Ecorr_band=  -1706.63334539433     
 End Solvation calculations
RMM:  14    -0.135366922219E+03    0.22188E-01   -0.20763E-02 12412   0.578E-01    0.854E-01
 Begin Solvation calculations
  rms_SCF =   0.279895621618749      tol =   2.798956216187494E-002
 Begin minimization
 Creating dielectric and ionic cavities
  area:      132.705236601543     
  volume:    649.737053280741     
  Acav:     6.967024921581021E-002
  Solving linear dielectric/ionic screening model
        iter                  A_solv                     rms
   LPB:       -0.227431127906111E+00   0.635533121432652E+00
   LPB:    0  -0.227330524609870E+00   0.707829663343713E+00   0.266033E-02   0.000000E+00   0.284296E+02   0.756322E-01
   LPB:    1  -0.221613671563590E+00   0.212689616804707E+00   0.139451E-01   0.000000E+00   0.969332E+02  -0.478231E-17
   LPB:    2  -0.220826645329727E+00   0.919626591317640E-01   0.147410E-01   0.130235E+00   0.179885E+03   0.105304E-14
   LPB:    3  -0.220666364622507E+00   0.645012478231975E-01   0.185647E-01   0.161708E+00   0.107644E+03   0.954287E-15
   LPB:    4  -0.220596577839816E+00   0.472821618261302E-01   0.213815E-01   0.378044E+00   0.142016E+03   0.900701E-15
   LPB:    5  -0.220521618814749E+00   0.298138503198428E-01   0.324029E-01   0.708769E+00   0.217474E+03   0.696154E-15
   LPB:    6  -0.220404742588650E+00   0.142611870319660E-01   0.523908E-01   0.964343E+00   0.885615E+02   0.329521E-15
  Finished solving LPB equations
  A_corr:   -0.150734493372840     
 End minimization
 Ecorr=   1701.11798543765     
 A_corr= -0.150734493372840     
 Ecorr_band=  -1701.26871993102     
 End Solvation calculations
RMM:  15    -0.135360784137E+03    0.61381E-02   -0.64231E-03 12492   0.308E-01    0.445E-01
 Begin Solvation calculations
  rms_SCF =   0.279895621618749      tol =   2.798956216187494E-002
 Begin minimization
 Creating dielectric and ionic cavities
  area:      133.506719594235     
  volume:    647.485351657597     
  Acav:     7.009102778697344E-002
  Solving linear dielectric/ionic screening model
        iter                  A_solv                     rms
   LPB:       -0.241870655176385E+00   0.965163619250349E+00
   LPB:    0  -0.241126228748999E+00   0.108759111407464E+01   0.722330E-02   0.000000E+00   0.285352E+02   0.206118E+00
   LPB:    1  -0.228547670538533E+00   0.316702380009072E+00   0.140917E-01   0.000000E+00   0.951032E+02   0.954379E-17
   LPB:    2  -0.226902625390700E+00   0.144833528898883E+00   0.141897E-01   0.129878E+00   0.180399E+03  -0.671770E-15
   LPB:    3  -0.226535255766133E+00   0.913397043250365E-01   0.183580E-01   0.172613E+00   0.106344E+03  -0.209558E-15
   LPB:    4  -0.226370874285407E+00   0.702899795200360E-01   0.216049E-01   0.380209E+00   0.174217E+03   0.508047E-15
   LPB:    5  -0.226238908114010E+00   0.374587959009271E-01   0.279159E-01   0.621314E+00   0.124569E+03   0.817057E-15
   LPB:    6  -0.226121524455087E+00   0.126200465086078E-01   0.379316E-01   0.654629E+00   0.161871E+03   0.930662E-15
  Finished solving LPB equations
  A_corr:   -0.156030496668113     
 End minimization
 Ecorr=   1694.10329349527     
 A_corr= -0.156030496668113     
 Ecorr_band=  -1694.25932399194     
 End Solvation calculations
RMM:  16    -0.135358756844E+03    0.20273E-02   -0.38236E-03 12400   0.212E-01    0.303E-01
 Begin Solvation calculations
  rms_SCF =   0.182936120416755      tol =   1.829361204167548E-002
 Begin minimization
 Creating dielectric and ionic cavities
  area:      133.830615038331     
  volume:    646.681184817828     
  Acav:     7.026107289512375E-002
  Solving linear dielectric/ionic screening model
        iter                  A_solv                     rms
   LPB:       -0.232596748303496E+00   0.481997734378886E+00
   LPB:    0  -0.232476065583150E+00   0.532211295526697E+00   0.290643E-02   0.000000E+00   0.285729E+02   0.830452E-01
   LPB:    1  -0.229069609914204E+00   0.145051935950368E+00   0.141585E-01   0.000000E+00   0.108540E+03  -0.517844E-17
   LPB:    2  -0.228669806299301E+00   0.644228211304761E-01   0.150830E-01   0.110173E+00   0.145835E+03   0.401094E-15
   LPB:    3  -0.228577637055677E+00   0.428384840983442E-01   0.203064E-01   0.171235E+00   0.914401E+02   0.574623E-15
   LPB:    4  -0.228515277081023E+00   0.615438971959293E-01   0.293789E-01   0.467646E+00   0.185788E+03   0.538444E-15
   LPB:    5  -0.228440026104233E+00   0.439550677836477E-01   0.290393E-01   0.122083E+01   0.825137E+02   0.499100E-15
   LPB:    6  -0.228347955588282E+00   0.129781333316644E-01   0.368033E-01   0.965401E+00   0.102505E+03   0.425659E-15
  Finished solving LPB equations
  A_corr:   -0.158086882693158     
 End minimization
 Ecorr=   1690.61203883039     
 A_corr= -0.158086882693158     
 Ecorr_band=  -1690.77012571308     
 End Solvation calculations
RMM:  17    -0.135358445632E+03    0.31121E-03   -0.14898E-03 12753   0.130E-01    0.207E-01
 Begin Solvation calculations
  rms_SCF =   0.182936120416755      tol =   1.829361204167548E-002
 Begin minimization
 Creating dielectric and ionic cavities
  area:      134.112927253860     
  volume:    646.089517709588     
  Acav:     7.040928680827636E-002
  Solving linear dielectric/ionic screening model
        iter                  A_solv                     rms
   LPB:       -0.234611656391767E+00   0.641638990228746E+00
   LPB:    0  -0.234572706182748E+00   0.666034573343026E+00   0.165037E-02   0.000000E+00   0.286006E+02   0.472017E-01
   LPB:    1  -0.230841310951519E+00   0.160527172661587E+00   0.136767E-01   0.000000E+00   0.850694E+02  -0.512185E-18
   LPB:    2  -0.230412247816112E+00   0.756195391840904E-01   0.135862E-01   0.115754E+00   0.193276E+03   0.877223E-15
   LPB:    3  -0.230332857248719E+00   0.347929349930588E-01   0.162988E-01   0.154237E+00   0.103237E+03   0.622856E-15
   LPB:    4  -0.230301214859231E+00   0.334310135228385E-01   0.225116E-01   0.288569E+00   0.153016E+03   0.449983E-15
   LPB:    5  -0.230270912887354E+00   0.226779470166718E-01   0.319619E-01   0.674488E+00   0.849674E+02   0.351778E-15
   LPB:    6  -0.230230855243773E+00   0.927036562658435E-02   0.450102E-01   0.938722E+00   0.982394E+02   0.386504E-15
  Finished solving LPB equations
  A_corr:   -0.159821568435497     
 End minimization
 Ecorr=   1688.15237442094     
 A_corr= -0.159821568435497     
 Ecorr_band=  -1688.31219598937     
 End Solvation calculations
RMM:  18    -0.135358391340E+03    0.54291E-04   -0.78377E-04 13063   0.823E-02    0.142E-01
 Begin Solvation calculations
  rms_SCF =   0.182936120416755      tol =   1.829361204167548E-002
 Begin minimization
 Creating dielectric and ionic cavities
  area:      134.404958017778     
  volume:    645.569190262503     
  Acav:     7.056260295933349E-002
  Solving linear dielectric/ionic screening model
        iter                  A_solv                     rms
   LPB:       -0.238609528506052E+00   0.895554780322435E+00
   LPB:    0  -0.238603490421159E+00   0.904642245750398E+00   0.649519E-03   0.000000E+00   0.286250E+02   0.185925E-01
   LPB:    1  -0.233153130600706E+00   0.209987988983081E+00   0.132608E-01   0.000000E+00   0.728399E+02  -0.795174E-18
   LPB:    2  -0.232497594281214E+00   0.898046920101966E-01   0.130876E-01   0.121866E+00   0.202913E+03   0.128165E-14
   LPB:    3  -0.232372026359151E+00   0.390407781896092E-01   0.166599E-01   0.150477E+00   0.112318E+03   0.176500E-14
   LPB:    4  -0.232325816715966E+00   0.379293987804801E-01   0.222786E-01   0.275193E+00   0.155147E+03   0.211281E-14
   LPB:    5  -0.232291999785475E+00   0.213194101922746E-01   0.285281E-01   0.571501E+00   0.742711E+02   0.228085E-14
   LPB:    6  -0.232259745411906E+00   0.817700801735045E-02   0.385680E-01   0.705506E+00   0.131330E+03   0.227714E-14
  Finished solving LPB equations
  A_corr:   -0.161697142452573     
 End minimization
 Ecorr=   1686.15480978678     
 A_corr= -0.161697142452573     
 Ecorr_band=  -1686.31650692923     
 End Solvation calculations
RMM:  19    -0.135358678468E+03   -0.28713E-03   -0.56918E-04 13971   0.449E-02    0.797E-02
 Begin Solvation calculations
  rms_SCF =   0.179942316576086      tol =   1.799423165760859E-002
 Begin minimization
 Creating dielectric and ionic cavities
  area:      134.755095093954     
  volume:    645.142186042400     
  Acav:     7.074642492432562E-002
  Solving linear dielectric/ionic screening model
        iter                  A_solv                     rms
   LPB:       -0.248515174666842E+00   0.134861589476851E+01
   LPB:    0  -0.248514921693268E+00   0.135036184847940E+01   0.132901E-03   0.000000E+00   0.286450E+02   0.380695E-02
   LPB:    1  -0.236818737055413E+00   0.292767835994613E+00   0.132714E-01   0.000000E+00   0.706446E+02  -0.154869E-18
   LPB:    2  -0.235522150846578E+00   0.131659667954312E+00   0.130077E-01   0.113103E+00   0.201861E+03   0.253636E-15
   LPB:    3  -0.235262665578469E+00   0.535571105640580E-01   0.166256E-01   0.156579E+00   0.107450E+03  -0.291553E-15
   LPB:    4  -0.235171361119427E+00   0.536486676736629E-01   0.219813E-01   0.266136E+00   0.164517E+03  -0.461321E-15
   LPB:    5  -0.235113576204719E+00   0.270521731378664E-01   0.262481E-01   0.530003E+00   0.686343E+02  -0.576633E-15
   LPB:    6  -0.235066589874874E+00   0.104161254186288E-01   0.352234E-01   0.605931E+00   0.152038E+03  -0.591463E-15
  Finished solving LPB equations
  A_corr:   -0.164320164950548     
 End minimization
 Ecorr=   1683.92982749829     
 A_corr= -0.164320164950548     
 Ecorr_band=  -1684.09414766324     
 End Solvation calculations
RMM:  20    -0.135359731033E+03   -0.10526E-02   -0.58149E-04 12265   0.522E-02    0.696E-02
 Begin Solvation calculations
  rms_SCF =   0.129899447431517      tol =   1.298994474315171E-002
 Begin minimization
 Creating dielectric and ionic cavities
  area:      134.835369460858     
  volume:    645.126639824229     
  Acav:     7.078856896695060E-002
  Solving linear dielectric/ionic screening model
        iter                  A_solv                     rms
   LPB:       -0.237450580353451E+00   0.504349161227410E+00
   LPB:    0  -0.237441348501129E+00   0.493829190768288E+00  -0.802840E-03   0.000000E+00   0.286458E+02  -0.229980E-01
   LPB:    1  -0.236019904753311E+00   0.960600470686935E-01   0.130763E-01   0.000000E+00   0.666579E+02  -0.854479E-18
   LPB:    2  -0.235875990779895E+00   0.473471374329853E-01   0.129047E-01   0.102592E+00   0.213584E+03  -0.119230E-15
   LPB:    3  -0.235843404525964E+00   0.180627518166612E-01   0.172026E-01   0.169857E+00   0.955645E+02  -0.235207E-15
   LPB:    4  -0.235822460161340E+00   0.312228369408374E-01   0.336267E-01   0.328809E+00   0.111065E+03  -0.214876E-15
   LPB:    5  -0.235792784481017E+00   0.255467883051275E-01   0.374948E-01   0.127071E+01   0.494236E+02  -0.188279E-15
   LPB:    6  -0.235762591852884E+00   0.903871060012880E-02   0.334277E-01   0.114121E+01   0.835081E+02  -0.712750E-17
  Finished solving LPB equations
  A_corr:   -0.164974022885934     
 End minimization
 Ecorr=   1683.39964696345     
 A_corr= -0.164974022885934     
 Ecorr_band=  -1683.56462098634     
 End Solvation calculations
RMM:  21    -0.135360215031E+03   -0.48400E-03   -0.14923E-04 12009   0.362E-02    0.928E-02
 Begin Solvation calculations
  rms_SCF =   0.129899447431517      tol =   1.298994474315171E-002
 Begin minimization
 Creating dielectric and ionic cavities
  area:      134.920289886001     
  volume:    645.110504212202     
  Acav:     7.083315219015078E-002
  Solving linear dielectric/ionic screening model
        iter                  A_solv                     rms
   LPB:       -0.239341084775481E+00   0.706953257041041E+00
   LPB:    0  -0.239324349046151E+00   0.694709610648930E+00  -0.108094E-02   0.000000E+00   0.286465E+02  -0.309652E-01
   LPB:    1  -0.237094010061149E+00   0.138684374489928E+00   0.123476E-01   0.000000E+00   0.596124E+02  -0.279839E-18
   LPB:    2  -0.236836409122193E+00   0.473766007310818E-01   0.122534E-01   0.116387E+00   0.225467E+03  -0.353274E-15
   LPB:    3  -0.236793671437276E+00   0.152672388587557E-01   0.166286E-01   0.122254E+00   0.132731E+03  -0.613909E-15
   LPB:    4  -0.236782307647656E+00   0.180188570372427E-01   0.232569E-01   0.190115E+00   0.137221E+03  -0.694090E-15
   LPB:    5  -0.236774309899676E+00   0.121855587728816E-01   0.291867E-01   0.560803E+00   0.674717E+02  -0.717944E-15
  Finished solving LPB equations
  A_corr:   -0.165941157709525     
 End minimization
 Ecorr=   1682.97668017436     
 A_corr= -0.165941157709525     
 Ecorr_band=  -1683.14262133207     
 End Solvation calculations
RMM:  22    -0.135360381817E+03   -0.16679E-03   -0.12508E-04 11062   0.183E-02    0.510E-02
 Begin Solvation calculations
  rms_SCF =   0.118014917724755      tol =   1.180149177247549E-002
 Begin minimization
 Creating dielectric and ionic cavities
  area:      134.956191942195     
  volume:    645.174189968212     
  Acav:     7.085200076965248E-002
  Solving linear dielectric/ionic screening model
        iter                  A_solv                     rms
   LPB:       -0.238975586637148E+00   0.578980955889065E+00
   LPB:    0  -0.238949800106894E+00   0.562255281392637E+00  -0.134183E-02   0.000000E+00   0.286435E+02  -0.384348E-01
   LPB:    1  -0.237604927899217E+00   0.104860994408514E+00   0.120640E-01   0.000000E+00   0.572945E+02   0.240127E-17
   LPB:    2  -0.237459077866176E+00   0.363530291832490E-01   0.120656E-01   0.108435E+00   0.221514E+03   0.221436E-15
   LPB:    3  -0.237431615143124E+00   0.132092344163674E-01   0.184589E-01   0.123077E+00   0.111197E+03   0.234083E-15
   LPB:    4  -0.237420016498740E+00   0.190811583502973E-01   0.282930E-01   0.275544E+00   0.103648E+03   0.249484E-15
   LPB:    5  -0.237410186894725E+00   0.132419545255163E-01   0.303528E-01   0.789967E+00   0.638182E+02   0.309269E-15
   LPB:    6  -0.237400439894824E+00   0.627650064328027E-02   0.357292E-01   0.842385E+00   0.103538E+03   0.279557E-15
  Finished solving LPB equations
  A_corr:   -0.166548439125171     
 End minimization
 Ecorr=   1682.62009325731     
 A_corr= -0.166548439125171     
 Ecorr_band=  -1682.78664169644     
 End Solvation calculations
RMM:  23    -0.135360604199E+03   -0.22238E-03   -0.51365E-05  8275   0.217E-02    0.433E-02
 Begin Solvation calculations
  rms_SCF =   0.110635186097157      tol =   1.106351860971572E-002
 Begin minimization
 Creating dielectric and ionic cavities
  area:      134.974509718191     
  volume:    645.275268417882     
  Acav:     7.086161760205051E-002
  Solving linear dielectric/ionic screening model
        iter                  A_solv                     rms
   LPB:       -0.240179374266087E+00   0.702354710087671E+00
   LPB:    0  -0.240133016285723E+00   0.683238385859943E+00  -0.179928E-02   0.000000E+00   0.286388E+02  -0.515293E-01
   LPB:    1  -0.238354260701977E+00   0.120025729672507E+00   0.115261E-01   0.000000E+00   0.566259E+02   0.166761E-17
   LPB:    2  -0.238158998095793E+00   0.368515756430228E-01   0.120191E-01   0.105272E+00   0.222068E+03  -0.346665E-15
   LPB:    3  -0.238128016657215E+00   0.995335246082692E-02   0.176992E-01   0.107745E+00   0.126407E+03  -0.400742E-15
   LPB:    4  -0.238120280024736E+00   0.129930637223203E-01   0.258802E-01   0.170780E+00   0.124367E+03  -0.419652E-15
   LPB:    5  -0.238114630918879E+00   0.118710215115180E-01   0.313360E-01   0.603049E+00   0.734903E+02  -0.437490E-15
   LPB:    6  -0.238108012090204E+00   0.691867322678497E-02   0.366426E-01   0.100198E+01   0.719881E+02  -0.417174E-15
  Finished solving LPB equations
  A_corr:   -0.167246394488154     
 End minimization
 Ecorr=   1682.34760359123     
 A_corr= -0.167246394488154     
 Ecorr_band=  -1682.51484998572     
 End Solvation calculations
RMM:  24    -0.135360740260E+03   -0.13606E-03   -0.64198E-05  9207   0.221E-02    0.344E-02
 Begin Solvation calculations
  rms_SCF =   6.811707989886662E-002 tol =   6.811707989886662E-003
 Begin minimization
 Creating dielectric and ionic cavities
  area:      134.993308525585     
  volume:    645.302731490364     
  Acav:     7.087148697593189E-002
  Solving linear dielectric/ionic screening model
        iter                  A_solv                     rms
   LPB:       -0.239623871450334E+00   0.471271722280834E+00
   LPB:    0  -0.239606024853401E+00   0.459164840513198E+00  -0.111641E-02   0.000000E+00   0.286375E+02  -0.319713E-01
   LPB:    1  -0.238855104812937E+00   0.783263619561575E-01   0.112298E-01   0.000000E+00   0.556223E+02   0.247132E-17
   LPB:    2  -0.238767852202097E+00   0.226471101997764E-01   0.122442E-01   0.106568E+00   0.209918E+03  -0.104543E-15
   LPB:    3  -0.238754773044381E+00   0.640373620703988E-02   0.178747E-01   0.102682E+00   0.132415E+03  -0.119437E-15
   LPB:    4  -0.238750827952318E+00   0.974463021152561E-02   0.293133E-01   0.183930E+00   0.112542E+03  -0.978839E-16
   LPB:    5  -0.238747056270700E+00   0.102238842998838E-01   0.354795E-01   0.789886E+00   0.636040E+02  -0.114911E-15
   LPB:    6  -0.238742409148821E+00   0.580819153185203E-02   0.360791E-01   0.121163E+01   0.630576E+02  -0.164295E-15
  Finished solving LPB equations
  A_corr:   -0.167870922172890     
 End minimization
 Ecorr=   1682.04954730057     
 A_corr= -0.167870922172890     
 Ecorr_band=  -1682.21741822275     
 End Solvation calculations
RMM:  25    -0.135360758378E+03   -0.18118E-04   -0.32215E-05  7463   0.141E-02    0.271E-02
 Begin Solvation calculations
  rms_SCF =   3.782031669999769E-002 tol =   3.782031669999769E-003
 Begin minimization
 Creating dielectric and ionic cavities
  area:      134.991290011985     
  volume:    645.308409905871     
  Acav:     7.087042725629231E-002
  Solving linear dielectric/ionic screening model
        iter                  A_solv                     rms
   LPB:       -0.239281025127216E+00   0.251006269801209E+00
   LPB:    0  -0.239273845447249E+00   0.243284803617959E+00  -0.708112E-03   0.000000E+00   0.286372E+02  -0.202784E-01
   LPB:    1  -0.239087573454979E+00   0.338321017500766E-01   0.100419E-01   0.000000E+00   0.612689E+02   0.823616E-18
   LPB:    2  -0.239069785744958E+00   0.875329043889143E-02   0.123595E-01   0.775866E-01   0.188190E+03  -0.263297E-17
   LPB:    3  -0.239067326130751E+00   0.181748315994717E-02   0.194122E-01   0.880387E-01   0.118899E+03  -0.410101E-17
   LPB:    4  -0.239066032767720E+00   0.358672891795007E-02   0.499435E-01   0.204385E+00   0.114482E+03   0.669099E-17
  Finished solving LPB equations
  A_corr:   -0.168195605511428     
 End minimization
 Ecorr=   1681.84992126294     
 A_corr= -0.168195605511428     
 Ecorr_band=  -1682.01811686846     
 End Solvation calculations
RMM:  26    -0.135360789737E+03   -0.31359E-04   -0.17156E-05  7248   0.146E-02    0.194E-02
 Begin Solvation calculations
  rms_SCF =   9.662714009096612E-003 tol =   9.662714009096611E-004
 Begin minimization
 Creating dielectric and ionic cavities
  area:      134.988922217475     
  volume:    645.310596218921     
  Acav:     7.086918416417430E-002
  Solving linear dielectric/ionic screening model
        iter                  A_solv                     rms
   LPB:       -0.239192025600881E+00   0.863635002821751E-01
   LPB:    0  -0.239190925894741E+00   0.832953929757478E-01  -0.277133E-03   0.000000E+00   0.286371E+02  -0.793630E-02
   LPB:    1  -0.239167946788504E+00   0.112187546838187E-01   0.981789E-02   0.000000E+00   0.673269E+02   0.116536E-18
   LPB:    2  -0.239165996504095E+00   0.288671400209023E-02   0.122687E-01   0.679181E-01   0.205859E+03  -0.188691E-16
   LPB:    3  -0.239165087667307E+00   0.292538847023340E-02   0.470848E-01   0.121424E+00   0.617941E+02  -0.206581E-16
   LPB:    4  -0.239162022311612E+00   0.392829564733909E-02   0.885300E-01   0.179384E+01   0.396672E+02  -0.128780E-16
   LPB:    5  -0.239159585843442E+00   0.304851020193522E-02   0.338991E-01   0.207578E+01   0.888285E+02   0.349357E-16
   LPB:    6  -0.239158200224642E+00   0.319992390921548E-02   0.358489E-01   0.537769E+00   0.120951E+03   0.101977E-15
   LPB:    7  -0.239157500443498E+00   0.403811249639898E-02   0.282469E-01   0.640949E+00   0.225809E+03   0.134166E-15
   LPB:    8  -0.239157023977895E+00   0.257943627047619E-02   0.275696E-01   0.697606E+00   0.897750E+02   0.133689E-15
   LPB:    9  -0.239156493129256E+00   0.125913886896780E-02   0.391251E-01   0.785080E+00   0.726543E+03   0.102262E-15
   LPB:   10  -0.239155927093013E+00   0.806501812389111E-03   0.450068E-01   0.926938E+00   0.522603E+03   0.622585E-16
  Finished solving LPB equations
  A_corr:   -0.168286742928839     
 End minimization
 Ecorr=   1681.69731065137     
 A_corr= -0.168286742928839     
 Ecorr_band=  -1681.86559739430     
 End Solvation calculations
RMM:  27    -0.135360811782E+03   -0.22045E-04   -0.10206E-05  7137   0.119E-02    0.146E-02
 Begin Solvation calculations
  rms_SCF =   9.662714009096612E-003 tol =   9.662714009096611E-004
 Begin minimization
 Creating dielectric and ionic cavities
  area:      134.994228686891     
  volume:    645.301952434455     
  Acav:     7.087197006061779E-002
  Solving linear dielectric/ionic screening model
        iter                  A_solv                     rms
   LPB:       -0.239709409579783E+00   0.252958479331035E+00
   LPB:    0  -0.239703244235962E+00   0.245088467269567E+00  -0.656184E-03   0.000000E+00   0.286375E+02  -0.187915E-01
   LPB:    1  -0.239534350974464E+00   0.320327459288005E-01   0.977059E-02   0.000000E+00   0.575305E+02  -0.210340E-18
   LPB:    2  -0.239516353844104E+00   0.771417754439036E-02   0.132124E-01   0.788005E-01   0.155565E+03  -0.198304E-15
   LPB:    3  -0.239513959886720E+00   0.251851549246612E-02   0.192454E-01   0.913205E-01   0.141946E+03  -0.210059E-15
   LPB:    4  -0.239513326800366E+00   0.278531372041206E-02   0.277574E-01   0.183356E+00   0.118010E+03  -0.209985E-15
   LPB:    5  -0.239513012576787E+00   0.251911643839786E-02   0.262880E-01   0.524079E+00   0.212040E+03  -0.212707E-15
   LPB:    6  -0.239512808006769E+00   0.130764073781498E-02   0.271646E-01   0.630026E+00   0.117111E+03  -0.231334E-15
   LPB:    7  -0.239512607715824E+00   0.642924097464358E-03   0.393720E-01   0.675514E+00   0.113944E+04  -0.249209E-15
  Finished solving LPB equations
  A_corr:   -0.168640637655206     
 End minimization
 Ecorr=   1681.45327092478     
 A_corr= -0.168640637655206     
 Ecorr_band=  -1681.62191156243     
 End Solvation calculations
RMM:  28    -0.135360809064E+03    0.27179E-05   -0.95003E-06  7122   0.889E-03
 Begin Solvation calculations
  rms_SCF =   9.662714009096612E-003 tol =   9.662714009096611E-004
 Begin minimization
 Creating dielectric and ionic cavities
  area:      134.993403709945     
  volume:    645.292734625872     
  Acav:     7.087153694772137E-002
  Solving linear dielectric/ionic screening model
        iter                  A_solv                     rms
   LPB:       -0.239566925912574E+00   0.320916920500901E-01
   LPB:    0  -0.239566598101186E+00   0.289477935947675E-01  -0.151306E-03   0.000000E+00   0.286380E+02  -0.433309E-02
   LPB:    1  -0.239562161545266E+00   0.682654875477632E-02   0.939715E-02   0.000000E+00   0.109137E+03   0.306016E-18
   LPB:    2  -0.239561816143814E+00   0.842477310033854E-03   0.128990E-01   0.567177E-01   0.951763E+02  -0.456091E-16
   LPB:    3  -0.239561664419520E+00   0.724471978204278E-03   0.378317E-01   0.149772E+00   0.148566E+03  -0.463765E-16
   LPB:    4  -0.239561484056781E+00   0.926102920732329E-03   0.551141E-01   0.815991E+00   0.392807E+03  -0.457136E-16
  Finished solving LPB equations
  A_corr:   -0.168689947109060     
 End minimization
 Ecorr=   1681.39852189072     
 A_corr= -0.168689947109060     
 Ecorr_band=  -1681.56721183783     
 End Solvation calculations
   1 F= -.13536081E+03 E0= -.13536036E+03  d E =-.135361E+03
quench:  g(F)=  0.000E+00 g(S)=  0.000E+00 dE (1.order)= 0.000E+00
 bond charge predicted
       N       E                     dE             d eps       ncg     rms          rms(c)
 Begin Solvation calculations
  rms_SCF =   9.662714009096612E-003 tol =   9.662714009096611E-004
 Begin minimization
 Creating dielectric and ionic cavities
  area:      135.122785895629     
  volume:    645.277141384572     
  Acav:     7.093946259520541E-002
  Solving linear dielectric/ionic screening model
        iter                  A_solv                     rms
   LPB:       -0.242876143593641E+00   0.526164897103321E-02
   LPB:    0  -0.242876143466224E+00   0.529100801189732E-02  -0.298299E-05   0.000000E+00   0.286387E+02  -0.854290E-04
   LPB:    1  -0.240781069753858E+00   0.307795659114804E-02   0.160656E-01   0.000000E+00   0.562505E+06   0.418944E-21
   LPB:    2  -0.240534146844505E+00   0.363085948758104E-02   0.273521E-01   0.692260E-01   0.529890E+05  -0.870599E-17
   LPB:    3  -0.240455440576491E+00   0.759224158681678E-02   0.323008E-01   0.269914E+00   0.140791E+05  -0.454640E-17
   LPB:    4  -0.240423567754877E+00   0.198031441912729E-01   0.332391E-01   0.393528E+00   0.128103E+04   0.994219E-18
   LPB:    5  -0.240411340104892E+00   0.264069033937555E-01   0.230144E-01   0.554080E+00   0.162452E+03   0.364599E-16
   LPB:    6  -0.240402447667143E+00   0.912800380014215E-02   0.205157E-01   0.815813E+00   0.235222E+03  -0.282989E-16
   LPB:    7  -0.240396050410482E+00   0.887593839288011E-02   0.334418E-01   0.441337E+00   0.620600E+03  -0.692217E-16
   LPB:    8  -0.240392591584476E+00   0.978199931565480E-02   0.271372E-01   0.666285E+00   0.144900E+03  -0.957089E-16
   LPB:    9  -0.240389907002802E+00   0.406459684153945E-02   0.266250E-01   0.791086E+00   0.252049E+03  -0.875031E-16
   LPB:   10  -0.240387723037774E+00   0.116860632452535E-02   0.382365E-01   0.566474E+00   0.793206E+03  -0.529377E-16
   LPB:   11  -0.240386284071971E+00   0.718068315858725E-03   0.404600E-01   0.622668E+00   0.812805E+04  -0.201817E-16
  Finished solving LPB equations
  A_corr:   -0.169446821476766     
 End minimization
 Ecorr=   1681.36576640137     
 A_corr= -0.169446821476766     
 Ecorr_band=  -1681.53521322284     
 End Solvation calculations
DAV:   1    -0.135362237254E+03   -0.14255E-02   -0.17183E-01 12645   0.761E-01    0.120E-01
 Begin Solvation calculations
  rms_SCF =   9.662714009096612E-003 tol =   9.662714009096611E-004
 Begin minimization
 Creating dielectric and ionic cavities
  area:      135.024851062891     
  volume:    645.201149144724     
  Acav:     7.088804680801800E-002
  Solving linear dielectric/ionic screening model
        iter                  A_solv                     rms
   LPB:       -0.241388369010327E+00   0.301670160753097E+00
   LPB:    0  -0.241340558654779E+00   0.262314538954732E+00  -0.182714E-02   0.000000E+00   0.286423E+02  -0.523335E-01
   LPB:    1  -0.241032947680971E+00   0.605521751083044E-01   0.108007E-01   0.000000E+00   0.733237E+02  -0.143263E-17
   LPB:    2  -0.240986665471711E+00   0.916687752255003E-02   0.134522E-01   0.120802E+00   0.238025E+03   0.530409E-16
   LPB:    3  -0.240975491833925E+00   0.841642265751960E-02   0.252199E-01   0.128775E+00   0.645195E+03   0.152428E-15
   LPB:    4  -0.240972009040088E+00   0.799557312316177E-02   0.239849E-01   0.327747E+00   0.132143E+03   0.168888E-15
   LPB:    5  -0.240970141643929E+00   0.450622732155093E-02   0.236158E-01   0.544557E+00   0.238333E+03   0.125214E-15
   LPB:    6  -0.240968948313381E+00   0.199116946052461E-02   0.315850E-01   0.477799E+00   0.191341E+03   0.156390E-15
   LPB:    7  -0.240968187670924E+00   0.119117394027203E-02   0.350036E-01   0.575160E+00   0.784849E+03   0.170142E-15
   LPB:    8  -0.240967639112529E+00   0.788282529682782E-03   0.371583E-01   0.679359E+00   0.570395E+03   0.168614E-15
  Finished solving LPB equations
  A_corr:   -0.170079592304511     
 End minimization
 Ecorr=   1681.20076681703     
 A_corr= -0.170079592304511     
 Ecorr_band=  -1681.37084640934     
 End Solvation calculations
RMM:   2    -0.135362941941E+03   -0.70469E-03   -0.91200E-03 16017   0.201E-01    0.106E-01
 Begin Solvation calculations
  rms_SCF =   9.662714009096612E-003 tol =   9.662714009096611E-004
 Begin minimization
 Creating dielectric and ionic cavities
  area:      135.018357415410     
  volume:    645.205738053580     
  Acav:     7.088463764309016E-002
  Solving linear dielectric/ionic screening model
        iter                  A_solv                     rms
   LPB:       -0.241325766142332E+00   0.154963474440840E+00
   LPB:    0  -0.241322520735524E+00   0.149795775233058E+00  -0.476044E-03   0.000000E+00   0.286421E+02  -0.136349E-01
   LPB:    1  -0.241262985873981E+00   0.192094938685690E-01   0.917470E-02   0.000000E+00   0.622235E+02  -0.519140E-18
   LPB:    2  -0.241253541777612E+00   0.272102015696392E-02   0.175016E-01   0.831579E-01   0.111751E+03   0.208158E-16
   LPB:    3  -0.241252263610540E+00   0.158413991799855E-02   0.253947E-01   0.932742E-01   0.286231E+03   0.259877E-16
   LPB:    4  -0.241251789478322E+00   0.132123609637709E-02   0.290985E-01   0.323731E+00   0.245124E+03   0.275825E-16
   LPB:    5  -0.241251473515432E+00   0.218592178850787E-02   0.355170E-01   0.545972E+00   0.338123E+03   0.335721E-16
   LPB:    6  -0.241251194411728E+00   0.273251506085130E-02   0.348432E-01   0.900425E+00   0.836849E+02   0.369157E-16
   LPB:    7  -0.241250909070509E+00   0.178738114224233E-02   0.324553E-01   0.109757E+01   0.222498E+03   0.437660E-16
   LPB:    8  -0.241250599780439E+00   0.870137933676085E-03   0.394304E-01   0.892186E+00   0.199482E+03   0.340528E-16
  Finished solving LPB equations
  A_corr:   -0.170365962137349     
 End minimization
 Ecorr=   1681.05352930046     
 A_corr= -0.170365962137349     
 Ecorr_band=  -1681.22389526260     
 End Solvation calculations
RMM:   3    -0.135362794565E+03    0.14738E-03   -0.58489E-04 16735   0.562E-02    0.125E-01
 Begin Solvation calculations
  rms_SCF =   9.662714009096612E-003 tol =   9.662714009096611E-004
 Begin minimization
 Creating dielectric and ionic cavities
  area:      135.020775131445     
  volume:    645.206667484261     
  Acav:     7.088590694400859E-002
  Solving linear dielectric/ionic screening model
        iter                  A_solv                     rms
   LPB:       -0.241351371038085E+00   0.968386914659841E-01
   LPB:    0  -0.241350671488120E+00   0.950596681395357E-01  -0.221015E-03   0.000000E+00   0.286420E+02  -0.633033E-02
   LPB:    1  -0.241326412694420E+00   0.918110438796228E-02   0.905163E-02   0.000000E+00   0.651426E+02   0.307130E-18
   LPB:    2  -0.241324102981573E+00   0.162412658805357E-02   0.145330E-01   0.593008E-01   0.197208E+03   0.570184E-17
   LPB:    3  -0.241323669472255E+00   0.124156933567123E-02   0.275238E-01   0.991030E-01   0.348055E+03   0.119026E-16
   LPB:    4  -0.241323486876146E+00   0.146868823621226E-02   0.314178E-01   0.368999E+00   0.181177E+03   0.952050E-17
   LPB:    5  -0.241323360477396E+00   0.152808883389851E-02   0.295058E-01   0.737089E+00   0.256986E+03   0.112504E-16
   LPB:    6  -0.241323242365760E+00   0.128069883756474E-02   0.334130E-01   0.825167E+00   0.132647E+03   0.180294E-16
   LPB:    7  -0.241323099610555E+00   0.875394277869295E-03   0.417155E-01   0.968092E+00   0.316309E+03   0.196389E-16
  Finished solving LPB equations
  A_corr:   -0.170437192666546     
 End minimization
 Ecorr=   1681.01639667874     
 A_corr= -0.170437192666546     
 Ecorr_band=  -1681.18683387141     
 End Solvation calculations
RMM:   4    -0.135362745657E+03    0.48908E-04   -0.23917E-04 11541   0.396E-02    0.105E-01
 Begin Solvation calculations
  rms_SCF =   9.662714009096612E-003 tol =   9.662714009096611E-004
 Begin minimization
 Creating dielectric and ionic cavities
  area:      135.016659909426     
  volume:    645.197640373357     
  Acav:     7.088374645244865E-002
  Solving linear dielectric/ionic screening model
        iter                  A_solv                     rms
   LPB:       -0.242023537328927E+00   0.194602392459550E+00
   LPB:    0  -0.242000923252420E+00   0.163765662676005E+00  -0.125661E-02   0.000000E+00   0.286424E+02  -0.359923E-01
   LPB:    1  -0.241861564365208E+00   0.462545287489679E-01   0.111300E-01   0.000000E+00   0.784946E+02   0.298027E-17
   LPB:    2  -0.241841374985331E+00   0.608120415825526E-02   0.129247E-01   0.124757E+00   0.173403E+03   0.397853E-15
   LPB:    3  -0.241836886649846E+00   0.485266606675528E-02   0.242121E-01   0.118673E+00   0.464876E+03   0.491065E-15
   LPB:    4  -0.241835608459449E+00   0.454252960238661E-02   0.244242E-01   0.282308E+00   0.122484E+03   0.504742E-15
   LPB:    5  -0.241834978531278E+00   0.305454061077948E-02   0.232486E-01   0.517749E+00   0.250773E+03   0.552619E-15
   LPB:    6  -0.241834560566310E+00   0.120155338343979E-02   0.305520E-01   0.504900E+00   0.127675E+03   0.555805E-15
   LPB:    7  -0.241834287798063E+00   0.689664407187787E-03   0.348772E-01   0.571680E+00   0.496533E+03   0.541267E-15
  Finished solving LPB equations
  A_corr:   -0.170950541345614     
 End minimization
 Ecorr=   1680.80542675280     
 A_corr= -0.170950541345614     
 Ecorr_band=  -1680.97637729415     
 End Solvation calculations
RMM:   5    -0.135362708836E+03    0.36821E-04   -0.16690E-04 12110   0.463E-02    0.466E-02
 Begin Solvation calculations
  rms_SCF =   9.662714009096612E-003 tol =   9.662714009096611E-004
 Begin minimization
 Creating dielectric and ionic cavities
  area:      135.013936116331     
  volume:    645.199599045999     
  Acav:     7.088231646107394E-002
  Solving linear dielectric/ionic screening model
        iter                  A_solv                     rms
   LPB:       -0.242451995662154E+00   0.146327964534352E+00
   LPB:    0  -0.242437655463069E+00   0.118760328122758E+00  -0.100066E-02   0.000000E+00   0.286423E+02  -0.286614E-01
   LPB:    1  -0.242369496012768E+00   0.343656519794074E-01   0.116103E-01   0.000000E+00   0.649510E+02  -0.286798E-17
   LPB:    2  -0.242354416289330E+00   0.633999933747649E-02   0.141634E-01   0.181361E+00   0.150416E+03   0.842318E-16
   LPB:    3  -0.242351898764485E+00   0.476357151968642E-02   0.244633E-01   0.966570E-01   0.218199E+03   0.130716E-15
   LPB:    4  -0.242351112518640E+00   0.383649154014045E-02   0.237896E-01   0.321154E+00   0.880832E+02   0.136958E-15
   LPB:    5  -0.242350623772455E+00   0.218390496524697E-02   0.258001E-01   0.573179E+00   0.270823E+03   0.160412E-15
   LPB:    6  -0.242350246767874E+00   0.917219791478886E-03   0.343077E-01   0.580087E+00   0.134421E+03   0.174256E-15
  Finished solving LPB equations
  A_corr:   -0.171467930306800     
 End minimization
 Ecorr=   1680.58129157691     
 A_corr= -0.171467930306800     
 Ecorr_band=  -1680.75275950722     
 End Solvation calculations
RMM:   6    -0.135362649848E+03    0.58988E-04   -0.73416E-05 11259   0.388E-02    0.157E-02
 Begin Solvation calculations
  rms_SCF =   9.662714009096612E-003 tol =   9.662714009096611E-004
 Begin minimization
 Creating dielectric and ionic cavities
  area:      135.026234661588     
  volume:    645.218649584495     
  Acav:     7.088877319733355E-002
  Solving linear dielectric/ionic screening model
        iter                  A_solv                     rms
   LPB:       -0.242847797027951E+00   0.116125706445827E+00
   LPB:    0  -0.242837527492028E+00   0.890326331982170E-01  -0.846824E-03   0.000000E+00   0.286414E+02  -0.242543E-01
   LPB:    1  -0.242785025949521E+00   0.333234691340759E-01   0.117624E-01   0.000000E+00   0.825869E+02  -0.985078E-18
   LPB:    2  -0.242777679594607E+00   0.425770029160366E-02   0.124612E-01   0.132080E+00   0.108576E+03   0.299740E-15
   LPB:    3  -0.242776065200183E+00   0.322156617689467E-02   0.228662E-01   0.119758E+00   0.280856E+03   0.329203E-15
   LPB:    4  -0.242775467127075E+00   0.333125318094307E-02   0.285891E-01   0.296305E+00   0.782431E+02   0.334357E-15
   LPB:    5  -0.242775047674827E+00   0.284292586286284E-02   0.275495E-01   0.727805E+00   0.256557E+03   0.333289E-15
   LPB:    6  -0.242774676377719E+00   0.120778382261347E-02   0.329763E-01   0.739521E+00   0.802157E+02   0.329852E-15
   LPB:    7  -0.242774391612624E+00   0.634757537549276E-03   0.363267E-01   0.696211E+00   0.236008E+03   0.321504E-15
  Finished solving LPB equations
  A_corr:   -0.171885618415290     
 End minimization
 Ecorr=   1680.27553578516     
 A_corr= -0.171885618415290     
 Ecorr_band=  -1680.44742140357     
 End Solvation calculations
RMM:   7    -0.135362645676E+03    0.41716E-05   -0.19022E-05  7216   0.188E-02
 Begin Solvation calculations
  rms_SCF =   9.662714009096612E-003 tol =   9.662714009096611E-004
 Begin minimization
 Creating dielectric and ionic cavities
  area:      135.032711441193     
  volume:    645.226382313545     
  Acav:     7.089217350662645E-002
  Solving linear dielectric/ionic screening model
        iter                  A_solv                     rms
   LPB:       -0.242936473135618E+00   0.331880361280769E-01
   LPB:    0  -0.242935102759842E+00   0.182926362791917E-01  -0.309343E-03   0.000000E+00   0.286411E+02  -0.885992E-02
   LPB:    1  -0.242930675952581E+00   0.769803069202103E-02   0.150666E-01   0.000000E+00   0.737958E+02  -0.572540E-18
   LPB:    2  -0.242930241671946E+00   0.255179082364556E-02   0.139636E-01   0.105852E+00   0.837932E+02   0.162731E-15
   LPB:    3  -0.242930092444593E+00   0.133409350782525E-02   0.190085E-01   0.252422E+00   0.236212E+03   0.177944E-15
   LPB:    4  -0.242930007584215E+00   0.180319511231858E-02   0.289699E-01   0.373128E+00   0.674713E+02   0.192788E-15
   LPB:    5  -0.242929876737878E+00   0.173900827453754E-02   0.394617E-01   0.113195E+01   0.193010E+03   0.205618E-15
   LPB:    6  -0.242929644494180E+00   0.881344704656172E-03   0.479196E-01   0.146166E+01   0.543863E+02   0.224087E-15
  Finished solving LPB equations
  A_corr:   -0.172037470987553     
 End minimization
 Ecorr=   1680.13143594169     
 A_corr= -0.172037470987553     
 Ecorr_band=  -1680.30347341268     
 End Solvation calculations
   2 F= -.13536265E+03 E0= -.13536221E+03  d E =-.183661E-02
quench:  g(F)=  0.000E+00 g(S)=  0.000E+00 dE (1.order)= 0.000E+00
 bond charge predicted
       N       E                     dE             d eps       ncg     rms          rms(c)
 Begin Solvation calculations
  rms_SCF =   9.662714009096612E-003 tol =   9.662714009096611E-004
 Begin minimization
 Creating dielectric and ionic cavities
  area:      135.148825070120     
  volume:    645.175362635802     
  Acav:     7.095313316181290E-002
  Solving linear dielectric/ionic screening model
        iter                  A_solv                     rms
   LPB:       -0.246295585649803E+00   0.636569357813720E-02
   LPB:    0  -0.246295584871261E+00   0.659928389246828E-02  -0.737298E-05   0.000000E+00   0.286435E+02  -0.211188E-03
   LPB:    1  -0.244389223502212E+00   0.266203473429109E-02   0.159746E-01   0.000000E+00   0.252555E+06  -0.512391E-20
   LPB:    2  -0.244178852211957E+00   0.333513889551527E-02   0.268933E-01   0.655490E-01   0.763699E+05   0.603251E-17
   LPB:    3  -0.244112067422809E+00   0.803218392770376E-02   0.323807E-01   0.263663E+00   0.141697E+05   0.715418E-17
   LPB:    4  -0.244085161534145E+00   0.201987540709430E-01   0.330328E-01   0.394922E+00   0.944289E+03   0.880593E-17
   LPB:    5  -0.244074889613416E+00   0.240433075605153E-01   0.217895E-01   0.578764E+00   0.161310E+03   0.492441E-16
   LPB:    6  -0.244066924681426E+00   0.792049052087505E-02   0.215186E-01   0.785171E+00   0.263466E+03   0.354484E-16
   LPB:    7  -0.244061330482266E+00   0.802612483327698E-02   0.341995E-01   0.441927E+00   0.419331E+03   0.475850E-16
   LPB:    8  -0.244058256090462E+00   0.941536507861562E-02   0.274819E-01   0.683902E+00   0.186379E+03   0.608162E-17
   LPB:    9  -0.244055798198757E+00   0.369138878131806E-02   0.269641E-01   0.814827E+00   0.172040E+03   0.739890E-16
   LPB:   10  -0.244053822901001E+00   0.114274351966953E-02   0.380686E-01   0.569231E+00   0.209420E+04   0.113774E-15
   LPB:   11  -0.244052515139937E+00   0.411065591970599E-03   0.406199E-01   0.620475E+00   0.166080E+04   0.152575E-15
  Finished solving LPB equations
  A_corr:   -0.173099381978124     
 End minimization
 Ecorr=   1680.09365095687     
 A_corr= -0.173099381978124     
 Ecorr_band=  -1680.26675033885     
 End Solvation calculations
DAV:   1    -0.135363572391E+03   -0.92254E-03   -0.15079E-01 12627   0.807E-01    0.844E-02
 Begin Solvation calculations
  rms_SCF =   9.662714009096612E-003 tol =   9.662714009096611E-004
 Begin minimization
 Creating dielectric and ionic cavities
  area:      135.076857213923     
  volume:    645.185329699343     
  Acav:     7.091535003730935E-002
  Solving linear dielectric/ionic screening model
        iter                  A_solv                     rms
   LPB:       -0.244277895224549E+00   0.649205007348180E-01
   LPB:    0  -0.244273783288672E+00   0.463365762711095E-01  -0.535832E-03   0.000000E+00   0.286430E+02  -0.153478E-01
   LPB:    1  -0.244235614452609E+00   0.293530136007369E-01   0.174335E-01   0.000000E+00   0.969457E+02   0.202256E-18
   LPB:    2  -0.244228585167706E+00   0.900008538071026E-02   0.129866E-01   0.247223E+00   0.171700E+03  -0.113768E-15
   LPB:    3  -0.244225601468051E+00   0.522225286403916E-02   0.245842E-01   0.224225E+00   0.324600E+03  -0.149511E-15
   LPB:    4  -0.244224371348863E+00   0.480452328357478E-02   0.254331E-01   0.398519E+00   0.128926E+03  -0.165047E-15
   LPB:    5  -0.244223640351912E+00   0.323652938734498E-02   0.265168E-01   0.569964E+00   0.204787E+03  -0.157701E-15
   LPB:    6  -0.244223122935120E+00   0.148501035019049E-02   0.293054E-01   0.640468E+00   0.246910E+03  -0.142554E-15
   LPB:    7  -0.244222693532798E+00   0.772673722148947E-03   0.365876E-01   0.664720E+00   0.493595E+03  -0.122909E-15
  Finished solving LPB equations
  A_corr:   -0.173307343495489     
 End minimization
 Ecorr=   1679.93251170176     
 A_corr= -0.173307343495489     
 Ecorr_band=  -1680.10581904526     
 End Solvation calculations
RMM:   2    -0.135364091359E+03   -0.51897E-03   -0.58961E-03 14448   0.208E-01    0.782E-02
 Begin Solvation calculations
  rms_SCF =   9.662714009096612E-003 tol =   9.662714009096611E-004
 Begin minimization
 Creating dielectric and ionic cavities
  area:      135.070883762957     
  volume:    645.192422615188     
  Acav:     7.091221397555224E-002
  Solving linear dielectric/ionic screening model
        iter                  A_solv                     rms
   LPB:       -0.244276019861212E+00   0.138344063296731E+00
   LPB:    0  -0.244275629050853E+00   0.137508987012236E+00  -0.165193E-03   0.000000E+00   0.286427E+02  -0.473157E-02
   LPB:    1  -0.244230078519842E+00   0.117503346632301E-01   0.862842E-02   0.000000E+00   0.645096E+02  -0.903823E-19
   LPB:    2  -0.244226832432883E+00   0.226501435183417E-02   0.152780E-01   0.402467E-01   0.132360E+03   0.325187E-16
   LPB:    3  -0.244226339159358E+00   0.172227053743927E-02   0.246319E-01   0.942536E-01   0.211438E+03   0.254318E-16
   LPB:    4  -0.244226114861894E+00   0.163231065873708E-02   0.315166E-01   0.355382E+00   0.149266E+03   0.121078E-16
   LPB:    5  -0.244225935678972E+00   0.184557136633630E-02   0.321245E-01   0.783746E+00   0.334290E+03   0.180313E-16
   LPB:    6  -0.244225732119844E+00   0.154994283644169E-02   0.363376E-01   0.100432E+01   0.116451E+03   0.150289E-16
   LPB:    7  -0.244225494019125E+00   0.106942687318694E-02   0.403056E-01   0.105453E+01   0.594213E+03  -0.902489E-17
   LPB:    8  -0.244225241467160E+00   0.588280414093923E-03   0.440896E-01   0.969660E+00   0.219794E+03  -0.298954E-16
  Finished solving LPB equations
  A_corr:   -0.173313027491608     
 End minimization
 Ecorr=   1679.82552538734     
 A_corr= -0.173313027491608     
 Ecorr_band=  -1679.99883841483     
 End Solvation calculations
RMM:   3    -0.135364093195E+03   -0.18359E-05   -0.52469E-04 15751   0.651E-02    0.128E-01
 Begin Solvation calculations
  rms_SCF =   9.662714009096612E-003 tol =   9.662714009096611E-004
 Begin minimization
 Creating dielectric and ionic cavities
  area:      135.070271370683     
  volume:    645.193521071234     
  Acav:     7.091189246960859E-002
  Solving linear dielectric/ionic screening model
        iter                  A_solv                     rms
   LPB:       -0.244292593961782E+00   0.639307818959391E-01
   LPB:    0  -0.244292395778989E+00   0.631533158804093E-01  -0.117636E-03   0.000000E+00   0.286426E+02  -0.336941E-02
   LPB:    1  -0.244282516079258E+00   0.726151381022595E-02   0.905326E-02   0.000000E+00   0.601028E+02  -0.152361E-18
   LPB:    2  -0.244281113811489E+00   0.134671929164881E-02   0.175459E-01   0.732345E-01   0.109941E+03   0.208655E-17
   LPB:    3  -0.244280845533231E+00   0.666177432417280E-03   0.253956E-01   0.132182E+00   0.237053E+03   0.111129E-16
   LPB:    4  -0.244280693421937E+00   0.508425244375755E-03   0.378416E-01   0.380509E+00   0.312486E+03   0.117933E-16
  Finished solving LPB equations
  A_corr:   -0.173368800952329     
 End minimization
 Ecorr=   1679.79463424242     
 A_corr= -0.173368800952329     
 Ecorr_band=  -1679.96800304338     
 End Solvation calculations
RMM:   4    -0.135363998750E+03    0.94445E-04   -0.14210E-04 10103   0.308E-02    0.575E-02
 Begin Solvation calculations
  rms_SCF =   8.522148294916956E-003 tol =   8.522148294916956E-004
 Begin minimization
 Creating dielectric and ionic cavities
  area:      135.072679158260     
  volume:    645.201714459623     
  Acav:     7.091315655808673E-002
  Solving linear dielectric/ionic screening model
        iter                  A_solv                     rms
   LPB:       -0.244413059370833E+00   0.876108132749866E-01
   LPB:    0  -0.244412186062382E+00   0.848280064479612E-01  -0.246942E-03   0.000000E+00   0.286422E+02  -0.707298E-02
   LPB:    1  -0.244391100644891E+00   0.126986397152195E-01   0.982148E-02   0.000000E+00   0.596258E+02   0.238052E-18
   LPB:    2  -0.244387022557697E+00   0.199428913316042E-02   0.165147E-01   0.115022E+00   0.152032E+03  -0.661881E-16
   LPB:    3  -0.244386300883750E+00   0.124250712161074E-02   0.247409E-01   0.118125E+00   0.389107E+03  -0.107342E-15
   LPB:    4  -0.244385997795558E+00   0.148764651287111E-02   0.309897E-01   0.335294E+00   0.215453E+03  -0.113253E-15
   LPB:    5  -0.244385847646443E+00   0.176651336511798E-02   0.290388E-01   0.528678E+00   0.176335E+03  -0.116876E-15
   LPB:    6  -0.244385749040693E+00   0.117192626864135E-02   0.276371E-01   0.690028E+00   0.117150E+03  -0.132001E-15
   LPB:    7  -0.244385667122940E+00   0.620895931843459E-03   0.322992E-01   0.710847E+00   0.313935E+03  -0.151862E-15
  Finished solving LPB equations
  A_corr:   -0.173472510564854     
 End minimization
 Ecorr=   1679.71063267805     
 A_corr= -0.173472510564854     
 Ecorr_band=  -1679.88410518861     
 End Solvation calculations
RMM:   5    -0.135363997792E+03    0.95820E-06   -0.58359E-05  8740   0.285E-02
 Begin Solvation calculations
  rms_SCF =   8.522148294916956E-003 tol =   8.522148294916956E-004
 Begin minimization
 Creating dielectric and ionic cavities
  area:      135.083764553181     
  volume:    645.212073671084     
  Acav:     7.091897639041977E-002
  Solving linear dielectric/ionic screening model
        iter                  A_solv                     rms
   LPB:       -0.244439471013951E+00   0.102498844364638E+00
   LPB:    0  -0.244438436809349E+00   0.995896442237436E-01  -0.268731E-03   0.000000E+00   0.286418E+02  -0.769694E-02
   LPB:    1  -0.244406101027884E+00   0.137366532258257E-01   0.944935E-02   0.000000E+00   0.718454E+02  -0.648698E-18
   LPB:    2  -0.244400787237034E+00   0.333095498273044E-02   0.167370E-01   0.927783E-01   0.252306E+03  -0.938784E-17
   LPB:    3  -0.244399794005406E+00   0.283574683650428E-02   0.240948E-01   0.129838E+00   0.368236E+03   0.249880E-17
   LPB:    4  -0.244399442003214E+00   0.209406373900963E-02   0.258436E-01   0.330419E+00   0.121812E+03  -0.649107E-17
   LPB:    5  -0.244399259630710E+00   0.167485190252866E-02   0.269849E-01   0.496187E+00   0.252430E+03  -0.397744E-16
   LPB:    6  -0.244399122036713E+00   0.802382050533544E-03   0.289435E-01   0.703414E+00   0.210309E+03  -0.455668E-16
  Finished solving LPB equations
  A_corr:   -0.173480145646293     
 End minimization
 Ecorr=   1679.61883446234     
 A_corr= -0.173480145646293     
 Ecorr_band=  -1679.79231460799     
 End Solvation calculations
   3 F= -.13536400E+03 E0= -.13536359E+03  d E =-.135212E-02
quench:  g(F)=  0.000E+00 g(S)=  0.000E+00 dE (1.order)= 0.000E+00
 bond charge predicted
       N       E                     dE             d eps       ncg     rms          rms(c)
 Begin Solvation calculations
  rms_SCF =   8.522148294916956E-003 tol =   8.522148294916956E-004
 Begin minimization
 Creating dielectric and ionic cavities
  area:      135.250960695812     
  volume:    645.160619848496     
  Acav:     7.100675436530113E-002
  Solving linear dielectric/ionic screening model
        iter                  A_solv                     rms
   LPB:       -0.248443404372656E+00   0.682413042798869E-02
   LPB:    0  -0.248443403623021E+00   0.704383499336018E-02  -0.723472E-05   0.000000E+00   0.286442E+02  -0.207233E-03
   LPB:    1  -0.246042500969374E+00   0.341072299253271E-02   0.159371E-01   0.000000E+00   0.289958E+06  -0.111938E-19
   LPB:    2  -0.245774509217119E+00   0.435424011203041E-02   0.270248E-01   0.658254E-01   0.575355E+05  -0.168298E-16
   LPB:    3  -0.245688375297155E+00   0.104609103371024E-01   0.324794E-01   0.267428E+00   0.119594E+05  -0.170097E-16
   LPB:    4  -0.245653996187557E+00   0.268180415464353E-01   0.323476E-01   0.400762E+00   0.790296E+03  -0.167511E-16
   LPB:    5  -0.245640918695576E+00   0.261337980722474E-01   0.198545E-01   0.619743E+00   0.146523E+03  -0.937684E-17
   LPB:    6  -0.245629723210660E+00   0.665512711427133E-02   0.234922E-01   0.723527E+00   0.347208E+03  -0.861934E-17
   LPB:    7  -0.245622015238082E+00   0.469518966062771E-02   0.374281E-01   0.432139E+00   0.104282E+04  -0.674088E-17
   LPB:    8  -0.245617467847136E+00   0.937272547997221E-02   0.355625E-01   0.620909E+00   0.464124E+03  -0.180754E-16
   LPB:    9  -0.245614759071255E+00   0.747213819210536E-02   0.254346E-01   0.832870E+00   0.119134E+03   0.192796E-16
   LPB:   10  -0.245612377992344E+00   0.263309417776465E-02   0.309484E-01   0.722416E+00   0.478381E+03   0.817278E-16
   LPB:   11  -0.245610666060605E+00   0.811497605390268E-03   0.389566E-01   0.571177E+00   0.866005E+03   0.439922E-16
  Finished solving LPB equations
  A_corr:   -0.174603911695304     
 End minimization
 Ecorr=   1679.56278552266     
 A_corr= -0.174603911695304     
 Ecorr_band=  -1679.73738943435     
 End Solvation calculations
DAV:   1    -0.135364628231E+03   -0.62948E-03   -0.19329E-01 12465   0.949E-01    0.885E-02
 Begin Solvation calculations
  rms_SCF =   8.522148294916956E-003 tol =   8.522148294916956E-004
 Begin minimization
 Creating dielectric and ionic cavities
  area:      135.119352974669     
  volume:    645.130013503095     
  Acav:     7.093766031170100E-002
  Solving linear dielectric/ionic screening model
        iter                  A_solv                     rms
   LPB:       -0.246458614957982E+00   0.140849057270666E+00
   LPB:    0  -0.246432378399852E+00   0.827744468301511E-01  -0.135344E-02   0.000000E+00   0.286456E+02  -0.387701E-01
   LPB:    1  -0.246340717071756E+00   0.335234546549150E-01   0.158561E-01   0.000000E+00   0.795566E+02   0.663093E-18
   LPB:    2  -0.246327846304942E+00   0.153863377152496E-01   0.129046E-01   0.172532E+00   0.201309E+03  -0.175952E-15
   LPB:    3  -0.246323106771148E+00   0.960637584009568E-02   0.221799E-01   0.214248E+00   0.122542E+03  -0.214676E-15
   LPB:    4  -0.246321324354320E+00   0.618703493644781E-02   0.224231E-01   0.371994E+00   0.994811E+02  -0.225819E-15
   LPB:    5  -0.246320217787657E+00   0.273184880445568E-02   0.245129E-01   0.567898E+00   0.324717E+03  -0.223217E-15
   LPB:    6  -0.246319424146153E+00   0.114629836743388E-02   0.360751E-01   0.487342E+00   0.214235E+03  -0.223715E-15
   LPB:    7  -0.246318851126444E+00   0.674285830486656E-03   0.419687E-01   0.620622E+00   0.682314E+03  -0.209524E-15
  Finished solving LPB equations
  A_corr:   -0.175381190814743     
 End minimization
 Ecorr=   1679.30573730151     
 A_corr= -0.175381190814743     
 Ecorr_band=  -1679.48111849233     
 End Solvation calculations
RMM:   2    -0.135365294710E+03   -0.66648E-03   -0.77699E-03 15786   0.225E-01    0.829E-02
 Begin Solvation calculations
  rms_SCF =   8.522148294916956E-003 tol =   8.522148294916956E-004
 Begin minimization
 Creating dielectric and ionic cavities
  area:      135.119894499431     
  volume:    645.138229493808     
  Acav:     7.093794461220149E-002
  Solving linear dielectric/ionic screening model
        iter                  A_solv                     rms
   LPB:       -0.246441828982762E+00   0.151271424985337E+00
   LPB:    0  -0.246441016065421E+00   0.149829209188817E+00  -0.238239E-03   0.000000E+00   0.286452E+02  -0.682440E-02
   LPB:    1  -0.246385600963879E+00   0.129174348449947E-01   0.871894E-02   0.000000E+00   0.646936E+02  -0.123895E-18
   LPB:    2  -0.246381382806328E+00   0.242616924011509E-02   0.149793E-01   0.443063E-01   0.148556E+03   0.253876E-16
   LPB:    3  -0.246380717879333E+00   0.178297698125042E-02   0.256368E-01   0.921042E-01   0.235812E+03   0.278845E-16
   LPB:    4  -0.246380432052772E+00   0.182105831929363E-02   0.315122E-01   0.349715E+00   0.158316E+03   0.230988E-16
   LPB:    5  -0.246380197737167E+00   0.212766955622300E-02   0.323865E-01   0.797653E+00   0.339002E+03   0.425107E-16
   LPB:    6  -0.246379944712709E+00   0.187288139985489E-02   0.356842E-01   0.980052E+00   0.104070E+03   0.463222E-16
   LPB:    7  -0.246379646081008E+00   0.127217217189458E-02   0.395647E-01   0.106449E+01   0.517892E+03   0.753188E-16
   LPB:    8  -0.246379330090073E+00   0.598392643591523E-03   0.437943E-01   0.955935E+00   0.212767E+03   0.109549E-15
  Finished solving LPB equations
  A_corr:   -0.175441385477871     
 End minimization
 Ecorr=   1679.18902763483     
 A_corr= -0.175441385477871     
 Ecorr_band=  -1679.36446902031     
 End Solvation calculations
RMM:   3    -0.135365276409E+03    0.18300E-04   -0.56450E-04 17082   0.606E-02    0.158E-01
 Begin Solvation calculations
  rms_SCF =   8.522148294916956E-003 tol =   8.522148294916956E-004
 Begin minimization
 Creating dielectric and ionic cavities
  area:      135.119196995359     
  volume:    645.138054554654     
  Acav:     7.093757842256353E-002
  Solving linear dielectric/ionic screening model
        iter                  A_solv                     rms
   LPB:       -0.246479284773151E+00   0.438867906680771E-01
   LPB:    0  -0.246478799246464E+00   0.411529916244001E-01  -0.184118E-03   0.000000E+00   0.286452E+02  -0.527409E-02
   LPB:    1  -0.246473877233167E+00   0.663119888464290E-02   0.975660E-02   0.000000E+00   0.596033E+02  -0.319807E-18
   LPB:    2  -0.246472833381125E+00   0.941632262157531E-03   0.174105E-01   0.118846E+00   0.113585E+03   0.116527E-16
   LPB:    3  -0.246472614336500E+00   0.744310636710976E-03   0.304456E-01   0.120000E+00   0.320478E+03   0.708461E-17
   LPB:    4  -0.246472480552224E+00   0.114889048595789E-02   0.344617E-01   0.539586E+00   0.209986E+03   0.649274E-17
   LPB:    5  -0.246472396047816E+00   0.129867262090568E-02   0.294697E-01   0.738643E+00   0.181560E+03   0.651020E-17
   LPB:    6  -0.246472327238649E+00   0.109901316752321E-02   0.308680E-01   0.777381E+00   0.157236E+03   0.654065E-17
   LPB:    7  -0.246472241089995E+00   0.788171651285998E-03   0.420670E-01   0.918690E+00   0.222310E+03  -0.344920E-17
  Finished solving LPB equations
  A_corr:   -0.175534662667432     
 End minimization
 Ecorr=   1679.16009825791     
 A_corr= -0.175534662667432     
 Ecorr_band=  -1679.33563292058     
 End Solvation calculations
RMM:   4    -0.135365133137E+03    0.14327E-03   -0.16027E-04 10155   0.323E-02    0.448E-02
 Begin Solvation calculations
  rms_SCF =   8.522148294916956E-003 tol =   8.522148294916956E-004
 Begin minimization
 Creating dielectric and ionic cavities
  area:      135.110264690317     
  volume:    645.141672138232     
  Acav:     7.093288896241641E-002
  Solving linear dielectric/ionic screening model
        iter                  A_solv                     rms
   LPB:       -0.246946394789904E+00   0.946410824538352E-01
   LPB:    0  -0.246936617081253E+00   0.624787043223006E-01  -0.826245E-03   0.000000E+00   0.286451E+02  -0.236678E-01
   LPB:    1  -0.246900874198099E+00   0.237528202395322E-01   0.149226E-01   0.000000E+00   0.649173E+02  -0.936559E-18
   LPB:    2  -0.246895516039112E+00   0.748817973563199E-02   0.121798E-01   0.183666E+00   0.191290E+03   0.132391E-15
   LPB:    3  -0.246894055420607E+00   0.472636184616813E-02   0.222486E-01   0.149231E+00   0.150178E+03   0.158191E-15
   LPB:    4  -0.246893620071227E+00   0.280061684086331E-02   0.211152E-01   0.314058E+00   0.828876E+02   0.167500E-15
   LPB:    5  -0.246893376062556E+00   0.118689335151213E-02   0.244760E-01   0.483528E+00   0.355805E+03   0.188923E-15
   LPB:    6  -0.246893214262723E+00   0.490919014865781E-03   0.344592E-01   0.470986E+00   0.210685E+03   0.193852E-15
  Finished solving LPB equations
  A_corr:   -0.175960325300306     
 End minimization
 Ecorr=   1678.98907240529     
 A_corr= -0.175960325300306     
 Ecorr_band=  -1679.16503273059     
 End Solvation calculations
RMM:   5    -0.135365117540E+03    0.15597E-04   -0.51688E-05  8462   0.265E-02    0.315E-02
 Begin Solvation calculations
  rms_SCF =   8.522148294916956E-003 tol =   8.522148294916956E-004
 Begin minimization
 Creating dielectric and ionic cavities
  area:      135.113145545576     
  volume:    645.148982464058     
  Acav:     7.093440141142761E-002
  Solving linear dielectric/ionic screening model
        iter                  A_solv                     rms
   LPB:       -0.247225870266402E+00   0.147549087042716E+00
   LPB:    0  -0.247221005801706E+00   0.138507535311906E+00  -0.582788E-03   0.000000E+00   0.286447E+02  -0.166938E-01
   LPB:    1  -0.247161153238106E+00   0.177398599854467E-01   0.924117E-02   0.000000E+00   0.710715E+02   0.111499E-17
   LPB:    2  -0.247155066733450E+00   0.252993272309743E-02   0.141554E-01   0.663880E-01   0.172068E+03   0.155926E-15
   LPB:    3  -0.247154096195597E+00   0.242065075191519E-02   0.249429E-01   0.904942E-01   0.528366E+03   0.171833E-15
   LPB:    4  -0.247153758021635E+00   0.234803927969006E-02   0.267744E-01   0.324604E+00   0.980225E+02   0.170073E-15
   LPB:    5  -0.247153536827487E+00   0.189935509365294E-02   0.270578E-01   0.647233E+00   0.301238E+03   0.165283E-15
   LPB:    6  -0.247153368034998E+00   0.887954868258035E-03   0.311273E-01   0.663333E+00   0.101083E+03   0.150409E-15
   LPB:    7  -0.247153240790556E+00   0.470007711142867E-03   0.351188E-01   0.668170E+00   0.370164E+03   0.146344E-15
  Finished solving LPB equations
  A_corr:   -0.176218839379128     
 End minimization
 Ecorr=   1678.81431860380     
 A_corr= -0.176218839379128     
 Ecorr_band=  -1678.99053744317     
 End Solvation calculations
RMM:   6    -0.135365109149E+03    0.83908E-05   -0.57832E-05 10984   0.372E-02
 Begin Solvation calculations
  rms_SCF =   8.522148294916956E-003 tol =   8.522148294916956E-004
 Begin minimization
 Creating dielectric and ionic cavities
  area:      135.120752673651     
  volume:    645.163301185290     
  Acav:     7.093839515366657E-002
  Solving linear dielectric/ionic screening model
        iter                  A_solv                     rms
   LPB:       -0.247675206038809E+00   0.943760396224859E-01
   LPB:    0  -0.247664739948863E+00   0.563168170150994E-01  -0.854850E-03   0.000000E+00   0.286440E+02  -0.244864E-01
   LPB:    1  -0.247628114734773E+00   0.146353261692804E-01   0.163624E-01   0.000000E+00   0.601835E+02   0.937830E-20
   LPB:    2  -0.247624627924588E+00   0.868788936077487E-02   0.137787E-01   0.113054E+00   0.226732E+03   0.693483E-15
   LPB:    3  -0.247623542955337E+00   0.501213436276310E-02   0.187981E-01   0.228079E+00   0.925817E+02   0.790167E-15
   LPB:    4  -0.247623149025893E+00   0.308868121317486E-02   0.208553E-01   0.327263E+00   0.811930E+02   0.841212E-15
   LPB:    5  -0.247622905619864E+00   0.132106659420927E-02   0.240720E-01   0.535326E+00   0.252080E+03   0.864617E-15
   LPB:    6  -0.247622718392585E+00   0.576158438410868E-03   0.340717E-01   0.543445E+00   0.144584E+03   0.884448E-15
  Finished solving LPB equations
  A_corr:   -0.176684323238919     
 End minimization
 Ecorr=   1678.57577664813     
 A_corr= -0.176684323238919     
 Ecorr_band=  -1678.75246097137     
 End Solvation calculations
   4 F= -.13536511E+03 E0= -.13536471E+03  d E =-.111136E-02
quench:  g(F)=  0.000E+00 g(S)=  0.000E+00 dE (1.order)= 0.000E+00
 bond charge predicted
       N       E                     dE             d eps       ncg     rms          rms(c)
 Begin Solvation calculations
  rms_SCF =   8.522148294916956E-003 tol =   8.522148294916956E-004
 Begin minimization
 Creating dielectric and ionic cavities
  area:      135.204133370510     
  volume:    645.118988352869     
  Acav:     7.098217001951751E-002
  Solving linear dielectric/ionic screening model
        iter                  A_solv                     rms
   LPB:       -0.250381263539685E+00   0.540931583642924E-02
   LPB:    0  -0.250381262983951E+00   0.559476870988763E-02  -0.622896E-05   0.000000E+00   0.286461E+02  -0.178436E-03
   LPB:    1  -0.248805980447973E+00   0.249472227109621E-02   0.161407E-01   0.000000E+00   0.292181E+06  -0.997703E-20
   LPB:    2  -0.248620251571560E+00   0.372146704458033E-02   0.270790E-01   0.702767E-01   0.791305E+05  -0.318655E-18
   LPB:    3  -0.248560991362058E+00   0.891248655831826E-02   0.323546E-01   0.267043E+00   0.104726E+05  -0.116440E-16
   LPB:    4  -0.248537315288891E+00   0.218835364862591E-01   0.324132E-01   0.398805E+00   0.708628E+03  -0.847061E-17
   LPB:    5  -0.248528139036239E+00   0.216482511165729E-01   0.202467E-01   0.620473E+00   0.149439E+03  -0.366464E-17
   LPB:    6  -0.248520493067710E+00   0.696471174670848E-02   0.232389E-01   0.725951E+00   0.327229E+03  -0.434229E-17
   LPB:    7  -0.248515446833640E+00   0.804667412257242E-02   0.343378E-01   0.446661E+00   0.361433E+03   0.756598E-17
   LPB:    8  -0.248512715946988E+00   0.864710796275521E-02   0.265226E-01   0.700635E+00   0.182740E+03   0.643113E-16
   LPB:    9  -0.248510517721839E+00   0.316045240508117E-02   0.275112E-01   0.776025E+00   0.179325E+03   0.141004E-15
   LPB:   10  -0.248508801956168E+00   0.980361331929722E-03   0.384579E-01   0.558354E+00   0.246216E+04   0.232159E-15
   LPB:   11  -0.248507682798829E+00   0.392381809248679E-03   0.406093E-01   0.617721E+00   0.150380E+04   0.243549E-15
  Finished solving LPB equations
  A_corr:   -0.177525512779311     
 End minimization
 Ecorr=   1678.49507905085     
 A_corr= -0.177525512779311     
 Ecorr_band=  -1678.67260456363     
 End Solvation calculations
DAV:   1    -0.135365473131E+03   -0.35559E-03   -0.13292E-01 12546   0.723E-01    0.991E-02
 Begin Solvation calculations
  rms_SCF =   8.522148294916956E-003 tol =   8.522148294916956E-004
 Begin minimization
 Creating dielectric and ionic cavities
  area:      135.166421529278     
  volume:    645.158781614858     
  Acav:     7.096237130287097E-002
  Solving linear dielectric/ionic screening model
        iter                  A_solv                     rms
   LPB:       -0.248497887977454E+00   0.973062367295380E-01
   LPB:    0  -0.248496475339316E+00   0.947752640636201E-01   0.314059E-03   0.000000E+00   0.286443E+02   0.899600E-02
   LPB:    1  -0.248421067481731E+00   0.418581016795369E-01   0.132567E-01   0.000000E+00   0.954256E+02  -0.365541E-18
   LPB:    2  -0.248405759623240E+00   0.737095375592454E-02   0.134811E-01   0.199623E+00   0.228378E+03  -0.277912E-16
   LPB:    3  -0.248400595182547E+00   0.323799398251581E-02   0.250914E-01   0.181263E+00   0.658309E+03  -0.358897E-16
   LPB:    4  -0.248398617400109E+00   0.325804119926340E-02   0.300443E-01   0.319829E+00   0.531510E+03  -0.422524E-16
   LPB:    5  -0.248397694781934E+00   0.388110214593646E-02   0.279257E-01   0.501881E+00   0.290941E+03  -0.343863E-16
[...]
   LPB:    3  -0.258226487784669E+00   0.279465250383198E-03   0.256076E-01   0.121930E+00   0.207357E+03  -0.277505E-17
   LPB:    4  -0.258226478593749E+00   0.287247247138941E-03   0.325367E-01   0.344085E+00   0.265745E+03  -0.276554E-17
   LPB:    5  -0.258226472301945E+00   0.334102938501801E-03   0.305784E-01   0.728408E+00   0.271159E+03  -0.555061E-17
   LPB:    6  -0.258226466292141E+00   0.313199661496443E-03   0.332865E-01   0.877470E+00   0.158780E+03  -0.708328E-17
   LPB:    7  -0.258226460020935E+00   0.196170982777903E-03   0.365295E-01   0.950857E+00   0.279713E+03  -0.960022E-17
  Finished solving LPB equations
  A_corr:   -0.187132076699243     
 End minimization
 Ecorr=   1676.64979084588     
 A_corr= -0.187132076699243     
 Ecorr_band=  -1676.83692292258     
 End Solvation calculations
RMM:   3    -0.135372521241E+03    0.59095E-05   -0.62803E-05  8844   0.214E-02
 Begin Solvation calculations
  rms_SCF =   2.206265597567238E-003 tol =   2.206265597567238E-004
 Begin minimization
 Creating dielectric and ionic cavities
  area:      135.417256272889     
  volume:    644.932676611399     
  Acav:     7.109405954326693E-002
  Solving linear dielectric/ionic screening model
        iter                  A_solv                     rms
   LPB:       -0.258242527984663E+00   0.128301781809705E-01
   LPB:    0  -0.258242517114584E+00   0.126437419039941E-01  -0.275443E-04   0.000000E+00   0.286549E+02  -0.789279E-03
   LPB:    1  -0.258242107861966E+00   0.138117267766105E-02   0.893450E-02   0.000000E+00   0.638866E+02   0.325569E-19
   LPB:    2  -0.258242054146471E+00   0.268744154776191E-03   0.176346E-01   0.664988E-01   0.124326E+03  -0.284055E-17
   LPB:    3  -0.258242043742131E+00   0.165052130065394E-03   0.270354E-01   0.126342E+00   0.219642E+03  -0.262520E-17
   LPB:    4  -0.258242037642046E+00   0.104892440066376E-03   0.327141E-01   0.484528E+00   0.379639E+03  -0.198969E-17
  Finished solving LPB equations
  A_corr:   -0.187147978098779     
 End minimization
 Ecorr=   1676.64739385112     
 A_corr= -0.187147978098779     
 Ecorr_band=  -1676.83454182922     
 End Solvation calculations
  30 F= -.13537252E+03 E0= -.13537229E+03  d E =-.739985E-04
quench:  g(F)=  0.000E+00 g(S)=  0.000E+00 dE (1.order)= 0.000E+00
 bond charge predicted
       N       E                     dE             d eps       ncg     rms          rms(c)
 Begin Solvation calculations
  rms_SCF =   2.206265597567238E-003 tol =   2.206265597567238E-004
 Begin minimization
 Creating dielectric and ionic cavities
  area:      135.420088421654     
  volume:    644.929561646135     
  Acav:     7.109554642136810E-002
  Solving linear dielectric/ionic screening model
        iter                  A_solv                     rms
   LPB:       -0.258419170575398E+00   0.104220361097447E-02
   LPB:    0  -0.258419170572266E+00   0.105045744025448E-02  -0.467519E-06   0.000000E+00   0.286550E+02  -0.133968E-04
   LPB:    1  -0.258328511736190E+00   0.375087459499914E-03   0.160308E-01   0.000000E+00   0.577440E+06   0.362493E-21
   LPB:    2  -0.258318176157433E+00   0.366111876148673E-03   0.270764E-01   0.674979E-01   0.182930E+06   0.192240E-17
   LPB:    3  -0.258314954228155E+00   0.728791910556994E-03   0.322231E-01   0.261942E+00   0.455145E+05   0.269167E-17
   LPB:    4  -0.258313605657821E+00   0.170084729793225E-02   0.348388E-01   0.387134E+00   0.423998E+04   0.289851E-17
   LPB:    5  -0.258312991609795E+00   0.382763681457589E-02   0.329486E-01   0.481453E+00   0.477220E+03   0.242840E-17
   LPB:    6  -0.258312714064021E+00   0.334553295697651E-02   0.207497E-01   0.717726E+00   0.143477E+03  -0.655763E-17
   LPB:    7  -0.258312482666474E+00   0.183635180168275E-02   0.251498E-01   0.687862E+00   0.314052E+03  -0.123536E-16
   LPB:    8  -0.258312346223333E+00   0.212510574447508E-02   0.272494E-01   0.544214E+00   0.198869E+03  -0.292837E-16
   LPB:    9  -0.258312252069852E+00   0.944480602567587E-03   0.236607E-01   0.794720E+00   0.160417E+03  -0.304735E-16
   LPB:   10  -0.258312173876782E+00   0.261010522958747E-03   0.356409E-01   0.551329E+00   0.102920E+04  -0.261134E-16
   LPB:   11  -0.258312122776413E+00   0.110646059902135E-03   0.400007E-01   0.582287E+00   0.368553E+04  -0.184600E-16
  Finished solving LPB equations
  A_corr:   -0.187216576355045     
 End minimization
 Ecorr=   1676.64373371655     
 A_corr= -0.187216576355045     
 Ecorr_band=  -1676.83095029291     
 End Solvation calculations
DAV:   1    -0.135372547669E+03   -0.20518E-04   -0.80627E-03 12708   0.175E-01    0.327E-02
 Begin Solvation calculations
  rms_SCF =   2.206265597567238E-003 tol =   2.206265597567238E-004
 Begin minimization
 Creating dielectric and ionic cavities
  area:      135.420137861306     
  volume:    644.937268620249     
  Acav:     7.109557237718553E-002
  Solving linear dielectric/ionic screening model
        iter                  A_solv                     rms
   LPB:       -0.258240503386576E+00   0.304728590131895E-01
   LPB:    0  -0.258240216230980E+00   0.280420776430194E-01   0.141572E-03   0.000000E+00   0.286546E+02   0.405668E-02
   LPB:    1  -0.258236339233267E+00   0.820065351688709E-02   0.114124E-01   0.000000E+00   0.734171E+02  -0.169228E-18
   LPB:    2  -0.258235337400391E+00   0.110242233877386E-02   0.153622E-01   0.191966E+00   0.242607E+03  -0.160305E-16
   LPB:    3  -0.258235108545038E+00   0.898795306020374E-03   0.287854E-01   0.121912E+00   0.606471E+03  -0.221116E-16
   LPB:    4  -0.258235031070156E+00   0.110392933502406E-02   0.256668E-01   0.379665E+00   0.272415E+03  -0.238410E-16
   LPB:    5  -0.258234988142707E+00   0.781428528058188E-03   0.245698E-01   0.578821E+00   0.185061E+03  -0.258618E-16
   LPB:    6  -0.258234959563540E+00   0.474182557188944E-03   0.301839E-01   0.541927E+00   0.189434E+03  -0.217508E-16
   LPB:    7  -0.258234939775201E+00   0.286493153840528E-03   0.337070E-01   0.620034E+00   0.364731E+03  -0.141882E-16
   LPB:    8  -0.258234924842056E+00   0.169589263144165E-03   0.379173E-01   0.670850E+00   0.686309E+03  -0.121129E-16
  Finished solving LPB equations
  A_corr:   -0.187139352464870     
 End minimization
 Ecorr=   1676.65997314797     
 A_corr= -0.187139352464870     
 Ecorr_band=  -1676.84711250044     
 End Solvation calculations
RMM:   2    -0.135372621515E+03   -0.73846E-04   -0.61421E-04 13402   0.613E-02    0.775E-02
 Begin Solvation calculations
  rms_SCF =   2.206265597567238E-003 tol =   2.206265597567238E-004
 Begin minimization
 Creating dielectric and ionic cavities
  area:      135.417595153188     
  volume:    644.935164377596     
  Acav:     7.109423745542393E-002
  Solving linear dielectric/ionic screening model
        iter                  A_solv                     rms
   LPB:       -0.258254095933377E+00   0.327574764370122E-01
   LPB:    0  -0.258254082938714E+00   0.326835318008439E-01  -0.301161E-04   0.000000E+00   0.286547E+02  -0.862970E-03
   LPB:    1  -0.258251561526424E+00   0.319145494098191E-02   0.869013E-02   0.000000E+00   0.624806E+02  -0.291552E-19
   LPB:    2  -0.258251323527277E+00   0.636323240856669E-03   0.168572E-01   0.486599E-01   0.108166E+03   0.173973E-17
   LPB:    3  -0.258251285310294E+00   0.270694906398668E-03   0.237996E-01   0.113736E+00   0.172179E+03   0.196190E-17
   LPB:    4  -0.258251269769654E+00   0.152779436637003E-03   0.331304E-01   0.292116E+00   0.372495E+03   0.416880E-17
  Finished solving LPB equations
  A_corr:   -0.187157032314230     
 End minimization
 Ecorr=   1676.65987499602     
 A_corr= -0.187157032314230     
 Ecorr_band=  -1676.84703202834     
 End Solvation calculations
RMM:   3    -0.135372598874E+03    0.22641E-04   -0.82737E-05  8217   0.234E-02    0.565E-02
 Begin Solvation calculations
  rms_SCF =   2.206265597567238E-003 tol =   2.206265597567238E-004
 Begin minimization
 Creating dielectric and ionic cavities
  area:      135.415118437923     
  volume:    644.934407725150     
  Acav:     7.109293717990939E-002
  Solving linear dielectric/ionic screening model
        iter                  A_solv                     rms
   LPB:       -0.258249183831688E+00   0.145004838002243E-01
   LPB:    0  -0.258249177772486E+00   0.144029228258717E-01  -0.205648E-04   0.000000E+00   0.286548E+02  -0.589279E-03
   LPB:    1  -0.258248652659682E+00   0.123936333244826E-02   0.879427E-02   0.000000E+00   0.653346E+02   0.783742E-20
   LPB:    2  -0.258248598625519E+00   0.389374066548289E-03   0.170337E-01   0.531260E-01   0.169635E+03   0.101469E-18
   LPB:    3  -0.258248584728252E+00   0.326305018733412E-03   0.261384E-01   0.167607E+00   0.239784E+03  -0.155581E-18
   LPB:    4  -0.258248576842763E+00   0.353474404083650E-03   0.337462E-01   0.439495E+00   0.223660E+03  -0.156594E-17
   LPB:    5  -0.258248570384468E+00   0.325547269489919E-03   0.310063E-01   0.891381E+00   0.231990E+03  -0.231068E-17
   LPB:    6  -0.258248563816334E+00   0.238464755552384E-03   0.342282E-01   0.921276E+00   0.277451E+03  -0.263673E-17
   LPB:    7  -0.258248557480148E+00   0.142756947453321E-03   0.378861E-01   0.871546E+00   0.393712E+03  -0.145222E-17
  Finished solving LPB equations
  A_corr:   -0.187155620300239     
 End minimization
 Ecorr=   1676.66401405285     
 A_corr= -0.187155620300239     
 Ecorr_band=  -1676.85116967315     
 End Solvation calculations
RMM:   4    -0.135372579518E+03    0.19356E-04   -0.19940E-05  7147   0.182E-02    0.124E-02
 Begin Solvation calculations
  rms_SCF =   2.206265597567238E-003 tol =   2.206265597567238E-004
 Begin minimization
 Creating dielectric and ionic cavities
  area:      135.412442163248     
  volume:    644.936966041066     
  Acav:     7.109153213570513E-002
  Solving linear dielectric/ionic screening model
        iter                  A_solv                     rms
   LPB:       -0.258228517230720E+00   0.253588313630018E-01
   LPB:    0  -0.258228446494928E+00   0.247441751988949E-01   0.702647E-04   0.000000E+00   0.286547E+02   0.201341E-02
   LPB:    1  -0.258226320958432E+00   0.382770826481803E-02   0.986288E-02   0.000000E+00   0.710081E+02  -0.100115E-18
   LPB:    2  -0.258225967291048E+00   0.794233804359558E-03   0.155081E-01   0.105821E+00   0.343738E+03  -0.114087E-17
   LPB:    3  -0.258225887957794E+00   0.519891215133306E-03   0.250520E-01   0.138860E+00   0.457458E+03  -0.167356E-17
   LPB:    4  -0.258225862409566E+00   0.488721959784780E-03   0.278910E-01   0.289257E+00   0.263305E+03  -0.783999E-18
   LPB:    5  -0.258225850163565E+00   0.461301650839386E-03   0.253481E-01   0.527414E+00   0.257381E+03   0.264931E-17
   LPB:    6  -0.258225841609958E+00   0.299491070562201E-03   0.285960E-01   0.619150E+00   0.148454E+03   0.250751E-17
   LPB:    7  -0.258225834953403E+00   0.164535101670287E-03   0.339911E-01   0.654696E+00   0.421168E+03   0.237398E-18
  Finished solving LPB equations
  A_corr:   -0.187134302817698     
 End minimization
 Ecorr=   1676.66188590947     
 A_corr= -0.187134302817698     
 Ecorr_band=  -1676.84902021229     
 End Solvation calculations
RMM:   5    -0.135372579703E+03   -0.18498E-06   -0.10481E-05  6728   0.131E-02
 Begin Solvation calculations
  rms_SCF =   2.206265597567238E-003 tol =   2.206265597567238E-004
 Begin minimization
 Creating dielectric and ionic cavities
  area:      135.412855440124     
  volume:    644.936866215413     
  Acav:     7.109174910606504E-002
  Solving linear dielectric/ionic screening model
        iter                  A_solv                     rms
   LPB:       -0.258179449840651E+00   0.259185859216772E-01
   LPB:    0  -0.258179423663121E+00   0.255972949086233E-01   0.427446E-04   0.000000E+00   0.286547E+02   0.122483E-02
   LPB:    1  -0.258177455744177E+00   0.371568438025101E-02   0.964531E-02   0.000000E+00   0.640638E+02  -0.626276E-19
   LPB:    2  -0.258177092731508E+00   0.548592667118816E-03   0.165861E-01   0.107272E+00   0.177701E+03   0.376677E-19
   LPB:    3  -0.258177037433966E+00   0.314196160609462E-03   0.256319E-01   0.985706E-01   0.392370E+03  -0.275201E-17
   LPB:    4  -0.258177017664420E+00   0.194431913445275E-03   0.283547E-01   0.323182E+00   0.431522E+03   0.101343E-18
  Finished solving LPB equations
  A_corr:   -0.187085268558355     
 End minimization
 Ecorr=   1676.68066215557     
 A_corr= -0.187085268558355     
 Ecorr_band=  -1676.86774742413     
 End Solvation calculations
  31 F= -.13537258E+03 E0= -.13537234E+03  d E =-.584618E-04
quench:  g(F)=  0.000E+00 g(S)=  0.000E+00 dE (1.order)= 0.000E+00
 bond charge predicted
       N       E                     dE             d eps       ncg     rms          rms(c)
 Begin Solvation calculations
  rms_SCF =   2.206265597567238E-003 tol =   2.206265597567238E-004
 Begin minimization
 Creating dielectric and ionic cavities
  area:      135.430283326707     
  volume:    644.935695263393     
  Acav:     7.110089874652124E-002
  Solving linear dielectric/ionic screening model
        iter                  A_solv                     rms
   LPB:       -0.258403116592794E+00   0.129028448836431E-02
   LPB:    0  -0.258403116592186E+00   0.129180758766690E-02  -0.205894E-06   0.000000E+00   0.286547E+02  -0.589984E-05
   LPB:    1  -0.258279952760069E+00   0.555358768823791E-03   0.157270E-01   0.000000E+00   0.588651E+06   0.296798E-21
   LPB:    2  -0.258267152144402E+00   0.448781822642071E-03   0.269200E-01   0.607182E-01   0.956612E+05   0.160529E-17
   LPB:    3  -0.258263185473491E+00   0.853806131410263E-03   0.322037E-01   0.259039E+00   0.405703E+05  -0.148622E-18
   LPB:    4  -0.258261496962617E+00   0.220453772052558E-02   0.351609E-01   0.389874E+00   0.433797E+04   0.456065E-19
   LPB:    5  -0.258260740222779E+00   0.502541793412417E-02   0.318755E-01   0.494363E+00   0.387980E+03  -0.511699E-17
   LPB:    6  -0.258260392219816E+00   0.352932956606930E-02   0.188779E-01   0.776498E+00   0.142530E+03  -0.653499E-17
   LPB:    7  -0.258260077311843E+00   0.155978671375680E-02   0.274127E-01   0.623163E+00   0.449503E+03  -0.770028E-18
   LPB:    8  -0.258259889624500E+00   0.215638868691466E-02   0.311374E-01   0.524712E+00   0.246210E+03   0.121561E-18
   LPB:    9  -0.258259774598827E+00   0.131898842238021E-02   0.239202E-01   0.797767E+00   0.158427E+03  -0.857141E-17
   LPB:   10  -0.258259676855460E+00   0.431899828287074E-03   0.330799E-01   0.614460E+00   0.449420E+03  -0.643451E-17
   LPB:   11  -0.258259611491455E+00   0.233142226461827E-03   0.384453E-01   0.575403E+00   0.265255E+04  -0.857690E-17
   LPB:   12  -0.258259569958667E+00   0.252718941777838E-03   0.387427E-01   0.630531E+00   0.221759E+04  -0.794431E-17
   LPB:   13  -0.258259542845231E+00   0.252734671222212E-03   0.367995E-01   0.687292E+00   0.137305E+04  -0.946693E-17
   LPB:   14  -0.258259523196221E+00   0.177615320675602E-03   0.363478E-01   0.733703E+00   0.147141E+04  -0.987802E-17
  Finished solving LPB equations
  A_corr:   -0.187158624449699     
 End minimization
 Ecorr=   1676.68091880548     
 A_corr= -0.187158624449699     
 Ecorr_band=  -1676.86807742993     
 End Solvation calculations
DAV:   1    -0.135372637894E+03   -0.58376E-04   -0.97655E-03 13491   0.220E-01    0.209E-02
 Begin Solvation calculations
  rms_SCF =   2.206265597567238E-003 tol =   2.206265597567238E-004
 Begin minimization
 Creating dielectric and ionic cavities
  area:      135.418463118263     
  volume:    644.932584516078     
  Acav:     7.109469313708790E-002
  Solving linear dielectric/ionic screening model
        iter                  A_solv                     rms
   LPB:       -0.258327551987822E+00   0.366296250061140E-01
   LPB:    0  -0.258327504954090E+00   0.363215637254268E-01  -0.572955E-04   0.000000E+00   0.286549E+02  -0.164179E-02
   LPB:    1  -0.258324099294598E+00   0.404054419572324E-02   0.902640E-02   0.000000E+00   0.631838E+02   0.493557E-19
   LPB:    2  -0.258323611641176E+00   0.796523028000231E-03   0.177036E-01   0.730068E-01   0.132167E+03   0.350387E-17
   LPB:    3  -0.258323532937983E+00   0.417604952409623E-03   0.243937E-01   0.117129E+00   0.250218E+03   0.692809E-18
   LPB:    4  -0.258323501698087E+00   0.186493731608101E-03   0.292106E-01   0.331478E+00   0.493893E+03  -0.148799E-17
  Finished solving LPB equations
  A_corr:   -0.187228808560999     
 End minimization
 Ecorr=   1676.66969445150     
 A_corr= -0.187228808560999     
 Ecorr_band=  -1676.85692326007     
 End Solvation calculations
RMM:   2    -0.135372672900E+03   -0.35006E-04   -0.36444E-04 13498   0.477E-02    0.134E-02
 Begin Solvation calculations
  rms_SCF =   2.206265597567238E-003 tol =   2.206265597567238E-004
 Begin minimization
 Creating dielectric and ionic cavities
  area:      135.419368263551     
  volume:    644.931667424969     
  Acav:     7.109516833836446E-002
  Solving linear dielectric/ionic screening model
        iter                  A_solv                     rms
   LPB:       -0.258311522482769E+00   0.647278178338992E-01
   LPB:    0  -0.258311521203264E+00   0.647263200115172E-01  -0.945010E-05   0.000000E+00   0.286549E+02  -0.270792E-03
   LPB:    1  -0.258301514952643E+00   0.616065899923677E-02   0.877739E-02   0.000000E+00   0.619999E+02   0.176571E-19
   LPB:    2  -0.258300619792844E+00   0.119642708402194E-02   0.156642E-01   0.501287E-01   0.127712E+03  -0.153394E-17
   LPB:    3  -0.258300497598946E+00   0.452745944919877E-03   0.223899E-01   0.955005E-01   0.183408E+03  -0.334110E-17
   LPB:    4  -0.258300464440125E+00   0.304467686625748E-03   0.281296E-01   0.215992E+00   0.379825E+03   0.103756E-17
   LPB:    5  -0.258300448872022E+00   0.378631991238438E-03   0.293992E-01   0.449226E+00   0.416234E+03  -0.509769E-18
   LPB:    6  -0.258300439194105E+00   0.456395155481858E-03   0.300207E-01   0.608780E+00   0.148192E+03  -0.494401E-18
   LPB:    7  -0.258300431918475E+00   0.299505500656297E-03   0.282979E-01   0.797544E+00   0.184217E+03   0.891025E-18
   LPB:    8  -0.258300425160526E+00   0.122306014385824E-03   0.365445E-01   0.719245E+00   0.317568E+03   0.271295E-17
  Finished solving LPB equations
  A_corr:   -0.187205256822161     
 End minimization
 Ecorr=   1676.67597597655     
 A_corr= -0.187205256822161     
 Ecorr_band=  -1676.86318123337     
 End Solvation calculations
RMM:   3    -0.135372669614E+03    0.32861E-05   -0.19560E-05  7108   0.160E-02
 Begin Solvation calculations
  rms_SCF =   2.206265597567238E-003 tol =   2.206265597567238E-004
 Begin minimization
 Creating dielectric and ionic cavities
  area:      135.417601535179     
  volume:    644.930770106334     
  Acav:     7.109424080596917E-002
  Solving linear dielectric/ionic screening model
        iter                  A_solv                     rms
   LPB:       -0.258335373574707E+00   0.274806001019967E-01
   LPB:    0  -0.258335340399503E+00   0.272129953434524E-01  -0.481196E-04   0.000000E+00   0.286549E+02  -0.137886E-02
   LPB:    1  -0.258333538946408E+00   0.289443259845629E-02   0.884239E-02   0.000000E+00   0.620359E+02  -0.584634E-19
   LPB:    2  -0.258333329575647E+00   0.503326997845951E-03   0.171497E-01   0.599246E-01   0.110516E+03  -0.218658E-17
   LPB:    3  -0.258333302246295E+00   0.240733316091551E-03   0.232116E-01   0.964419E-01   0.209524E+03  -0.685986E-18
   LPB:    4  -0.258333291573833E+00   0.114408767024733E-03   0.308746E-01   0.293588E+00   0.293056E+03  -0.229603E-17
  Finished solving LPB equations
  A_corr:   -0.187239050767864     
 End minimization
 Ecorr=   1676.67171064893     
 A_corr= -0.187239050767864     
 Ecorr_band=  -1676.85894969970     
 End Solvation calculations
  32 F= -.13537267E+03 E0= -.13537243E+03  d E =-.899106E-04
quench:  g(F)=  0.000E+00 g(S)=  0.000E+00 dE (1.order)= 0.000E+00
 reached required accuracy - stopping structural energy minimisation
