 vasp.5.4.4.18Apr17-6-g9f103f2a35 (build Feb 06 2024 13:54:16) complex          
  
 POSCAR found type information on POSCAR  Cu N  O 
 05/POSCAR found :  3 types and      40 ions
 scaLAPACK will be used

 ----------------------------------------------------------------------------- 
|                                                                             |
|  ADVICE TO THIS USER RUNNING 'VASP/VAMP'   (HEAR YOUR MASTER'S VOICE ...):  |
|                                                                             |
|      You enforced a specific xc-type in the INCAR file,                     |
|      a different type was found on the POTCAR file                          |
|          I HOPE YOU KNOW, WHAT YOU ARE  DOING                               |
|                                                                             |
 ----------------------------------------------------------------------------- 

 LDA part: xc-table for Pade appr. of Perdew
 POSCAR found type information on POSCAR  Cu N  O 
 00/POSCAR found :  3 types and      40 ions
 POSCAR found type information on POSCAR  Cu N  O 
 06/POSCAR found :  3 types and      40 ions
 Jacobian:    19.9537150754471     
 POSCAR, INCAR and KPOINTS ok, starting setup
 FFT: planning ...
 WAVECAR not read
 entering main loop
       N       E                     dE             d eps       ncg     rms          rms(c)
  Solvation turned off during non-self-consistent phase (first NELMDL steps)
DAV:   1     0.426233036229E+04    0.42623E+04   -0.18052E+05 12096   0.212E+03
DAV:   2     0.628915392159E+03   -0.36334E+04   -0.35109E+04 12114   0.478E+02
DAV:   3    -0.320441729940E+02   -0.66096E+03   -0.61134E+03 13851   0.239E+02
DAV:   4    -0.149449125576E+03   -0.11740E+03   -0.10388E+03 20079   0.952E+01
DAV:   5    -0.164112056196E+03   -0.14663E+02   -0.14107E+02 18963   0.309E+01    0.448E+01
 Begin Solvation calculations
  rms_SCF =    6.40664389617567      tol =   0.640664389617567     
 Begin minimization
 Creating dielectric and ionic cavities
  area:      169.449284246455     
  volume:    656.630799760464     
  Acav:     8.896087422938884E-002
  Solving linear dielectric/ionic screening model
        iter                  A_solv                     rms
   LPB:       -0.371247468966439E+03   0.276145712896019E+03
   LPB:    0  -0.871207324241548E+01   0.398812501807518E+02  -0.507911E+01   0.000000E+00   0.281064E+02  -0.142756E+03
   LPB:    1  -0.154180824685005E+01   0.777212617830755E+01   0.104848E-01   0.000000E+00   0.780593E+02  -0.305711E-14
   LPB:    2  -0.602748465971274E+00   0.125667707036976E+01   0.135190E-01   0.101572E+00   0.278953E+03  -0.101375E-13
   LPB:    3  -0.379585852835987E+00   0.143051205282048E+01   0.259435E-01   0.123835E+00   0.686727E+03  -0.126179E-13
   LPB:    4  -0.307684158836821E+00   0.107410050888965E+01   0.240102E-01   0.348137E+00   0.738676E+02  -0.120816E-13
   LPB:    5  -0.269036711932188E+00   0.571741757576360E+00   0.235841E-01   0.547215E+00   0.439026E+03  -0.662309E-14
  Finished solving LPB equations
  A_corr:   -0.180075837702799     
 End minimization
 Ecorr=   1982.85644684251     
 A_corr= -0.180075837702799     
 Ecorr_band=  -1983.03652268022     
 End Solvation calculations
RMM:   6    -0.156424414569E+03    0.76876E+01   -0.37186E+02 12250   0.976E+01    0.342E+01
 Begin Solvation calculations
  rms_SCF =    6.40664389617567      tol =   0.640664389617567     
 Begin minimization
 Creating dielectric and ionic cavities
  area:      192.155887207538     
  volume:    674.882078067247     
  Acav:     0.100881840783957     
  Solving linear dielectric/ionic screening model
        iter                  A_solv                     rms
   LPB:       -0.188071925460309E+02   0.815135703970540E+02
   LPB:    0  -0.170541070245122E+02   0.779856158217081E+02   0.358696E+00   0.000000E+00   0.272508E+02   0.977476E+01
   LPB:    1  -0.159841318634215E+01   0.674088992267654E+01   0.902067E-02   0.000000E+00   0.622336E+02  -0.693348E-15
   LPB:    2  -0.494634128867396E+00   0.197002234158286E+01   0.152721E-01   0.421826E-01   0.139847E+03   0.376597E-14
   LPB:    3  -0.320687339641900E+00   0.996674511610311E+00   0.233839E-01   0.102924E+00   0.909823E+02   0.371147E-14
   LPB:    4  -0.270676450996714E+00   0.843236399101507E+00   0.232139E-01   0.289612E+00   0.246024E+03   0.244973E-13
   LPB:    5  -0.245594749700246E+00   0.360378001768875E+00   0.246503E-01   0.472301E+00   0.107000E+03   0.383079E-13
  Finished solving LPB equations
  A_corr:   -0.144712908916288     
 End minimization
 Ecorr=   1864.28904207969     
 A_corr= -0.144712908916288     
 Ecorr_band=  -1864.43375498861     
 End Solvation calculations
RMM:   7    -0.145996840494E+03    0.10428E+02   -0.78665E+01 12370   0.458E+01    0.180E+01
 Begin Solvation calculations
  rms_SCF =    6.40664389617567      tol =   0.640664389617567     
 Begin minimization
 Creating dielectric and ionic cavities
  area:      212.063188001667     
  volume:    671.163331802900     
  Acav:     0.111333173700875     
  Solving linear dielectric/ionic screening model
        iter                  A_solv                     rms
   LPB:       -0.955199902167437E+01   0.583874414615097E+02
   LPB:    0  -0.946765484868626E+01   0.580640207746982E+02  -0.784275E-01   0.000000E+00   0.274251E+02  -0.215088E+01
   LPB:    1  -0.974265074355095E+00   0.519705804777503E+01   0.903178E-02   0.000000E+00   0.616905E+02   0.116375E-15
   LPB:    2  -0.320433261578968E+00   0.102647378750831E+01   0.152557E-01   0.455749E-01   0.137198E+03  -0.431273E-14
   LPB:    3  -0.225934083767074E+00   0.558957239600430E+00   0.228166E-01   0.966371E-01   0.196615E+03   0.316793E-15
   LPB:    4  -0.206109312177906E+00   0.320040207694287E+00   0.246865E-01   0.193897E+00   0.145423E+03   0.484512E-14
  Finished solving LPB equations
  A_corr:   -9.477613847703102E-002
 End minimization
 Ecorr=   1857.54972658426     
 A_corr= -9.477613847703102E-002
 Ecorr_band=  -1857.64450272274     
 End Solvation calculations
RMM:   8    -0.136081267681E+03    0.99156E+01   -0.50724E+00 12368   0.952E+00    0.922E+00
 Begin Solvation calculations
  rms_SCF =    5.45503677370408      tol =   0.545503677370409     
 Begin minimization
 Creating dielectric and ionic cavities
  area:      161.246935314299     
  volume:    670.326245156160     
  Acav:     8.465464104000714E-002
  Solving linear dielectric/ionic screening model
        iter                  A_solv                     rms
   LPB:       -0.491173649585834E+00   0.995753589702777E+01
   LPB:    0  -0.489761709351478E+00   0.997951699155231E+01   0.101400E-01   0.000000E+00   0.274644E+02   0.278489E+00
   LPB:    1  -0.232805907923903E+00   0.104134978794089E+01   0.914643E-02   0.000000E+00   0.613241E+02   0.467022E-17
   LPB:    2  -0.202917846199782E+00   0.290737103589288E+00   0.177391E-01   0.599736E-01   0.106472E+03   0.583820E-15
   LPB:    3  -0.196371192361290E+00   0.129575512857390E+00   0.251014E-01   0.154794E+00   0.108846E+03   0.210528E-15
   LPB:    4  -0.191665158012799E+00   0.202620676125985E+00   0.435650E-01   0.414187E+00   0.997054E+02   0.926900E-15
  Finished solving LPB equations
  A_corr:   -0.107010516972792     
 End minimization
 Ecorr=   1831.16111538526     
 A_corr= -0.107010516972792     
 Ecorr_band=  -1831.26812590223     
 End Solvation calculations
RMM:   9    -0.134529366211E+03    0.15519E+01   -0.19722E+00 12497   0.509E+00    0.633E+00
 Begin Solvation calculations
  rms_SCF =    4.31147139799147      tol =   0.431147139799147     
 Begin minimization
 Creating dielectric and ionic cavities
  area:      176.190984041488     
  volume:    668.452381231310     
  Acav:     9.250026662178111E-002
  Solving linear dielectric/ionic screening model
        iter                  A_solv                     rms
   LPB:       -0.399442605337196E+00   0.639426749635950E+01
   LPB:    0  -0.377296390875180E+00   0.513787512036986E+01  -0.400947E-01   0.000000E+00   0.275522E+02  -0.110470E+01
   LPB:    1  -0.247981395838631E+00   0.128670509193172E+01   0.113408E-01   0.000000E+00   0.645249E+02  -0.704603E-18
   LPB:    2  -0.228798478122821E+00   0.278210778559857E+00   0.143503E-01   0.117232E+00   0.127596E+03  -0.659039E-14
   LPB:    3  -0.221843028382522E+00   0.308660247636319E+00   0.265626E-01   0.195886E+00   0.244247E+03  -0.869827E-14
   LPB:    4  -0.217890606707523E+00   0.276053996557617E+00   0.278400E-01   0.542175E+00   0.504555E+02  -0.944317E-14
  Finished solving LPB equations
  A_corr:   -0.125390340085742     
 End minimization
 Ecorr=   1809.21240224526     
 A_corr= -0.125390340085742     
 Ecorr_band=  -1809.33779258535     
 End Solvation calculations
RMM:  10    -0.134050207266E+03    0.47916E+00   -0.70431E-01 12520   0.267E+00    0.414E+00
 Begin Solvation calculations
  rms_SCF =    1.47842552291129      tol =   0.147842552291129     
 Begin minimization
 Creating dielectric and ionic cavities
  area:      150.184275740352     
  volume:    667.129793783326     
  Acav:     7.884674476368454E-002
  Solving linear dielectric/ionic screening model
        iter                  A_solv                     rms
   LPB:       -0.397641224233859E+00   0.589690370896004E+01
   LPB:    0  -0.373787070043845E+00   0.567115143707371E+01   0.415653E-01   0.000000E+00   0.276142E+02   0.114779E+01
   LPB:    1  -0.271126831676335E+00   0.719179070282536E+00   0.959378E-02   0.000000E+00   0.689274E+02   0.449762E-16
   LPB:    2  -0.257093440305988E+00   0.189716601779498E+00   0.169387E-01   0.774230E-01   0.161794E+03  -0.679280E-16
   LPB:    3  -0.248942067480877E+00   0.127981006499210E+00   0.374952E-01   0.262405E+00   0.188035E+03   0.390431E-14
   LPB:    4  -0.244487087570301E+00   0.243100631393759E+00   0.341028E-01   0.600897E+00   0.258709E+03   0.608630E-14
   LPB:    5  -0.241310539508635E+00   0.210015132393910E+00   0.329967E-01   0.736937E+00   0.402442E+02   0.731536E-14
   LPB:    6  -0.239059992803690E+00   0.183837127962985E+00   0.286993E-01   0.814575E+00   0.166048E+03   0.701749E-14
   LPB:    7  -0.237422309498000E+00   0.897596986593428E-01   0.301517E-01   0.692632E+00   0.437505E+02   0.813014E-14
  Finished solving LPB equations
  A_corr:   -0.158575564734316     
 End minimization
 Ecorr=   1759.71940060183     
 A_corr= -0.158575564734316     
 Ecorr_band=  -1759.87797616656     
 End Solvation calculations
RMM:  11    -0.133941757416E+03    0.10845E+00   -0.72621E-01 12939   0.227E+00    0.369E+00
 Begin Solvation calculations
  rms_SCF =    1.47842552291129      tol =   0.147842552291129     
 Begin minimization
 Creating dielectric and ionic cavities
  area:      147.311499954192     
  volume:    663.954293462969     
  Acav:     7.733853747595082E-002
  Solving linear dielectric/ionic screening model
        iter                  A_solv                     rms
   LPB:       -0.342209122917126E+00   0.291244374573640E+01
   LPB:    0  -0.338768428685152E+00   0.216534266087785E+01  -0.157436E-01   0.000000E+00   0.277631E+02  -0.437091E+00
   LPB:    1  -0.278619376254502E+00   0.708420166871385E+00   0.153222E-01   0.000000E+00   0.674621E+02   0.328071E-16
   LPB:    2  -0.271701336039479E+00   0.283176178611335E+00   0.163999E-01   0.107456E+00   0.122403E+03   0.226608E-14
   LPB:    3  -0.269391206737604E+00   0.133121868303885E+00   0.211457E-01   0.258985E+00   0.118124E+03   0.273219E-14
   LPB:    4  -0.268247941184156E+00   0.224208743333854E+00   0.267401E-01   0.391353E+00   0.995822E+02   0.456176E-14
   LPB:    5  -0.267322130887465E+00   0.177610872350137E+00   0.241622E-01   0.896194E+00   0.126092E+03   0.581879E-14
   LPB:    6  -0.266162339684941E+00   0.703917723511542E-01   0.399007E-01   0.758602E+00   0.487536E+02   0.666310E-14
  Finished solving LPB equations
  A_corr:   -0.188823802208990     
 End minimization
 Ecorr=   1734.86034364659     
 A_corr= -0.188823802208990     
 Ecorr_band=  -1735.04916744880     
 End Solvation calculations
RMM:  12    -0.133802290246E+03    0.13947E+00   -0.16880E-01 12595   0.150E+00    0.191E+00
 Begin Solvation calculations
  rms_SCF =    1.47842552291129      tol =   0.147842552291129     
 Begin minimization
 Creating dielectric and ionic cavities
  area:      144.415943974886     
  volume:    660.826166261239     
  Acav:     7.581837058681530E-002
  Solving linear dielectric/ionic screening model
        iter                  A_solv                     rms
   LPB:       -0.347165476834797E+00   0.176276409293461E+01
   LPB:    0  -0.345525178753486E+00   0.205831862218700E+01   0.108417E-01   0.000000E+00   0.279097E+02   0.302590E+00
   LPB:    1  -0.299667425060949E+00   0.631516798821515E+00   0.159625E-01   0.000000E+00   0.656174E+02   0.101826E-16
   LPB:    2  -0.293831577393600E+00   0.348410924647310E+00   0.133689E-01   0.151949E+00   0.217071E+03   0.108566E-14
   LPB:    3  -0.291949158617487E+00   0.186439435665551E+00   0.201119E-01   0.214414E+00   0.893406E+02   0.978702E-15
   LPB:    4  -0.290819924095472E+00   0.156185804478324E+00   0.308766E-01   0.390744E+00   0.705369E+02   0.321116E-15
   LPB:    5  -0.289806841233679E+00   0.133310002234289E+00   0.306170E-01   0.904747E+00   0.164791E+03  -0.113098E-14
  Finished solving LPB equations
  A_corr:   -0.213988470646864     
 End minimization
 Ecorr=   1710.46817060476     
 A_corr= -0.213988470646864     
 Ecorr_band=  -1710.68215907541     
 End Solvation calculations
RMM:  13    -0.133809544634E+03   -0.72544E-02   -0.26272E-01 12546   0.199E+00    0.173E+00
 Begin Solvation calculations
  rms_SCF =   0.932902452854253      tol =   9.329024528542526E-002
 Begin minimization
 Creating dielectric and ionic cavities
  area:      146.480169668260     
  volume:    658.744611973101     
  Acav:     7.690208907583664E-002
  Solving linear dielectric/ionic screening model
        iter                  A_solv                     rms
   LPB:       -0.343539823285846E+00   0.197250851997027E+01
   LPB:    0  -0.342549311271514E+00   0.159319388232258E+01  -0.841025E-02   0.000000E+00   0.280073E+02  -0.235549E+00
   LPB:    1  -0.318701078709381E+00   0.676715109405345E+00   0.136697E-01   0.000000E+00   0.658297E+02   0.755950E-17
   LPB:    2  -0.315018880477777E+00   0.173451106109669E+00   0.146595E-01   0.143976E+00   0.887450E+02   0.392706E-14
   LPB:    3  -0.313726933442801E+00   0.183610459366442E+00   0.238842E-01   0.215351E+00   0.222115E+03   0.451058E-14
   LPB:    4  -0.312591507076484E+00   0.183420985757189E+00   0.286957E-01   0.731487E+00   0.544798E+02   0.469760E-14
   LPB:    5  -0.311417751473297E+00   0.107650099013648E+00   0.315829E-01   0.939256E+00   0.133148E+03   0.446317E-14
   LPB:    6  -0.310483899930121E+00   0.462830101404293E-01   0.374653E-01   0.670692E+00   0.744943E+02   0.541653E-14
  Finished solving LPB equations
  A_corr:   -0.233581810854284     
 End minimization
 Ecorr=   1691.50476927389     
 A_corr= -0.233581810854284     
 Ecorr_band=  -1691.73835108475     
 End Solvation calculations
RMM:  14    -0.133772517283E+03    0.37027E-01   -0.45728E-02 12405   0.973E-01    0.875E-01
 Begin Solvation calculations
  rms_SCF =   0.364344238196926      tol =   3.643442381969258E-002
 Begin minimization
 Creating dielectric and ionic cavities
  area:      144.535294035644     
  volume:    657.084067240013     
  Acav:     7.588102936871285E-002
  Solving linear dielectric/ionic screening model
        iter                  A_solv                     rms
   LPB:       -0.347963804917154E+00   0.137464667823091E+01
   LPB:    0  -0.347661876207112E+00   0.117893996784339E+01  -0.463691E-02   0.000000E+00   0.280852E+02  -0.130228E+00
   LPB:    1  -0.330871649531261E+00   0.638907261698158E+00   0.139325E-01   0.000000E+00   0.870146E+02   0.268204E-17
   LPB:    2  -0.328377243984670E+00   0.138164220828124E+00   0.137622E-01   0.150402E+00   0.728604E+02  -0.101022E-14
   LPB:    3  -0.327761564866653E+00   0.915807612407163E-01   0.188709E-01   0.180003E+00   0.282414E+03  -0.961267E-15
   LPB:    4  -0.327407953442814E+00   0.958146048805812E-01   0.288476E-01   0.375712E+00   0.688665E+02  -0.982422E-15
   LPB:    5  -0.326953311833475E+00   0.885448231349029E-01   0.368874E-01   0.100548E+01   0.157622E+03  -0.718908E-15
   LPB:    6  -0.326359185019348E+00   0.422092476981700E-01   0.436331E-01   0.110477E+01   0.399321E+02   0.482013E-15
   LPB:    7  -0.325981548824753E+00   0.202300922629288E-01   0.333584E-01   0.831390E+00   0.912781E+02   0.151462E-14
  Finished solving LPB equations
  A_corr:   -0.250100519456040     
 End minimization
 Ecorr=   1676.55863669099     
 A_corr= -0.250100519456040     
 Ecorr_band=  -1676.80873721044     
 End Solvation calculations
RMM:  15    -0.133765950939E+03    0.65663E-02   -0.12687E-02 12502   0.394E-01    0.635E-01
 Begin Solvation calculations
  rms_SCF =   0.364344238196926      tol =   3.643442381969258E-002
 Begin minimization
 Creating dielectric and ionic cavities
  area:      143.582251800220     
  volume:    655.972465229412     
  Acav:     7.538068219511569E-002
  Solving linear dielectric/ionic screening model
        iter                  A_solv                     rms
   LPB:       -0.351877938835333E+00   0.118360452857365E+01
   LPB:    0  -0.351394049774318E+00   0.927763714673572E+00  -0.586471E-02   0.000000E+00   0.281373E+02  -0.165017E+00
   LPB:    1  -0.340350869617424E+00   0.372025024127054E+00   0.152919E-01   0.000000E+00   0.763742E+02  -0.446397E-17
   LPB:    2  -0.338984952299913E+00   0.103849580543367E+00   0.146347E-01   0.129243E+00   0.921185E+02  -0.219334E-15
   LPB:    3  -0.338681069237001E+00   0.643485375042115E-01   0.191734E-01   0.169812E+00   0.223051E+03  -0.291560E-15
   LPB:    4  -0.338579544132158E+00   0.597283774612096E-01   0.203199E-01   0.315242E+00   0.998127E+02   0.533288E-15
   LPB:    5  -0.338490754010233E+00   0.410978678807304E-01   0.273866E-01   0.648897E+00   0.201659E+03   0.100855E-14
   LPB:    6  -0.338376144335085E+00   0.175247893012219E-01   0.458693E-01   0.770676E+00   0.575454E+02   0.145509E-14
  Finished solving LPB equations
  A_corr:   -0.262995462139969     
 End minimization
 Ecorr=   1669.48692894871     
 A_corr= -0.262995462139969     
 Ecorr_band=  -1669.74992441085     
 End Solvation calculations
RMM:  16    -0.133763240847E+03    0.27101E-02   -0.75816E-03 12589   0.245E-01    0.343E-01
 Begin Solvation calculations
  rms_SCF =   0.364344238196926      tol =   3.643442381969258E-002
 Begin minimization
 Creating dielectric and ionic cavities
  area:      143.462282349668     
  volume:    653.516730192404     
  Acav:     7.531769823357587E-002
  Solving linear dielectric/ionic screening model
        iter                  A_solv                     rms
   LPB:       -0.463858933946381E+00   0.315144771347122E+01
   LPB:    0  -0.460357836018251E+00   0.248052232477074E+01  -0.157431E-01   0.000000E+00   0.282524E+02  -0.444780E+00
   LPB:    1  -0.386258576084437E+00   0.949618717683920E+00   0.153582E-01   0.000000E+00   0.727488E+02  -0.559426E-17
   LPB:    2  -0.377101554266001E+00   0.262980729108736E+00   0.146472E-01   0.129576E+00   0.905215E+02   0.347569E-14
   LPB:    3  -0.374928288707816E+00   0.181154238671767E+00   0.207608E-01   0.167444E+00   0.195085E+03   0.407195E-14
   LPB:    4  -0.374044252094203E+00   0.175576411784140E+00   0.213910E-01   0.394794E+00   0.101590E+03   0.445074E-14
   LPB:    5  -0.373447490308329E+00   0.100006030089879E+00   0.227877E-01   0.633669E+00   0.203849E+03   0.466924E-14
   LPB:    6  -0.372965232652891E+00   0.315719906070721E-01   0.336135E-01   0.547854E+00   0.963113E+02   0.529377E-14
  Finished solving LPB equations
  A_corr:   -0.297647534419316     
 End minimization
 Ecorr=   1652.82485032854     
 A_corr= -0.297647534419316     
 Ecorr_band=  -1653.12249786296     
 End Solvation calculations
RMM:  17    -0.133767125444E+03   -0.38846E-02   -0.15569E-02 12314   0.294E-01    0.334E-01
 Begin Solvation calculations
  rms_SCF =   0.364344238196926      tol =   3.643442381969258E-002
 Begin minimization
 Creating dielectric and ionic cavities
  area:      143.681159327310     
  volume:    653.335971412649     
  Acav:     7.543260864683794E-002
  Solving linear dielectric/ionic screening model
        iter                  A_solv                     rms
   LPB:       -0.385641359938218E+00   0.762001290820608E+00
   LPB:    0  -0.385505767981128E+00   0.648527705098147E+00  -0.309770E-02   0.000000E+00   0.282609E+02  -0.875437E-01
   LPB:    1  -0.380726634362057E+00   0.211824018255137E+00   0.157068E-01   0.000000E+00   0.716597E+02   0.323598E-17
   LPB:    2  -0.380130950569535E+00   0.898892904724496E-01   0.153830E-01   0.127266E+00   0.901186E+02   0.737275E-15
   LPB:    3  -0.379926930420498E+00   0.760732881717514E-01   0.245368E-01   0.214725E+00   0.104500E+03   0.116985E-14
   LPB:    4  -0.379657756277482E+00   0.114858253684373E+00   0.389101E-01   0.831983E+00   0.513554E+02   0.391688E-15
   LPB:    5  -0.379331753827505E+00   0.784155691144344E-01   0.285338E-01   0.165154E+01   0.104691E+03  -0.642222E-15
   LPB:    6  -0.379092968302429E+00   0.284112441708587E-01   0.262203E-01   0.797095E+00   0.597292E+02  -0.213371E-14
  Finished solving LPB equations
  A_corr:   -0.303660359655591     
 End minimization
 Ecorr=   1645.70854054598     
 A_corr= -0.303660359655591     
 Ecorr_band=  -1646.01220090563     
 End Solvation calculations
RMM:  18    -0.133767297154E+03   -0.17171E-03   -0.19263E-03 12391   0.138E-01    0.256E-01
 Begin Solvation calculations
  rms_SCF =   0.364344238196926      tol =   3.643442381969258E-002
 Begin minimization
 Creating dielectric and ionic cavities
  area:      144.124780692566     
  volume:    652.928628922998     
  Acav:     7.566550986359716E-002
  Solving linear dielectric/ionic screening model
        iter                  A_solv                     rms
   LPB:       -0.407541682905260E+00   0.149819891149796E+01
   LPB:    0  -0.406716887251334E+00   0.123242918820966E+01  -0.763745E-02   0.000000E+00   0.282800E+02  -0.215987E+00
   LPB:    1  -0.393637352374606E+00   0.274972205340414E+00   0.155960E-01   0.000000E+00   0.573339E+02  -0.235520E-17
   LPB:    2  -0.392200407360123E+00   0.108880533849119E+00   0.142434E-01   0.120295E+00   0.184708E+03   0.619566E-14
   LPB:    3  -0.391923311563258E+00   0.633035142811131E-01   0.192664E-01   0.142562E+00   0.100237E+03   0.765768E-14
   LPB:    4  -0.391810157419034E+00   0.696493732182653E-01   0.220891E-01   0.356174E+00   0.158680E+03   0.823808E-14
   LPB:    5  -0.391723226108619E+00   0.437495627493277E-01   0.250603E-01   0.677172E+00   0.930431E+02   0.847783E-14
   LPB:    6  -0.391624326741009E+00   0.185617156692176E-01   0.375805E-01   0.758648E+00   0.829668E+02   0.859265E-14
  Finished solving LPB equations
  A_corr:   -0.315958816877412     
 End minimization
 Ecorr=   1639.84123514267     
 A_corr= -0.315958816877412     
 Ecorr_band=  -1640.15719395955     
 End Solvation calculations
RMM:  19    -0.133767998669E+03   -0.70151E-03   -0.15614E-03 12372   0.833E-02    0.185E-01
 Begin Solvation calculations
  rms_SCF =   0.364344238196926      tol =   3.643442381969258E-002
 Begin minimization
 Creating dielectric and ionic cavities
  area:      144.507722296222     
  volume:    652.755512051409     
  Acav:     7.586655420551651E-002
  Solving linear dielectric/ionic screening model
        iter                  A_solv                     rms
   LPB:       -0.419328492647787E+00   0.164872793807271E+01
   LPB:    0  -0.418166194310987E+00   0.136257214183970E+01  -0.906508E-02   0.000000E+00   0.282881E+02  -0.256434E+00
   LPB:    1  -0.405179774801533E+00   0.290217500502592E+00   0.150722E-01   0.000000E+00   0.523661E+02   0.154170E-16
   LPB:    2  -0.403682789579274E+00   0.131952239651477E+00   0.136770E-01   0.127032E+00   0.216212E+03  -0.365095E-14
   LPB:    3  -0.403383343910335E+00   0.713947677721487E-01   0.176327E-01   0.155158E+00   0.979047E+02  -0.420623E-14
   LPB:    4  -0.403239309727711E+00   0.692180556410406E-01   0.233516E-01   0.363203E+00   0.106280E+03  -0.401002E-14
   LPB:    5  -0.403114220321266E+00   0.470284112367325E-01   0.296777E-01   0.683345E+00   0.881653E+02  -0.393612E-14
   LPB:    6  -0.402987651083715E+00   0.184084538997020E-01   0.364875E-01   0.822989E+00   0.721892E+02  -0.378551E-14
  Finished solving LPB equations
  A_corr:   -0.327121096878198     
 End minimization
 Ecorr=   1634.60916333358     
 A_corr= -0.327121096878198     
 Ecorr_band=  -1634.93628443046     
 End Solvation calculations
RMM:  20    -0.133769410628E+03   -0.14120E-02   -0.87226E-04 12154   0.803E-02    0.177E-01
 Begin Solvation calculations
  rms_SCF =   0.364344238196926      tol =   3.643442381969258E-002
 Begin minimization
 Creating dielectric and ionic cavities
  area:      145.151117871093     
  volume:    652.543960035085     
  Acav:     7.620433688232384E-002
  Solving linear dielectric/ionic screening model
        iter                  A_solv                     rms
   LPB:       -0.473022551501884E+00   0.296306944674057E+01
   LPB:    0  -0.469397984266292E+00   0.247993720447734E+01  -0.160053E-01   0.000000E+00   0.282980E+02  -0.452920E+00
   LPB:    1  -0.430473917303206E+00   0.542738933502976E+00   0.147429E-01   0.000000E+00   0.502937E+02  -0.813627E-17
   LPB:    2  -0.425827384031250E+00   0.228069769189109E+00   0.132362E-01   0.132963E+00   0.221960E+03   0.513948E-14
   LPB:    3  -0.424927596307578E+00   0.114594309154553E+00   0.171437E-01   0.149509E+00   0.111328E+03   0.623728E-14
   LPB:    4  -0.424554292076136E+00   0.989858354912249E-01   0.222876E-01   0.319127E+00   0.111009E+03   0.623771E-14
   LPB:    5  -0.424301311926588E+00   0.611189180518202E-01   0.274608E-01   0.550014E+00   0.101718E+03   0.636202E-14
   LPB:    6  -0.424085063982960E+00   0.239954917322304E-01   0.346138E-01   0.678156E+00   0.923320E+02   0.604258E-14
  Finished solving LPB equations
  A_corr:   -0.347880727100637     
 End minimization
 Ecorr=   1626.77184125025     
 A_corr= -0.347880727100637     
 Ecorr_band=  -1627.11972197735     
 End Solvation calculations
RMM:  21    -0.133771168668E+03   -0.17580E-02   -0.26457E-03 12266   0.925E-02    0.146E-01
 Begin Solvation calculations
  rms_SCF =   0.276151586177047      tol =   2.761515861770469E-002
 Begin minimization
 Creating dielectric and ionic cavities
  area:      145.398320406408     
  volume:    652.765326591505     
  Acav:     7.633411821336436E-002
  Solving linear dielectric/ionic screening model
        iter                  A_solv                     rms
   LPB:       -0.448951752611376E+00   0.174180563186997E+01
   LPB:    0  -0.447890451585401E+00   0.152601924882266E+01  -0.866235E-02   0.000000E+00   0.282876E+02  -0.245038E+00
   LPB:    1  -0.435611251635437E+00   0.316421307846300E+00   0.138373E-01   0.000000E+00   0.500382E+02  -0.517416E-17
   LPB:    2  -0.434151864163526E+00   0.133002258826665E+00   0.129111E-01   0.127377E+00   0.212864E+03  -0.898141E-15
   LPB:    3  -0.433855448032714E+00   0.509605915255496E-01   0.168941E-01   0.155223E+00   0.108172E+03  -0.126716E-14
   LPB:    4  -0.433703316448533E+00   0.665126077635098E-01   0.302192E-01   0.286927E+00   0.820840E+02  -0.134160E-14
   LPB:    5  -0.433546513251303E+00   0.609244194821565E-01   0.338521E-01   0.920097E+00   0.780863E+02  -0.172886E-14
   LPB:    6  -0.433378599924327E+00   0.246308783153932E-01   0.346660E-01   0.104571E+01   0.569736E+02  -0.295514E-14
  Finished solving LPB equations
  A_corr:   -0.357044481710962     
 End minimization
 Ecorr=   1622.11726106804     
 A_corr= -0.357044481710962     
 Ecorr_band=  -1622.47430554975     
 End Solvation calculations
RMM:  22    -0.133772051447E+03   -0.88278E-03   -0.82294E-04 12335   0.722E-02    0.102E-01
 Begin Solvation calculations
  rms_SCF =   0.247748552594373      tol =   2.477485525943733E-002
 Begin minimization
 Creating dielectric and ionic cavities
  area:      145.637141764575     
  volume:    653.059169900700     
  Acav:     7.645949942640194E-002
  Solving linear dielectric/ionic screening model
        iter                  A_solv                     rms
   LPB:       -0.471358100834783E+00   0.250485290721871E+01
   LPB:    0  -0.469077384759804E+00   0.222279959314377E+01  -0.127016E-01   0.000000E+00   0.282739E+02  -0.359123E+00
   LPB:    1  -0.448217468390235E+00   0.451168843022990E+00   0.126282E-01   0.000000E+00   0.493254E+02   0.466957E-17
   LPB:    2  -0.445456499500880E+00   0.142440162023268E+00   0.126324E-01   0.132314E+00   0.192970E+03   0.243973E-14
   LPB:    3  -0.445007962911371E+00   0.488743678507790E-01   0.167625E-01   0.122429E+00   0.137059E+03   0.280350E-14
   LPB:    4  -0.444878465096724E+00   0.525928501818590E-01   0.251496E-01   0.192430E+00   0.975632E+02   0.286818E-14
   LPB:    5  -0.444792322627660E+00   0.431794326154410E-01   0.289184E-01   0.578512E+00   0.950217E+02   0.280967E-14
   LPB:    6  -0.444698855593746E+00   0.196913783565440E-01   0.371404E-01   0.844830E+00   0.622313E+02   0.322400E-14
  Finished solving LPB equations
  A_corr:   -0.368239356167344     
 End minimization
 Ecorr=   1618.57599391506     
 A_corr= -0.368239356167344     
 Ecorr_band=  -1618.94423327123     
 End Solvation calculations
RMM:  23    -0.133772466530E+03   -0.41508E-03   -0.96021E-04 12176   0.529E-02    0.120E-01
 Begin Solvation calculations
  rms_SCF =   6.743336425454499E-002 tol =   6.743336425454499E-003
 Begin minimization
 Creating dielectric and ionic cavities
  area:      145.704486548282     
  volume:    653.127790729641     
  Acav:     7.649485543784795E-002
  Solving linear dielectric/ionic screening model
        iter                  A_solv                     rms
   LPB:       -0.450338569593883E+00   0.738692358882056E+00
   LPB:    0  -0.450107299440424E+00   0.644123691623573E+00  -0.404489E-02   0.000000E+00   0.282707E+02  -0.114352E+00
   LPB:    1  -0.448376604540668E+00   0.125600990064164E+00   0.122666E-01   0.000000E+00   0.511252E+02  -0.370342E-17
   LPB:    2  -0.448152919215351E+00   0.441359404934263E-01   0.129015E-01   0.122885E+00   0.178704E+03  -0.237409E-15
   LPB:    3  -0.448108359783234E+00   0.163881019517313E-01   0.180394E-01   0.142469E+00   0.118162E+03  -0.281601E-15
   LPB:    4  -0.448069694030429E+00   0.368898443234056E-01   0.498107E-01   0.314259E+00   0.585353E+02  -0.331836E-15
   LPB:    5  -0.448003202673131E+00   0.413320523338394E-01   0.428253E-01   0.200014E+01   0.548091E+02  -0.229126E-15
   LPB:    6  -0.447940366696849E+00   0.161910104313079E-01   0.288290E-01   0.140383E+01   0.423877E+02   0.232571E-15
   LPB:    7  -0.447917928018978E+00   0.481153257728790E-02   0.260814E-01   0.394718E+00   0.378893E+03   0.619997E-15
  Finished solving LPB equations
  A_corr:   -0.371423072581130     
 End minimization
 Ecorr=   1616.36629329705     
 A_corr= -0.371423072581130     
 Ecorr_band=  -1616.73771636963     
 End Solvation calculations
RMM:  24    -0.133772490758E+03   -0.24228E-04   -0.25468E-04 11864   0.385E-02    0.849E-02
 Begin Solvation calculations
  rms_SCF =   6.743336425454499E-002 tol =   6.743336425454499E-003
 Begin minimization
 Creating dielectric and ionic cavities
  area:      145.707770441182     
  volume:    653.182696034959     
  Acav:     7.649657948162077E-002
  Solving linear dielectric/ionic screening model
        iter                  A_solv                     rms
   LPB:       -0.453385444141204E+00   0.907539268586297E+00
   LPB:    0  -0.453107335810171E+00   0.821872712472901E+00  -0.443582E-02   0.000000E+00   0.282681E+02  -0.125392E+00
   LPB:    1  -0.450942315787807E+00   0.128359295426008E+00   0.106791E-01   0.000000E+00   0.532410E+02   0.396939E-17
   LPB:    2  -0.450675618250178E+00   0.338472366196122E-01   0.130912E-01   0.100488E+00   0.160999E+03   0.156741E-15
   LPB:    3  -0.450638732697159E+00   0.111233349499972E-01   0.175920E-01   0.102920E+00   0.153067E+03   0.350487E-15
   LPB:    4  -0.450631853845966E+00   0.108615220607843E-01   0.227058E-01   0.144490E+00   0.125356E+03   0.372270E-15
   LPB:    5  -0.450628270240399E+00   0.812894139277909E-02   0.267303E-01   0.442524E+00   0.144902E+03   0.399700E-15
   LPB:    6  -0.450623974361343E+00   0.485520032597689E-02   0.413011E-01   0.775843E+00   0.141977E+03   0.447113E-15
  Finished solving LPB equations
  A_corr:   -0.374127394879722     
 End minimization
 Ecorr=   1615.80962326515     
 A_corr= -0.374127394879722     
 Ecorr_band=  -1616.18375066003     
 End Solvation calculations
RMM:  25    -0.133772378556E+03    0.11220E-03   -0.16500E-04 11741   0.289E-02    0.498E-02
 Begin Solvation calculations
  rms_SCF =   2.884544545104849E-002 tol =   2.884544545104849E-003
 Begin minimization
 Creating dielectric and ionic cavities
  area:      145.688017319235     
  volume:    653.182435369680     
  Acav:     7.648620909259858E-002
  Solving linear dielectric/ionic screening model
        iter                  A_solv                     rms
   LPB:       -0.451026532486307E+00   0.259192270972987E+00
   LPB:    0  -0.450998781045744E+00   0.232805315459346E+00  -0.140123E-02   0.000000E+00   0.282681E+02  -0.396101E-01
   LPB:    1  -0.450808193537489E+00   0.298862501002377E-01   0.960492E-02   0.000000E+00   0.721692E+02  -0.412909E-18
   LPB:    2  -0.450794714717193E+00   0.636789237918158E-02   0.122845E-01   0.552959E-01   0.193044E+03  -0.327422E-15
   LPB:    3  -0.450791880949484E+00   0.345443589687681E-02   0.255150E-01   0.101222E+00   0.144531E+03  -0.381834E-15
   LPB:    4  -0.450789101943327E+00   0.865628598832243E-02   0.591624E-01   0.422937E+00   0.114998E+03  -0.383852E-15
   LPB:    5  -0.450785227097257E+00   0.101423917285388E-01   0.384261E-01   0.214676E+01   0.271226E+03  -0.378348E-15
   LPB:    6  -0.450781018632375E+00   0.707190112018446E-02   0.340090E-01   0.122716E+01   0.839356E+02  -0.354715E-15
   LPB:    7  -0.450777120387628E+00   0.297924058407342E-02   0.353146E-01   0.892042E+00   0.146644E+03  -0.469583E-15
   LPB:    8  -0.450774411405375E+00   0.149505106674724E-02   0.360730E-01   0.680314E+00   0.136715E+03  -0.559721E-15
  Finished solving LPB equations
  A_corr:   -0.374288202312777     
 End minimization
 Ecorr=   1615.45329629745     
 A_corr= -0.374288202312777     
 Ecorr_band=  -1615.82758449976     
 End Solvation calculations
RMM:  26    -0.133772463410E+03   -0.84855E-04   -0.50627E-05  8135   0.199E-02    0.353E-02
 Begin Solvation calculations
  rms_SCF =   2.590979340194417E-002 tol =   2.590979340194417E-003
 Begin minimization
 Creating dielectric and ionic cavities
  area:      145.693902867040     
  volume:    653.170609664408     
  Acav:     7.648929900519616E-002
  Solving linear dielectric/ionic screening model
        iter                  A_solv                     rms
   LPB:       -0.451840512129335E+00   0.249796504013860E+00
   LPB:    0  -0.451803432550688E+00   0.202856039052743E+00  -0.161968E-02   0.000000E+00   0.282686E+02  -0.457862E-01
   LPB:    1  -0.451662979056814E+00   0.315659992539681E-01   0.102908E-01   0.000000E+00   0.558248E+02   0.387382E-18
   LPB:    2  -0.451648692873093E+00   0.959903786725278E-02   0.131230E-01   0.797628E-01   0.121789E+03  -0.283990E-15
   LPB:    3  -0.451646260467164E+00   0.401799896487839E-02   0.182447E-01   0.122466E+00   0.125308E+03  -0.345165E-15
   LPB:    4  -0.451645443994288E+00   0.432080594673104E-02   0.275848E-01   0.222011E+00   0.846934E+02  -0.358811E-15
   LPB:    5  -0.451644775283740E+00   0.290416561547535E-02   0.302106E-01   0.747836E+00   0.268122E+03  -0.303034E-15
   LPB:    6  -0.451643803649117E+00   0.188608325924313E-02   0.472145E-01   0.929713E+00   0.164322E+03  -0.251332E-15
  Finished solving LPB equations
  A_corr:   -0.375154504643921     
 End minimization
 Ecorr=   1615.11332078097     
 A_corr= -0.375154504643921     
 Ecorr_band=  -1615.48847528562     
 End Solvation calculations
RMM:  27    -0.133772525194E+03   -0.61784E-04   -0.27936E-05  7470   0.169E-02    0.158E-02
 Begin Solvation calculations
  rms_SCF =   2.519348358961718E-002 tol =   2.519348358961718E-003
 Begin minimization
 Creating dielectric and ionic cavities
  area:      145.700742966578     
  volume:    653.157654412122     
  Acav:     7.649289005745348E-002
  Solving linear dielectric/ionic screening model
        iter                  A_solv                     rms
   LPB:       -0.452247151962282E+00   0.148199012779900E+00
   LPB:    0  -0.452225120111867E+00   0.926494746605421E-01  -0.124848E-02   0.000000E+00   0.282693E+02  -0.352937E-01
   LPB:    1  -0.452178123830476E+00   0.183727037825722E-01   0.110117E-01   0.000000E+00   0.593400E+02  -0.222880E-17
   LPB:    2  -0.452174547176596E+00   0.609408109012213E-02   0.128875E-01   0.650276E-01   0.115191E+03   0.558244E-16
   LPB:    3  -0.452173684072053E+00   0.338297207069221E-02   0.185038E-01   0.168072E+00   0.193337E+03   0.550474E-16
   LPB:    4  -0.452173253314982E+00   0.313869274092762E-02   0.283736E-01   0.325474E+00   0.862720E+02   0.602974E-16
   LPB:    5  -0.452172692116502E+00   0.221530138400269E-02   0.372094E-01   0.993448E+00   0.268505E+03   0.684176E-16
  Finished solving LPB equations
  A_corr:   -0.375679802059048     
 End minimization
 Ecorr=   1614.84704655737     
 A_corr= -0.375679802059048     
 Ecorr_band=  -1615.22272635943     
 End Solvation calculations
RMM:  28    -0.133772578362E+03   -0.53168E-04   -0.16904E-05  7266   0.154E-02    0.207E-02
 Begin Solvation calculations
  rms_SCF =   1.021914665600777E-002 tol =   1.021914665600777E-003
 Begin minimization
 Creating dielectric and ionic cavities
  area:      145.695072486094     
  volume:    653.159455030053     
  Acav:     7.648991305519960E-002
  Solving linear dielectric/ionic screening model
        iter                  A_solv                     rms
   LPB:       -0.451994465412777E+00   0.878478713058697E-01
   LPB:    0  -0.451987342823803E+00   0.567312769257391E-01  -0.709868E-03   0.000000E+00   0.282692E+02  -0.200674E-01
   LPB:    1  -0.451945444433472E+00   0.311009208082433E-01   0.120449E-01   0.000000E+00   0.112912E+03  -0.777390E-18
   LPB:    2  -0.451940714234971E+00   0.703066638608931E-02   0.133566E-01   0.101810E+00   0.600074E+02   0.485242E-15
   LPB:    3  -0.451939310564480E+00   0.377571330384744E-02   0.199420E-01   0.198753E+00   0.174321E+03   0.578562E-15
   LPB:    4  -0.451938603791825E+00   0.329784464050006E-02   0.292241E-01   0.343591E+00   0.116523E+03   0.605738E-15
   LPB:    5  -0.451937989973634E+00   0.285017713037833E-02   0.304416E-01   0.833746E+00   0.290980E+03   0.612188E-15
   LPB:    6  -0.451937262736724E+00   0.234103364648111E-02   0.405877E-01   0.888606E+00   0.967197E+02   0.616684E-15
   LPB:    7  -0.451936427405252E+00   0.151342078518884E-02   0.467310E-01   0.997637E+00   0.419449E+03   0.618852E-15
   LPB:    8  -0.451935487987089E+00   0.155367109852913E-02   0.483301E-01   0.108740E+01   0.217092E+03   0.623880E-15
   LPB:    9  -0.451934441825874E+00   0.108266909946417E-02   0.482397E-01   0.111571E+01   0.777020E+03   0.610922E-15
   LPB:   10  -0.451933357345863E+00   0.110567142836756E-02   0.458821E-01   0.108990E+01   0.824054E+03   0.593958E-15
   LPB:   11  -0.451932322853672E+00   0.110567766997068E-02   0.444835E-01   0.983897E+00   0.185400E+04   0.576998E-15
   LPB:   12  -0.451931381745113E+00   0.102490843295458E-02   0.434693E-01   0.930956E+00   0.214770E+04   0.560079E-15
   LPB:   13  -0.451930497009287E+00   0.103753568250359E-02   0.446867E-01   0.914488E+00   0.195703E+04   0.543026E-15
   LPB:   14  -0.451929799099013E+00   0.877215637945315E-03   0.382778E-01   0.920911E+00   0.153835E+04   0.526015E-15
  Finished solving LPB equations
  A_corr:   -0.375439886043814     
 End minimization
 Ecorr=   1614.58496599125     
 A_corr= -0.375439886043814     
 Ecorr_band=  -1614.96040587729     
 End Solvation calculations
RMM:  29    -0.133772620602E+03   -0.42239E-04   -0.13148E-05  7262   0.991E-03    0.266E-02
 Begin Solvation calculations
  rms_SCF =   1.021914665600777E-002 tol =   1.021914665600777E-003
 Begin minimization
 Creating dielectric and ionic cavities
  area:      145.699616185087     
  volume:    653.167236235857     
  Acav:     7.649229849717044E-002
  Solving linear dielectric/ionic screening model
        iter                  A_solv                     rms
   LPB:       -0.452290903204010E+00   0.129323754427856E+00
   LPB:    0  -0.452286228719502E+00   0.116966743604220E+00  -0.575080E-03   0.000000E+00   0.282688E+02  -0.162568E-01
   LPB:    1  -0.452247267019525E+00   0.151098299917066E-01   0.966589E-02   0.000000E+00   0.560627E+02   0.144108E-17
   LPB:    2  -0.452243275641769E+00   0.406435749179595E-02   0.139094E-01   0.711901E-01   0.117234E+03   0.481261E-16
   LPB:    3  -0.452242630211276E+00   0.212562814344733E-02   0.197051E-01   0.114145E+00   0.141034E+03   0.699652E-16
   LPB:    4  -0.452242357167419E+00   0.273879695241663E-02   0.299281E-01   0.278537E+00   0.913742E+02   0.724775E-16
   LPB:    5  -0.452242111009811E+00   0.164926162743891E-02   0.310139E-01   0.869967E+00   0.196521E+03   0.557855E-16
   LPB:    6  -0.452241833843805E+00   0.946450803403782E-03   0.404019E-01   0.864335E+00   0.268080E+03   0.340600E-16
  Finished solving LPB equations
  A_corr:   -0.375749535346634     
 End minimization
 Ecorr=   1614.41293744502     
 A_corr= -0.375749535346634     
 Ecorr_band=  -1614.78868698036     
 End Solvation calculations
RMM:  30    -0.133772619811E+03    0.79029E-06   -0.50988E-06  6969   0.865E-03
 Begin Solvation calculations
  rms_SCF =   1.021914665600777E-002 tol =   1.021914665600777E-003
 Begin minimization
 Creating dielectric and ionic cavities
  area:      145.706246710633     
  volume:    653.167040393470     
  Acav:     7.649577952308222E-002
  Solving linear dielectric/ionic screening model
        iter                  A_solv                     rms
   LPB:       -0.452669172090926E+00   0.980260128262800E-01
   LPB:    0  -0.452665137638043E+00   0.821075794290644E-01  -0.534261E-03   0.000000E+00   0.282688E+02  -0.151029E-01
   LPB:    1  -0.452644909030444E+00   0.120234817664095E-01   0.995688E-02   0.000000E+00   0.511751E+02   0.667862E-18
   LPB:    2  -0.452642531958764E+00   0.399762957543463E-02   0.143564E-01   0.814992E-01   0.945016E+02  -0.178481E-15
   LPB:    3  -0.452642209241533E+00   0.173234839657083E-02   0.162828E-01   0.119701E+00   0.137100E+03  -0.242256E-15
   LPB:    4  -0.452642092630517E+00   0.151621674580564E-02   0.274315E-01   0.214485E+00   0.856462E+02  -0.252101E-15
   LPB:    5  -0.452641942761473E+00   0.105517059537243E-02   0.406668E-01   0.866924E+00   0.150547E+03  -0.246732E-15
   LPB:    6  -0.452641696200718E+00   0.875797728395064E-03   0.512223E-01   0.130615E+01   0.820035E+02  -0.246489E-15
  Finished solving LPB equations
  A_corr:   -0.376145916677636     
 End minimization
 Ecorr=   1614.19578563416     
 A_corr= -0.376145916677636     
 Ecorr_band=  -1614.57193155083     
 End Solvation calculations
   1 F= -.13377262E+03 E0= -.13377352E+03  d E =-.133773E+03
quench:  g(F)=  0.000E+00 g(S)=  0.000E+00 dE (1.order)= 0.000E+00
 bond charge predicted
       N       E                     dE             d eps       ncg     rms          rms(c)
 Begin Solvation calculations
  rms_SCF =   1.021914665600777E-002 tol =   1.021914665600777E-003
 Begin minimization
 Creating dielectric and ionic cavities
  area:      145.711460647869     
  volume:    653.171278434692     
  Acav:     7.649851684013144E-002
  Solving linear dielectric/ionic screening model
        iter                  A_solv                     rms
   LPB:       -0.452682791600155E+00   0.985509187877389E-03
   LPB:    0  -0.452682791595679E+00   0.969182064155841E-03   0.562776E-06   0.000000E+00   0.282686E+02   0.159089E-04
   LPB:    1  -0.452645878074544E+00   0.397022678022205E-03   0.158444E-01   0.000000E+00   0.257117E+06   0.134709E-21
   LPB:    2  -0.452641791416563E+00   0.452945175238555E-03   0.272357E-01   0.644050E-01   0.553625E+05  -0.781695E-18
   LPB:    3  -0.452640464782732E+00   0.587304222310518E-03   0.325943E-01   0.271256E+00   0.658361E+04  -0.854009E-18
   LPB:    4  -0.452639884927864E+00   0.124993173557082E-02   0.353104E-01   0.403466E+00   0.388226E+04   0.182249E-17
   LPB:    5  -0.452639597424234E+00   0.228605207192340E-02   0.333191E-01   0.525453E+00   0.346818E+03   0.125438E-17
   LPB:    6  -0.452639433728044E+00   0.192435135686193E-02   0.252677E-01   0.750796E+00   0.153221E+03   0.937128E-17
   LPB:    7  -0.452639290028224E+00   0.123971927834938E-02   0.308298E-01   0.719470E+00   0.307825E+03   0.391327E-16
   LPB:    8  -0.452639182400402E+00   0.218735348236461E-02   0.330255E-01   0.699181E+00   0.337295E+03   0.748554E-16
   LPB:    9  -0.452639099385528E+00   0.158308808858666E-02   0.227647E-01   0.111897E+01   0.148976E+03   0.100407E-15
   LPB:   10  -0.452638998542281E+00   0.817156315617513E-03   0.351588E-01   0.786536E+00   0.451080E+03   0.121090E-15
  Finished solving LPB equations
  A_corr:   -0.376140481702149     
 End minimization
 Ecorr=   1614.22211291922     
 A_corr= -0.376140481702149     
 Ecorr_band=  -1614.59825340092     
 End Solvation calculations
DAV:   1    -0.133772675956E+03   -0.55355E-04   -0.23954E-03 14094   0.744E-02    0.147E-02
 Begin Solvation calculations
  rms_SCF =   7.745542358866746E-003 tol =   7.745542358866746E-004
 Begin minimization
 Creating dielectric and ionic cavities
  area:      145.717812159728     
  volume:    653.178354703497     
  Acav:     7.650185138385711E-002
  Solving linear dielectric/ionic screening model
        iter                  A_solv                     rms
   LPB:       -0.452429894757110E+00   0.276244595446819E-01
   LPB:    0  -0.452429100605663E+00   0.252168189159777E-01   0.237037E-03   0.000000E+00   0.282683E+02   0.670064E-02
   LPB:    1  -0.452424411552705E+00   0.848514462367934E-02   0.149829E-01   0.000000E+00   0.653760E+02  -0.136622E-18
   LPB:    2  -0.452423754346664E+00   0.281865811468500E-02   0.131978E-01   0.159115E+00   0.133539E+03  -0.662483E-17
   LPB:    3  -0.452423556073658E+00   0.153732014071240E-02   0.196169E-01   0.202970E+00   0.109159E+03   0.783318E-17
   LPB:    4  -0.452423456659117E+00   0.105860259377314E-02   0.284028E-01   0.346302E+00   0.192386E+03   0.870452E-17
   LPB:    5  -0.452423397456562E+00   0.101344224051333E-02   0.299331E-01   0.565068E+00   0.208803E+03   0.808798E-17
   LPB:    6  -0.452423344552076E+00   0.630537954948758E-03   0.310268E-01   0.862118E+00   0.268668E+03   0.990095E-17
  Finished solving LPB equations
  A_corr:   -0.375921493168219     
 End minimization
 Ecorr=   1614.14775156352     
 A_corr= -0.375921493168219     
 Ecorr_band=  -1614.52367305669     
 End Solvation calculations
RMM:   2    -0.133772690632E+03   -0.14676E-04   -0.95428E-05  8950   0.219E-02    0.204E-02
 Begin Solvation calculations
  rms_SCF =   7.745542358866746E-003 tol =   7.745542358866746E-004
 Begin minimization
 Creating dielectric and ionic cavities
  area:      145.716680456774     
  volume:    653.167102825513     
  Acav:     7.650125723980651E-002
  Solving linear dielectric/ionic screening model
        iter                  A_solv                     rms
   LPB:       -0.452551623627887E+00   0.255496804203250E-01
   LPB:    0  -0.452550713646872E+00   0.132147239971655E-01  -0.253733E-03   0.000000E+00   0.282688E+02  -0.717274E-02
   LPB:    1  -0.452549599058120E+00   0.189173592345890E-02   0.118963E-01   0.000000E+00   0.560905E+02  -0.260804E-18
   LPB:    2  -0.452549484473154E+00   0.101906196839358E-02   0.171908E-01   0.711422E-01   0.274693E+03   0.305004E-17
   LPB:    3  -0.452549428268245E+00   0.105122467429209E-02   0.305086E-01   0.276390E+00   0.145797E+03  -0.358121E-18
   LPB:    4  -0.452549395891206E+00   0.125604387966097E-02   0.281064E-01   0.625286E+00   0.151473E+03   0.112445E-17
   LPB:    5  -0.452549363355306E+00   0.817123044082576E-03   0.264618E-01   0.106736E+01   0.263522E+03   0.135394E-17
   LPB:    6  -0.452549297940107E+00   0.531353394826492E-03   0.510615E-01   0.104194E+01   0.361448E+03   0.226951E-17
  Finished solving LPB equations
  A_corr:   -0.376048040700301     
 End minimization
 Ecorr=   1614.12433713664     
 A_corr= -0.376048040700301     
 Ecorr_band=  -1614.50038517734     
 End Solvation calculations
RMM:   3    -0.133772690149E+03    0.48318E-06   -0.12410E-05  6837   0.152E-02
 Begin Solvation calculations
  rms_SCF =   7.745542358866746E-003 tol =   7.745542358866746E-004
 Begin minimization
 Creating dielectric and ionic cavities
  area:      145.716151776390     
  volume:    653.168571931352     
  Acav:     7.650097968260491E-002
  Solving linear dielectric/ionic screening model
        iter                  A_solv                     rms
   LPB:       -0.452492187549090E+00   0.270099656343045E-01
   LPB:    0  -0.452492112070532E+00   0.270559035574966E-01   0.730758E-04   0.000000E+00   0.282687E+02   0.206576E-02
   LPB:    1  -0.452489961367307E+00   0.137379851064389E-02   0.846393E-02   0.000000E+00   0.812418E+02  -0.110939E-18
   LPB:    2  -0.452489821996407E+00   0.531174408819865E-03   0.184861E-01   0.296700E-01   0.528205E+03  -0.894131E-17
   LPB:    3  -0.452489753640857E+00   0.787538074069126E-03   0.379512E-01   0.238904E+00   0.203695E+03  -0.106262E-16
   LPB:    4  -0.452489718207796E+00   0.865956415137001E-03   0.289516E-01   0.679496E+00   0.198990E+03  -0.132027E-16
   LPB:    5  -0.452489690196317E+00   0.795608939001351E-03   0.330393E-01   0.692739E+00   0.113881E+03  -0.131166E-16
   LPB:    6  -0.452489642924134E+00   0.501576189792319E-03   0.472307E-01   0.118053E+01   0.628811E+03  -0.152491E-16
  Finished solving LPB equations
  A_corr:   -0.375988663241529     
 End minimization
 Ecorr=   1614.09522473369     
 A_corr= -0.375988663241529     
 Ecorr_band=  -1614.47121339693     
 End Solvation calculations
   2 F= -.13377269E+03 E0= -.13377359E+03  d E =-.703379E-04
quench:  g(F)=  0.000E+00 g(S)=  0.000E+00 dE (1.order)= 0.000E+00
 bond charge predicted
       N       E                     dE             d eps       ncg     rms          rms(c)
 Begin Solvation calculations
  rms_SCF =   7.745542358866746E-003 tol =   7.745542358866746E-004
 Begin minimization
 Creating dielectric and ionic cavities
  area:      145.730033710780     
  volume:    653.178746415215     
  Acav:     7.650826769815926E-002
  Solving linear dielectric/ionic screening model
        iter                  A_solv                     rms
   LPB:       -0.452638609399727E+00   0.131495501355594E-02
   LPB:    0  -0.452638609376502E+00   0.132409621058870E-02   0.128189E-05   0.000000E+00   0.282683E+02   0.362367E-04
   LPB:    1  -0.452507053401048E+00   0.407206906512964E-03   0.157896E-01   0.000000E+00   0.556712E+06  -0.210460E-20
   LPB:    2  -0.452492542025984E+00   0.308270271001059E-03   0.272835E-01   0.638364E-01   0.226335E+06   0.624454E-19
   LPB:    3  -0.452487860081179E+00   0.534363670927734E-03   0.325672E-01   0.270295E+00   0.842115E+05   0.891811E-19
   LPB:    4  -0.452485861814678E+00   0.109471678081914E-02   0.353332E-01   0.393392E+00   0.104029E+05   0.776684E-18
   LPB:    5  -0.452484899257204E+00   0.238154508950871E-02   0.358041E-01   0.475360E+00   0.136002E+04   0.167939E-17
   LPB:    6  -0.452484434750822E+00   0.345521954779404E-02   0.291778E-01   0.592169E+00   0.214820E+03   0.111965E-17
   LPB:    7  -0.452484137288690E+00   0.201214221907230E-02   0.240599E-01   0.776604E+00   0.175120E+03   0.115212E-16
   LPB:    8  -0.452483909374362E+00   0.218241119447113E-02   0.321404E-01   0.573564E+00   0.394997E+03   0.909012E-17
   LPB:    9  -0.452483784639648E+00   0.257846572270735E-02   0.239433E-01   0.734653E+00   0.171053E+03  -0.173382E-17
   LPB:   10  -0.452483671464938E+00   0.944766637209914E-03   0.244100E-01   0.889978E+00   0.240905E+03  -0.803567E-17
   LPB:   11  -0.452483570303563E+00   0.417307228444494E-03   0.394302E-01   0.553354E+00   0.944208E+03  -0.125633E-16
  Finished solving LPB equations
  A_corr:   -0.375975302605404     
 End minimization
 Ecorr=   1614.08862211193     
 A_corr= -0.375975302605404     
 Ecorr_band=  -1614.46459741454     
 End Solvation calculations
DAV:   1    -0.133772774201E+03   -0.83568E-04   -0.81409E-03 13860   0.140E-01    0.269E-02
 Begin Solvation calculations
  rms_SCF =   7.745542358866746E-003 tol =   7.745542358866746E-004
 Begin minimization
 Creating dielectric and ionic cavities
  area:      145.736956014260     
  volume:    653.191219833445     
  Acav:     7.651190190748627E-002
  Solving linear dielectric/ionic screening model
        iter                  A_solv                     rms
   LPB:       -0.452107472494271E+00   0.381672420309555E-01
   LPB:    0  -0.452104686450912E+00   0.213239409162920E-01   0.443980E-03   0.000000E+00   0.282677E+02   0.125503E-01
   LPB:    1  -0.452097337905631E+00   0.517211709309708E-02   0.182678E-01   0.000000E+00   0.848411E+02   0.253413E-18
   LPB:    2  -0.452096627452754E+00   0.451140625648501E-02   0.160508E-01   0.110033E+00   0.239295E+03   0.612212E-16
   LPB:    3  -0.452096358848624E+00   0.204368671956068E-02   0.178571E-01   0.339830E+00   0.104586E+03   0.703231E-16
   LPB:    4  -0.452096221981374E+00   0.106430233593748E-02   0.251417E-01   0.361913E+00   0.339552E+03   0.690605E-16
   LPB:    5  -0.452096147697633E+00   0.116372716025244E-02   0.275068E-01   0.496077E+00   0.281717E+03   0.690796E-16
   LPB:    6  -0.452096095787576E+00   0.954522003997932E-03   0.282481E-01   0.680470E+00   0.114155E+03   0.687203E-16
   LPB:    7  -0.452096049256858E+00   0.616963334406357E-03   0.347699E-01   0.728240E+00   0.232970E+03   0.665709E-16
  Finished solving LPB equations
  A_corr:   -0.375584147349372     
 End minimization
 Ecorr=   1614.07173307008     
 A_corr= -0.375584147349372     
 Ecorr_band=  -1614.44731721743     
 End Solvation calculations
RMM:   2    -0.133772807262E+03   -0.33061E-04   -0.28427E-04 11339   0.363E-02    0.404E-02
 Begin Solvation calculations
  rms_SCF =   7.745542358866746E-003 tol =   7.745542358866746E-004
 Begin minimization
 Creating dielectric and ionic cavities
  area:      145.735529509179     
  volume:    653.173673825304     
  Acav:     7.651115299231891E-002
  Solving linear dielectric/ionic screening model
        iter                  A_solv                     rms
   LPB:       -0.452285496135824E+00   0.410271902817672E-01
   LPB:    0  -0.452283453677921E+00   0.268552607081927E-01  -0.380137E-03   0.000000E+00   0.282685E+02  -0.107459E-01
   LPB:    1  -0.452280297558673E+00   0.472394943960549E-02   0.109459E-01   0.000000E+00   0.600432E+02   0.307322E-18
   LPB:    2  -0.452279935351066E+00   0.159562467572956E-02   0.139235E-01   0.902210E-01   0.222561E+03  -0.307301E-16
   LPB:    3  -0.452279825375119E+00   0.155226148682690E-02   0.224801E-01   0.188058E+00   0.266547E+03  -0.321264E-16
   LPB:    4  -0.452279769400188E+00   0.900126133913263E-03   0.221697E-01   0.516099E+00   0.122264E+03  -0.292153E-16
   LPB:    5  -0.452279729097648E+00   0.368502880938319E-03   0.317445E-01   0.502841E+00   0.351456E+03  -0.200316E-16
  Finished solving LPB equations
  A_corr:   -0.375768576105329     
 End minimization
 Ecorr=   1614.08218651640     
 A_corr= -0.375768576105329     
 Ecorr_band=  -1614.45795509250     
 End Solvation calculations
RMM:   3    -0.133772802134E+03    0.51279E-05   -0.44107E-05  7449   0.198E-02
 Begin Solvation calculations
  rms_SCF =   7.745542358866746E-003 tol =   7.745542358866746E-004
 Begin minimization
 Creating dielectric and ionic cavities
  area:      145.730796947185     
  volume:    653.177090273735     
  Acav:     7.650866839727238E-002
  Solving linear dielectric/ionic screening model
        iter                  A_solv                     rms
   LPB:       -0.452177517250786E+00   0.621954180241286E-01
   LPB:    0  -0.452177121180808E+00   0.614031043365196E-01   0.167398E-03   0.000000E+00   0.282683E+02   0.473207E-02
   LPB:    1  -0.452167346903156E+00   0.428786280622450E-02   0.863143E-02   0.000000E+00   0.695922E+02  -0.545802E-19
   LPB:    2  -0.452166667404126E+00   0.733884062806552E-03   0.162050E-01   0.370286E-01   0.198286E+03   0.278692E-18
   LPB:    3  -0.452166535096687E+00   0.455221181582055E-03   0.264624E-01   0.119238E+00   0.600386E+03   0.580387E-17
   LPB:    4  -0.452166491335311E+00   0.384137326258837E-03   0.306531E-01   0.285536E+00   0.380927E+03   0.931687E-17
  Finished solving LPB equations
  A_corr:   -0.375657822938039     
 End minimization
 Ecorr=   1614.04838414998     
 A_corr= -0.375657822938039     
 Ecorr_band=  -1614.42404197291     
 End Solvation calculations
   3 F= -.13377280E+03 E0= -.13377372E+03  d E =-.111985E-03
quench:  g(F)=  0.000E+00 g(S)=  0.000E+00 dE (1.order)= 0.000E+00
 bond charge predicted
       N       E                     dE             d eps       ncg     rms          rms(c)
 Begin Solvation calculations
  rms_SCF =   7.745542358866746E-003 tol =   7.745542358866746E-004
 Begin minimization
 Creating dielectric and ionic cavities
  area:      145.750783004903     
  volume:    653.195491883166     
  Acav:     7.651916107757410E-002
  Solving linear dielectric/ionic screening model
        iter                  A_solv                     rms
   LPB:       -0.452444578576558E+00   0.198559349554596E-02
   LPB:    0  -0.452444578511776E+00   0.202598817766946E-02   0.214092E-05   0.000000E+00   0.282675E+02   0.605184E-04
   LPB:    1  -0.452185432550012E+00   0.876384090555665E-03   0.157744E-01   0.000000E+00   0.423195E+06   0.574900E-20
   LPB:    2  -0.452156870140783E+00   0.962646954234628E-03   0.273057E-01   0.636723E-01   0.810974E+05  -0.505368E-18
   LPB:    3  -0.452147658869082E+00   0.181149891049183E-02   0.325096E-01   0.270873E+00   0.176794E+05  -0.218868E-17
   LPB:    4  -0.452143768134426E+00   0.361792343460812E-02   0.347372E-01   0.395302E+00   0.190649E+04  -0.109753E-17
   LPB:    5  -0.452142008835243E+00   0.621092351199421E-02   0.314441E-01   0.499533E+00   0.301057E+03   0.208646E-16
   LPB:    6  -0.452141100584393E+00   0.442485824413030E-02   0.228965E-01   0.708983E+00   0.144590E+03   0.234805E-16
   LPB:    7  -0.452140407173132E+00   0.336622307179102E-02   0.285263E-01   0.612785E+00   0.379568E+03   0.108927E-16
   LPB:    8  -0.452140028506883E+00   0.437956093489535E-02   0.255200E-01   0.610422E+00   0.183395E+03   0.210837E-16
   LPB:    9  -0.452139735385732E+00   0.164767397365738E-02   0.221751E-01   0.890852E+00   0.194040E+03   0.258004E-16
   LPB:   10  -0.452139485552606E+00   0.420764997484044E-03   0.365490E-01   0.517123E+00   0.129303E+04   0.245855E-16
  Finished solving LPB equations
  A_corr:   -0.375620324475032     
 End minimization
 Ecorr=   1614.05440053310     
 A_corr= -0.375620324475032     
 Ecorr_band=  -1614.43002085757     
 End Solvation calculations
DAV:   1    -0.133772904748E+03   -0.97486E-04   -0.15880E-02 14697   0.226E-01    0.422E-02
 Begin Solvation calculations
  rms_SCF =   7.745542358866746E-003 tol =   7.745542358866746E-004
 Begin minimization
 Creating dielectric and ionic cavities
  area:      145.760929004387     
  volume:    653.199433434566     
  Acav:     7.652448772730315E-002
  Solving linear dielectric/ionic screening model
        iter                  A_solv                     rms
   LPB:       -0.451732842998088E+00   0.116440133726693E+00
   LPB:    0  -0.451730841565330E+00   0.112704104130055E+00   0.376308E-03   0.000000E+00   0.282673E+02   0.106372E-01
   LPB:    1  -0.451695271803561E+00   0.177529644867259E-01   0.994846E-02   0.000000E+00   0.560941E+02  -0.270563E-18
   LPB:    2  -0.451688292419165E+00   0.310592998808818E-02   0.166323E-01   0.117366E+00   0.115027E+03   0.715053E-16
   LPB:    3  -0.451687310291530E+00   0.171074631744654E-02   0.234304E-01   0.998899E-01   0.177540E+03   0.723754E-16
   LPB:    4  -0.451686948938341E+00   0.834672134764713E-03   0.284596E-01   0.302911E+00   0.326234E+03   0.637473E-16
   LPB:    5  -0.451686767765241E+00   0.596261442977438E-03   0.336412E-01   0.424150E+00   0.361743E+03   0.629509E-16
  Finished solving LPB equations
  A_corr:   -0.375162280037938     
 End minimization
 Ecorr=   1614.10746541945     
 A_corr= -0.375162280037938     
 Ecorr_band=  -1614.48262769948     
 End Solvation calculations
RMM:   2    -0.133772978400E+03   -0.73652E-04   -0.62221E-04 13779   0.571E-02    0.445E-02
 Begin Solvation calculations
  rms_SCF =   7.745542358866746E-003 tol =   7.745542358866746E-004
 Begin minimization
 Creating dielectric and ionic cavities
  area:      145.752868713900     
  volume:    653.201825993148     
  Acav:     7.652025607479737E-002
  Solving linear dielectric/ionic screening model
        iter                  A_solv                     rms
   LPB:       -0.451761830965121E+00   0.150749325963215E+00
   LPB:    0  -0.451761728939476E+00   0.150705817672352E+00   0.849627E-04   0.000000E+00   0.282672E+02   0.240166E-02
   LPB:    1  -0.451707376021992E+00   0.134092779057007E-01   0.870800E-02   0.000000E+00   0.631084E+02   0.720031E-19
   LPB:    2  -0.451703228338590E+00   0.262767478140618E-02   0.160392E-01   0.414304E-01   0.119632E+03   0.199350E-17
   LPB:    3  -0.451702645871944E+00   0.122568332919403E-02   0.231334E-01   0.973659E-01   0.161244E+03   0.584026E-17
   LPB:    4  -0.451702482236907E+00   0.746638608361618E-03   0.280015E-01   0.232094E+00   0.287244E+03  -0.117506E-16
  Finished solving LPB equations
  A_corr:   -0.375182226162110     
 End minimization
 Ecorr=   1614.06932556540     
 A_corr= -0.375182226162110     
 Ecorr_band=  -1614.44450779156     
 End Solvation calculations
RMM:   3    -0.133772980589E+03   -0.21894E-05   -0.86670E-05 11196   0.356E-02
 Begin Solvation calculations
  rms_SCF =   7.745542358866746E-003 tol =   7.745542358866746E-004
 Begin minimization
 Creating dielectric and ionic cavities
  area:      145.753962773520     
  volume:    653.185542265999     
  Acav:     7.652083045609806E-002
  Solving linear dielectric/ionic screening model
        iter                  A_solv                     rms
   LPB:       -0.451847143897779E+00   0.664753227639694E-01
   LPB:    0  -0.451845561868765E+00   0.606081809479556E-01  -0.334561E-03   0.000000E+00   0.282679E+02  -0.945735E-02
   LPB:    1  -0.451835353897773E+00   0.597749425375669E-02   0.935729E-02   0.000000E+00   0.615581E+02   0.381672E-18
   LPB:    2  -0.451834391469246E+00   0.208016896554564E-02   0.142959E-01   0.617119E-01   0.198988E+03  -0.325277E-16
   LPB:    3  -0.451834221351933E+00   0.147990267558748E-02   0.217034E-01   0.116430E+00   0.134617E+03  -0.380612E-16
   LPB:    4  -0.451834164267892E+00   0.820000740813261E-03   0.219283E-01   0.332116E+00   0.168494E+03  -0.336670E-16
   LPB:    5  -0.451834114641571E+00   0.465458215350630E-03   0.348676E-01   0.546738E+00   0.480180E+03  -0.298173E-16
  Finished solving LPB equations
  A_corr:   -0.375313284185473     
 End minimization
 Ecorr=   1614.09898565920     
 A_corr= -0.375313284185473     
 Ecorr_band=  -1614.47429894339     
 End Solvation calculations
   4 F= -.13377298E+03 E0= -.13377377E+03  d E =-.178456E-03
quench:  g(F)=  0.000E+00 g(S)=  0.000E+00 dE (1.order)= 0.000E+00
 bond charge predicted
       N       E                     dE             d eps       ncg     rms          rms(c)
 Begin Solvation calculations
  rms_SCF =   7.745542358866746E-003 tol =   7.745542358866746E-004
 Begin minimization
 Creating dielectric and ionic cavities
  area:      145.773843859607     
  volume:    653.200416435996     
  Acav:     7.653126802629370E-002
  Solving linear dielectric/ionic screening model
        iter                  A_solv                     rms
   LPB:       -0.452135366019014E+00   0.209824434989685E-02
   LPB:    0  -0.452135365982474E+00   0.212896031003547E-02   0.160790E-05   0.000000E+00   0.282672E+02   0.454509E-04
   LPB:    1  -0.451856972553012E+00   0.975433199393380E-03   0.158148E-01   0.000000E+00   0.416726E+06  -0.129314E-20
   LPB:    2  -0.451827848096401E+00   0.112769743655730E-02   0.268922E-01   0.615228E-01   0.697005E+05  -0.103175E-16
   LPB:    3  -0.451818709572482E+00   0.203304176166034E-02   0.321352E-01   0.262581E+00   0.128927E+05  -0.136698E-16
   LPB:    4  -0.451814911112529E+00   0.403817411674329E-02   0.342297E-01   0.390219E+00   0.151506E+04  -0.240436E-16
   LPB:    5  -0.451813216508482E+00   0.618801028205105E-02   0.301291E-01   0.506848E+00   0.241713E+03  -0.692304E-16
   LPB:    6  -0.451812278865939E+00   0.368796968842256E-02   0.232953E-01   0.715629E+00   0.152104E+03  -0.785048E-16
   LPB:    7  -0.451811563926546E+00   0.273884078504646E-02   0.311459E-01   0.570294E+00   0.459857E+03  -0.483751E-16
   LPB:    8  -0.451811170274272E+00   0.466197511243791E-02   0.284010E-01   0.603823E+00   0.232163E+03   0.242397E-16
   LPB:    9  -0.451810897772725E+00   0.207426634475330E-02   0.202509E-01   0.970835E+00   0.173396E+03   0.685083E-16
   LPB:   10  -0.451810642533700E+00   0.533597460856675E-03   0.350982E-01   0.540429E+00   0.977082E+03   0.104699E-15
  Finished solving LPB equations
  A_corr:   -0.375279374507407     
 End minimization
 Ecorr=   1614.09860664946     
 A_corr= -0.375279374507407     
 Ecorr_band=  -1614.47388602397     
 End Solvation calculations
DAV:   1    -0.133773034584E+03   -0.56184E-04   -0.17920E-02 13293   0.220E-01    0.950E-02
 Begin Solvation calculations
  rms_SCF =   7.745542358866746E-003 tol =   7.745542358866746E-004
 Begin minimization
 Creating dielectric and ionic cavities
  area:      145.758366924785     
  volume:    653.056976283229     
  Acav:     7.652314263551237E-002
  Solving linear dielectric/ionic screening model
        iter                  A_solv                     rms
   LPB:       -0.454767562807990E+00   0.648720051063097E+00
   LPB:    0  -0.454613367202031E+00   0.593147307273979E+00  -0.330261E-02   0.000000E+00   0.282740E+02  -0.933780E-01
   LPB:    1  -0.453632552934904E+00   0.589493228949598E-01   0.926678E-02   0.000000E+00   0.633045E+02  -0.761277E-18
   LPB:    2  -0.453542185721426E+00   0.150431227263408E-01   0.142603E-01   0.598719E-01   0.190180E+03   0.137011E-16
   LPB:    3  -0.453526754158011E+00   0.140112333613656E-01   0.234347E-01   0.103913E+00   0.232621E+03  -0.537678E-16
   LPB:    4  -0.453521816945205E+00   0.752413403168710E-02   0.210837E-01   0.355618E+00   0.113782E+03  -0.587053E-16
   LPB:    5  -0.453519172287401E+00   0.332390794931142E-02   0.257899E-01   0.437911E+00   0.357404E+03  -0.106289E-15
   LPB:    6  -0.453517797164715E+00   0.181681880019784E-02   0.311889E-01   0.429953E+00   0.263207E+03  -0.180281E-15
   LPB:    7  -0.453517041462960E+00   0.110221191083140E-02   0.326477E-01   0.524996E+00   0.443361E+03  -0.176584E-15
   LPB:    8  -0.453516588525902E+00   0.608635848299338E-03   0.349096E-01   0.560525E+00   0.446621E+03  -0.175581E-15
  Finished solving LPB equations
  A_corr:   -0.376993445890389     
 End minimization
 Ecorr=   1614.17101267805     
 A_corr= -0.376993445890389     
 Ecorr_band=  -1614.54800612394     
 End Solvation calculations
RMM:   2    -0.133775357183E+03   -0.23226E-02   -0.15076E-03 12839   0.877E-02    0.521E-01
 Begin Solvation calculations
  rms_SCF =   7.745542358866746E-003 tol =   7.745542358866746E-004
 Begin minimization
 Creating dielectric and ionic cavities
  area:      145.901295156043     
  volume:    653.164212376641     
  Acav:     7.659817995692282E-002
  Solving linear dielectric/ionic screening model
        iter                  A_solv                     rms
   LPB:       -0.453245662051105E+00   0.537152555614423E+00
   LPB:    0  -0.453165728622077E+00   0.504203497520684E+00   0.237807E-02   0.000000E+00   0.282689E+02   0.672255E-01
   LPB:    1  -0.452485817225893E+00   0.455417074607779E-01   0.907459E-02   0.000000E+00   0.639675E+02   0.514593E-17
   LPB:    2  -0.452427595912349E+00   0.123362101604127E-01   0.145936E-01   0.532469E-01   0.184938E+03   0.893295E-16
   LPB:    3  -0.452417825415656E+00   0.106933107948163E-01   0.236605E-01   0.103508E+00   0.184928E+03   0.145840E-15
   LPB:    4  -0.452414596863946E+00   0.645944794148910E-02   0.223541E-01   0.349750E+00   0.124889E+03   0.171025E-15
   LPB:    5  -0.452412745079800E+00   0.275883475622697E-02   0.255190E-01   0.502432E+00   0.383551E+03   0.222258E-15
   LPB:    6  -0.452411798459139E+00   0.156710887668250E-02   0.306664E-01   0.425389E+00   0.343699E+03   0.251832E-15
   LPB:    7  -0.452411275929317E+00   0.954774152707041E-03   0.328307E-01   0.515605E+00   0.703716E+03   0.278143E-15
   LPB:    8  -0.452410951980243E+00   0.529874789355792E-03   0.354025E-01   0.574926E+00   0.106192E+04   0.286181E-15
  Finished solving LPB equations
  A_corr:   -0.375812772023320     
 End minimization
 Ecorr=   1614.01175814049     
 A_corr= -0.375812772023320     
 Ecorr_band=  -1614.38757091251     
 End Solvation calculations
RMM:   3    -0.133773101289E+03    0.22559E-02   -0.47055E-04 12168   0.640E-02    0.317E-02
 Begin Solvation calculations
  rms_SCF =   7.745542358866746E-003 tol =   7.745542358866746E-004
 Begin minimization
 Creating dielectric and ionic cavities
  area:      145.752611391845     
  volume:    653.154031248582     
  Acav:     7.652012098071886E-002
  Solving linear dielectric/ionic screening model
        iter                  A_solv                     rms
   LPB:       -0.452700526102264E+00   0.103901206861820E+00
   LPB:    0  -0.452698739350407E+00   0.991479211272998E-01  -0.355540E-03   0.000000E+00   0.282694E+02  -0.100509E-01
   LPB:    1  -0.452663770302049E+00   0.137866606332058E-01   0.100439E-01   0.000000E+00   0.691813E+02  -0.763610E-18
   LPB:    2  -0.452659928456275E+00   0.280410263595881E-02   0.132941E-01   0.830046E-01   0.312791E+03  -0.156310E-16
   LPB:    3  -0.452658953217822E+00   0.260767198781043E-02   0.279316E-01   0.120818E+00   0.368292E+03  -0.122676E-16
   LPB:    4  -0.452658530173190E+00   0.282093632688918E-02   0.287486E-01   0.421458E+00   0.148973E+03  -0.107965E-16
   LPB:    5  -0.452658298698103E+00   0.133561966105826E-02   0.227516E-01   0.691390E+00   0.299780E+03  -0.324767E-16
   LPB:    6  -0.452658178279485E+00   0.661155961588465E-03   0.286760E-01   0.412745E+00   0.293689E+03  -0.474772E-16
  Finished solving LPB equations
  A_corr:   -0.376138057298766     
 End minimization
 Ecorr=   1613.94760945480     
 A_corr= -0.376138057298766     
 Ecorr_band=  -1614.32374751210     
 End Solvation calculations
RMM:   4    -0.133773017873E+03    0.83416E-04   -0.11214E-04  8015   0.331E-02    0.255E-02
 Begin Solvation calculations
  rms_SCF =   7.745542358866746E-003 tol =   7.745542358866746E-004
 Begin minimization
 Creating dielectric and ionic cavities
  area:      145.745945524657     
  volume:    653.149694834689     
  Acav:     7.651662140044496E-002
  Solving linear dielectric/ionic screening model
        iter                  A_solv                     rms
   LPB:       -0.453040188758603E+00   0.516023681054735E-01
   LPB:    0  -0.453037254673626E+00   0.335320042304751E-01  -0.455608E-03   0.000000E+00   0.282696E+02  -0.128799E-01
   LPB:    1  -0.453030966782271E+00   0.938637556376192E-02   0.115751E-01   0.000000E+00   0.644250E+02  -0.154930E-18
   LPB:    2  -0.453029759912683E+00   0.360190186553081E-02   0.145394E-01   0.152804E+00   0.128825E+03  -0.130454E-15
   LPB:    3  -0.453029529890957E+00   0.213426356797216E-02   0.202506E-01   0.136841E+00   0.103008E+03  -0.159989E-15
   LPB:    4  -0.453029430826013E+00   0.109945819041489E-02   0.233756E-01   0.373101E+00   0.978875E+02  -0.162410E-15
   LPB:    5  -0.453029358742678E+00   0.620511067941782E-03   0.299263E-01   0.568362E+00   0.452923E+03  -0.166307E-15
  Finished solving LPB equations
  A_corr:   -0.376512737342233     
 End minimization
 Ecorr=   1613.88608817237     
 A_corr= -0.376512737342233     
 Ecorr_band=  -1614.26260090972     
 End Solvation calculations
RMM:   5    -0.133773025219E+03   -0.73458E-05   -0.42114E-05  7525   0.278E-02
 Begin Solvation calculations
  rms_SCF =   7.745542358866746E-003 tol =   7.745542358866746E-004
 Begin minimization
 Creating dielectric and ionic cavities
  area:      145.744887866906     
  volume:    653.156084842333     
  Acav:     7.651606613012556E-002
  Solving linear dielectric/ionic screening model
        iter                  A_solv                     rms
   LPB:       -0.453312342715510E+00   0.474383080711722E-01
   LPB:    0  -0.453311015347052E+00   0.375920652430415E-01  -0.306445E-03   0.000000E+00   0.282693E+02  -0.866300E-02
   LPB:    1  -0.453304274939044E+00   0.843781929565428E-02   0.112771E-01   0.000000E+00   0.634872E+02  -0.535757E-18
   LPB:    2  -0.453303608241469E+00   0.154596892455288E-02   0.122580E-01   0.909959E-01   0.148442E+03  -0.283634E-16
   LPB:    3  -0.453303454594726E+00   0.143432993380172E-02   0.223283E-01   0.126520E+00   0.284801E+03  -0.413821E-16
   LPB:    4  -0.453303381608410E+00   0.130135665522295E-02   0.257093E-01   0.412557E+00   0.604227E+02  -0.450753E-16
   LPB:    5  -0.453303317325353E+00   0.703781107377186E-03   0.309951E-01   0.730554E+00   0.274259E+03  -0.439636E-16
  Finished solving LPB equations
  A_corr:   -0.376787251195227     
 End minimization
 Ecorr=   1613.77667420280     
 A_corr= -0.376787251195227     
 Ecorr_band=  -1614.15346145400     
 End Solvation calculations
   5 F= -.13377303E+03 E0= -.13377390E+03  d E =-.446296E-04
quench:  g(F)=  0.000E+00 g(S)=  0.000E+00 dE (1.order)= 0.000E+00
 bond charge predicted
       N       E                     dE             d eps       ncg     rms          rms(c)
 Begin Solvation calculations
  rms_SCF =   7.745542358866746E-003 tol =   7.745542358866746E-004
 Begin minimization
 Creating dielectric and ionic cavities
  area:      145.748964506576     
  volume:    653.157729409919     
  Acav:     7.651820636595252E-002
  Solving linear dielectric/ionic screening model
        iter                  A_solv                     rms
   LPB:       -0.453396943963734E+00   0.113148448335657E-02
   LPB:    0  -0.453396943961869E+00   0.114100998217887E-02   0.363201E-06   0.000000E+00   0.282693E+02   0.102674E-04
   LPB:    1  -0.453326425078592E+00   0.524236938609980E-03   0.158738E-01   0.000000E+00   0.352960E+06   0.477811E-21
   LPB:    2  -0.453318493098304E+00   0.722252218543196E-03   0.272306E-01   0.655690E-01   0.674733E+05   0.101434E-17
   LPB:    3  -0.453315948277722E+00   0.129593966543130E-02   0.323783E-01   0.269823E+00   0.844306E+04   0.214627E-17
   LPB:    4  -0.453314897019847E+00   0.275409800295113E-02   0.337446E-01   0.396371E+00   0.116148E+04   0.494827E-17
   LPB:    5  -0.453314442618097E+00   0.356478769010002E-02   0.273835E-01   0.532654E+00   0.167153E+03  -0.882774E-17
   LPB:    6  -0.453314164292287E+00   0.199631603073468E-02   0.230187E-01   0.728655E+00   0.198745E+03  -0.255477E-16
   LPB:    7  -0.453313971295784E+00   0.237907672171912E-02   0.298070E-01   0.535499E+00   0.354636E+03  -0.544039E-16
   LPB:    8  -0.453313867647261E+00   0.199070127958096E-02   0.214798E-01   0.745248E+00   0.136860E+03  -0.589001E-16
   LPB:    9  -0.453313768722683E+00   0.603713086357436E-03   0.279379E-01   0.733802E+00   0.413525E+03  -0.628571E-16
  Finished solving LPB equations
  A_corr:   -0.376795562356731     
 End minimization
 Ecorr=   1613.75795861994     
 A_corr= -0.376795562356731     
 Ecorr_band=  -1614.13475418229     
 End Solvation calculations
DAV:   1    -0.133773097453E+03   -0.79580E-04   -0.50860E-03 15102   0.135E-01    0.285E-02
 Begin Solvation calculations
  rms_SCF =   7.745542358866746E-003 tol =   7.745542358866746E-004
 Begin minimization
 Creating dielectric and ionic cavities
  area:      145.757190297451     
  volume:    653.203915777664     
  Acav:     7.652252490616153E-002
  Solving linear dielectric/ionic screening model
        iter                  A_solv                     rms
   LPB:       -0.452941763794373E+00   0.152272518665147E+00
   LPB:    0  -0.452931411475976E+00   0.137997750949500E+00   0.855841E-03   0.000000E+00   0.282671E+02   0.241921E-01
   LPB:    1  -0.452874943176159E+00   0.146540543967784E-01   0.936904E-02   0.000000E+00   0.662876E+02  -0.551931E-18
   LPB:    2  -0.452869008258119E+00   0.341602019390038E-02   0.146609E-01   0.671652E-01   0.232543E+03  -0.560441E-16
   LPB:    3  -0.452867818323814E+00   0.344717635701183E-02   0.250759E-01   0.117223E+00   0.349136E+03  -0.891243E-16
   LPB:    4  -0.452867438368033E+00   0.241639341983008E-02   0.220266E-01   0.363513E+00   0.127779E+03  -0.111457E-15
   LPB:    5  -0.452867219085475E+00   0.105816554827958E-02   0.255940E-01   0.496684E+00   0.284471E+03  -0.125774E-15
   LPB:    6  -0.452867091078688E+00   0.585812186804761E-03   0.327845E-01   0.455721E+00   0.331008E+03  -0.132305E-15
  Finished solving LPB equations
  A_corr:   -0.376344566172526     
 End minimization
 Ecorr=   1613.67723344754     
 A_corr= -0.376344566172526     
 Ecorr_band=  -1614.05357801371     
 End Solvation calculations
RMM:   2    -0.133773268441E+03   -0.17099E-03   -0.28454E-04 10851   0.343E-02    0.139E-01
 Begin Solvation calculations
  rms_SCF =   7.745542358866746E-003 tol =   7.745542358866746E-004
 Begin minimization
 Creating dielectric and ionic cavities
  area:      145.772531182611     
  volume:    653.180157710774     
  Acav:     7.653057887087081E-002
  Solving linear dielectric/ionic screening model
        iter                  A_solv                     rms
   LPB:       -0.453192889168819E+00   0.130767640930115E+00
   LPB:    0  -0.453187934369492E+00   0.122067091302173E+00  -0.592078E-03   0.000000E+00   0.282682E+02  -0.167370E-01
   LPB:    1  -0.453147664840628E+00   0.111977456181795E-01   0.911319E-02   0.000000E+00   0.638809E+02  -0.145088E-17
   LPB:    2  -0.453144174885874E+00   0.306830973193732E-02   0.145192E-01   0.543964E-01   0.186297E+03  -0.702760E-16
   LPB:    3  -0.453143554141506E+00   0.284375572365985E-02   0.242546E-01   0.106474E+00   0.187578E+03  -0.591274E-16
   LPB:    4  -0.453143352885053E+00   0.147535273403089E-02   0.211500E-01   0.371810E+00   0.124912E+03  -0.594218E-16
   LPB:    5  -0.453143248215938E+00   0.651534617905187E-03   0.254110E-01   0.432869E+00   0.478427E+03  -0.731074E-16
  Finished solving LPB equations
  A_corr:   -0.376612669345067     
 End minimization
 Ecorr=   1613.71488056609     
 A_corr= -0.376612669345067     
 Ecorr_band=  -1614.09149323543     
 End Solvation calculations
RMM:   3    -0.133773104121E+03    0.16432E-03   -0.40875E-05  7664   0.218E-02    0.177E-02
 Begin Solvation calculations
  rms_SCF =   4.939927926715158E-003 tol =   4.939927926715158E-004
 Begin minimization
 Creating dielectric and ionic cavities
  area:      145.757574879386     
  volume:    653.180531925070     
  Acav:     7.652272681167739E-002
  Solving linear dielectric/ionic screening model
        iter                  A_solv                     rms
[...]
   LPB:   16  -0.486290588965033E+00   0.810977652561419E-04   0.382120E-01   0.797477E+00   0.268109E+04   0.137759E-15
  Finished solving LPB equations
  A_corr:   -0.408807357963828     
 End minimization
 Ecorr=   1604.43285217824     
 A_corr= -0.408807357963828     
 Ecorr_band=  -1604.84165953620     
 End Solvation calculations
DAV:   1    -0.133784903912E+03   -0.87870E-04   -0.73766E-03 14724   0.150E-01    0.318E-02
 Begin Solvation calculations
  rms_SCF =   8.982085787738931E-004 tol =   8.982085787738932E-005
 Begin minimization
 Creating dielectric and ionic cavities
  area:      147.584340502868     
  volume:    654.659754328901     
  Acav:     7.748177876400549E-002
  Solving linear dielectric/ionic screening model
        iter                  A_solv                     rms
   LPB:       -0.486854355897318E+00   0.145614038999872E+00
   LPB:    0  -0.486844557820671E+00   0.129903863875113E+00  -0.833623E-03   0.000000E+00   0.281988E+02  -0.235072E-01
   LPB:    1  -0.486794981247164E+00   0.140510383209992E-01   0.939940E-02   0.000000E+00   0.644049E+02  -0.647815E-18
   LPB:    2  -0.486789995938576E+00   0.354757694905784E-02   0.144745E-01   0.652998E-01   0.195076E+03  -0.583572E-16
   LPB:    3  -0.486789047929566E+00   0.343452844093145E-02   0.237137E-01   0.116071E+00   0.294891E+03  -0.799431E-16
   LPB:    4  -0.486788743030490E+00   0.193030154929913E-02   0.211143E-01   0.361217E+00   0.111273E+03  -0.734868E-16
   LPB:    5  -0.486788578273819E+00   0.830418197374287E-03   0.258412E-01   0.441520E+00   0.342348E+03  -0.738890E-16
   LPB:    6  -0.486788491671993E+00   0.411460895112308E-03   0.317108E-01   0.428341E+00   0.266909E+03  -0.764877E-16
   LPB:    7  -0.486788444313737E+00   0.271604572230041E-03   0.330673E-01   0.524417E+00   0.460426E+03  -0.828983E-16
   LPB:    8  -0.486788415693518E+00   0.165470852749981E-03   0.348217E-01   0.573886E+00   0.418553E+03  -0.872467E-16
   LPB:    9  -0.486788397441260E+00   0.105086417112310E-03   0.373523E-01   0.594534E+00   0.437258E+03  -0.902980E-16
   LPB:   10  -0.486788385500232E+00   0.805525038621075E-04   0.388495E-01   0.629009E+00   0.509358E+03  -0.922288E-16
  Finished solving LPB equations
  A_corr:   -0.409306606736226     
 End minimization
 Ecorr=   1604.43762078034     
 A_corr= -0.409306606736226     
 Ecorr_band=  -1604.84692738708     
 End Solvation calculations
RMM:   2    -0.133785081092E+03   -0.17718E-03   -0.30934E-04 10970   0.322E-02    0.147E-01
 Begin Solvation calculations
  rms_SCF =   8.982085787738931E-004 tol =   8.982085787738932E-005
 Begin minimization
 Creating dielectric and ionic cavities
  area:      147.594177237463     
  volume:    654.688813613120     
  Acav:     7.748694304966830E-002
  Solving linear dielectric/ionic screening model
        iter                  A_solv                     rms
   LPB:       -0.486501500212552E+00   0.139731592722838E+00
   LPB:    0  -0.486495039351021E+00   0.129255733080037E+00   0.676948E-03   0.000000E+00   0.281975E+02   0.190882E-01
   LPB:    1  -0.486449175733452E+00   0.120468280248389E-01   0.916405E-02   0.000000E+00   0.640666E+02   0.117582E-17
   LPB:    2  -0.486445145748443E+00   0.332059847524208E-02   0.145121E-01   0.554873E-01   0.189740E+03  -0.582689E-16
   LPB:    3  -0.486444435237107E+00   0.297166008481779E-02   0.237531E-01   0.107715E+00   0.198101E+03  -0.856171E-16
   LPB:    4  -0.486444195179664E+00   0.172932277179135E-02   0.221291E-01   0.362662E+00   0.121065E+03  -0.975896E-16
   LPB:    5  -0.486444049098399E+00   0.783603113410299E-03   0.269622E-01   0.499444E+00   0.381965E+03  -0.102343E-15
   LPB:    6  -0.486443963277449E+00   0.454700646394294E-03   0.324857E-01   0.487598E+00   0.317954E+03  -0.108503E-15
   LPB:    7  -0.486443916877795E+00   0.275643824778029E-03   0.323561E-01   0.542822E+00   0.620014E+03  -0.112030E-15
   LPB:    8  -0.486443889438864E+00   0.151583816953104E-03   0.346980E-01   0.551448E+00   0.913920E+03  -0.112432E-15
   LPB:    9  -0.486443872019792E+00   0.943782799388597E-04   0.373572E-01   0.589642E+00   0.107709E+04  -0.112002E-15
   LPB:   10  -0.486443860621137E+00   0.743830771800862E-04   0.389574E-01   0.627498E+00   0.172188E+04  -0.111659E-15
  Finished solving LPB equations
  A_corr:   -0.408956917571468     
 End minimization
 Ecorr=   1604.40854357157     
 A_corr= -0.408956917571468     
 Ecorr_band=  -1604.81750048914     
 End Solvation calculations
RMM:   3    -0.133784911680E+03    0.16941E-03   -0.44556E-05  7719   0.221E-02    0.204E-02
 Begin Solvation calculations
  rms_SCF =   8.982085787738931E-004 tol =   8.982085787738932E-005
 Begin minimization
 Creating dielectric and ionic cavities
  area:      147.582117397880     
  volume:    654.688444076152     
  Acav:     7.748061163388723E-002
  Solving linear dielectric/ionic screening model
        iter                  A_solv                     rms
   LPB:       -0.486552119805967E+00   0.335255236110143E-01
   LPB:    0  -0.486551875435849E+00   0.317640467445448E-01  -0.131654E-03   0.000000E+00   0.281975E+02  -0.371231E-02
   LPB:    1  -0.486548371034318E+00   0.404825390362456E-02   0.966552E-02   0.000000E+00   0.732021E+02  -0.226594E-18
   LPB:    2  -0.486548013734766E+00   0.644561358700965E-03   0.137135E-01   0.718612E-01   0.294824E+03  -0.481806E-17
   LPB:    3  -0.486547917081940E+00   0.691798057601785E-03   0.300907E-01   0.123282E+00   0.777840E+03  -0.418968E-17
   LPB:    4  -0.486547872978329E+00   0.915002106549163E-03   0.299363E-01   0.458664E+00   0.168544E+03  -0.395198E-17
   LPB:    5  -0.486547844682092E+00   0.593003706518176E-03   0.256752E-01   0.748063E+00   0.258982E+03  -0.527198E-17
   LPB:    6  -0.486547826018593E+00   0.255704976742175E-03   0.290482E-01   0.582987E+00   0.245623E+03   0.722038E-17
   LPB:    7  -0.486547816665453E+00   0.147383931649620E-03   0.314314E-01   0.463149E+00   0.931485E+03   0.148831E-16
   LPB:    8  -0.486547810638360E+00   0.965289696075985E-04   0.356287E-01   0.568479E+00   0.115165E+04   0.177498E-16
   LPB:    9  -0.486547806302125E+00   0.655101482308678E-04   0.380909E-01   0.672950E+00   0.177423E+04   0.193238E-16
  Finished solving LPB equations
  A_corr:   -0.409067194668238     
 End minimization
 Ecorr=   1604.39196953206     
 A_corr= -0.409067194668238     
 Ecorr_band=  -1604.80103672673     
 End Solvation calculations
RMM:   4    -0.133784919983E+03   -0.83028E-05   -0.15930E-05  7219   0.184E-02
 Begin Solvation calculations
  rms_SCF =   8.982085787738931E-004 tol =   8.982085787738932E-005
 Begin minimization
 Creating dielectric and ionic cavities
  area:      147.580269035399     
  volume:    654.688508616496     
  Acav:     7.747964124358449E-002
  Solving linear dielectric/ionic screening model
        iter                  A_solv                     rms
   LPB:       -0.486686900390982E+00   0.232911876122848E-01
   LPB:    0  -0.486686684315367E+00   0.207738154483014E-01  -0.123798E-03   0.000000E+00   0.281975E+02  -0.349078E-02
   LPB:    1  -0.486685405079384E+00   0.356777540529197E-02   0.992870E-02   0.000000E+00   0.570444E+02  -0.138891E-18
   LPB:    2  -0.486685138318996E+00   0.523603527978312E-03   0.172367E-01   0.120118E+00   0.932640E+02   0.196211E-16
   LPB:    3  -0.486685106331831E+00   0.488117557455155E-03   0.234670E-01   0.880749E-01   0.317925E+03   0.108744E-16
   LPB:    4  -0.486685095522486E+00   0.371288939467389E-03   0.225858E-01   0.351112E+00   0.122205E+03   0.113289E-16
   LPB:    5  -0.486685089973144E+00   0.253560875334922E-03   0.257949E-01   0.449514E+00   0.213003E+03   0.135194E-16
   LPB:    6  -0.486685086509232E+00   0.139669965146960E-03   0.302686E-01   0.531946E+00   0.130879E+03   0.123626E-16
   LPB:    7  -0.486685083803006E+00   0.778057857478247E-04   0.369040E-01   0.640789E+00   0.338711E+03   0.106228E-16
  Finished solving LPB equations
  A_corr:   -0.409205442559421     
 End minimization
 Ecorr=   1604.36764501246     
 A_corr= -0.409205442559421     
 Ecorr_band=  -1604.77685045502     
 End Solvation calculations
 186 F= -.13378492E+03 E0= -.13378479E+03  d E =-.105415E-03
quench:  g(F)=  0.000E+00 g(S)=  0.000E+00 dE (1.order)= 0.000E+00
 bond charge predicted
       N       E                     dE             d eps       ncg     rms          rms(c)
 Begin Solvation calculations
  rms_SCF =   8.982085787738931E-004 tol =   8.982085787738932E-005
 Begin minimization
 Creating dielectric and ionic cavities
  area:      147.602083897360     
  volume:    654.702900784479     
  Acav:     7.749109404611373E-002
  Solving linear dielectric/ionic screening model
        iter                  A_solv                     rms
   LPB:       -0.486925492159640E+00   0.172192112806964E-02
   LPB:    0  -0.486925492116469E+00   0.175482585574568E-02   0.174991E-05   0.000000E+00   0.281968E+02   0.493419E-04
   LPB:    1  -0.486734755908086E+00   0.884789527325166E-03   0.161768E-01   0.000000E+00   0.397274E+06  -0.176984E-20
   LPB:    2  -0.486710842460448E+00   0.836845565158879E-03   0.275609E-01   0.735882E-01   0.644680E+05   0.152952E-18
   LPB:    3  -0.486703086611175E+00   0.149017573779914E-02   0.325087E-01   0.274967E+00   0.200006E+05   0.108411E-16
   LPB:    4  -0.486699939357453E+00   0.293747853879768E-02   0.342491E-01   0.385171E+00   0.222016E+04   0.139945E-16
   LPB:    5  -0.486698554898466E+00   0.489071077708323E-02   0.317291E-01   0.474831E+00   0.324786E+03   0.235473E-16
   LPB:    6  -0.486697861329668E+00   0.349388412784814E-02   0.239114E-01   0.664758E+00   0.144151E+03   0.376549E-16
   LPB:    7  -0.486697331499760E+00   0.110267155122161E-02   0.298014E-01   0.612935E+00   0.370345E+03   0.678533E-16
   LPB:    8  -0.486696970888898E+00   0.819603768752210E-03   0.386052E-01   0.525403E+00   0.248289E+04   0.108925E-15
   LPB:    9  -0.486696756444630E+00   0.221395939420202E-02   0.369532E-01   0.621254E+00   0.707187E+03   0.140152E-15
   LPB:   10  -0.486696650307146E+00   0.245442545224608E-02   0.222258E-01   0.822906E+00   0.152269E+03   0.158452E-15
   LPB:   11  -0.486696546208083E+00   0.674288051012127E-03   0.251136E-01   0.868011E+00   0.324444E+03   0.167383E-15
   LPB:   12  -0.486696465790828E+00   0.218667368341081E-03   0.387186E-01   0.501063E+00   0.266586E+04   0.176163E-15
   LPB:   13  -0.486696411895326E+00   0.221824621694950E-03   0.406699E-01   0.638043E+00   0.283646E+04   0.182717E-15
   LPB:   14  -0.486696374976580E+00   0.251682724202072E-03   0.393931E-01   0.707209E+00   0.171877E+04   0.189729E-15
   LPB:   15  -0.486696346126710E+00   0.244798802727421E-03   0.405874E-01   0.758448E+00   0.110570E+04   0.193966E-15
   LPB:   16  -0.486696324393061E+00   0.154392457140530E-03   0.371694E-01   0.822611E+00   0.145504E+04   0.194631E-15
   LPB:   17  -0.486696305712045E+00   0.996319960977618E-04   0.450710E-01   0.708853E+00   0.276681E+04   0.194071E-15
   LPB:   18  -0.486696289998998E+00   0.745550691353961E-04   0.434312E-01   0.872881E+00   0.606449E+04   0.190848E-15
  Finished solving LPB equations
  A_corr:   -0.409205195952885     
 End minimization
 Ecorr=   1604.37000585451     
 A_corr= -0.409205195952885     
 Ecorr_band=  -1604.77921105046     
 End Solvation calculations
DAV:   1    -0.133785036303E+03   -0.12462E-03   -0.15890E-02 13644   0.202E-01    0.487E-02
 Begin Solvation calculations
  rms_SCF =   8.982085787738931E-004 tol =   8.982085787738932E-005
 Begin minimization
 Creating dielectric and ionic cavities
  area:      147.599639907112     
  volume:    654.656534533433     
  Acav:     7.748981095123397E-002
  Solving linear dielectric/ionic screening model
        iter                  A_solv                     rms
   LPB:       -0.487606883539850E+00   0.249956473351315E+00
   LPB:    0  -0.487584613972188E+00   0.229370022281017E+00  -0.125677E-02   0.000000E+00   0.281990E+02  -0.354395E-01
   LPB:    1  -0.487439031610433E+00   0.221320641317644E-01   0.918718E-02   0.000000E+00   0.640393E+02   0.115176E-17
   LPB:    2  -0.487426102622783E+00   0.557386244288789E-02   0.144611E-01   0.564203E-01   0.180865E+03   0.108064E-15
   LPB:    3  -0.487423861870903E+00   0.524233336552050E-02   0.236716E-01   0.105877E+00   0.248409E+03   0.114036E-15
   LPB:    4  -0.487423148753834E+00   0.287516960550500E-02   0.212864E-01   0.353910E+00   0.111393E+03   0.148949E-15
   LPB:    5  -0.487422769376265E+00   0.129886514206540E-02   0.255657E-01   0.442951E+00   0.353285E+03   0.165257E-15
   LPB:    6  -0.487422570237611E+00   0.673141207508491E-03   0.311764E-01   0.430442E+00   0.242755E+03   0.188144E-15
   LPB:    7  -0.487422461024537E+00   0.424643148263024E-03   0.327294E-01   0.522405E+00   0.427179E+03   0.203602E-15
   LPB:    8  -0.487422395567829E+00   0.236220607426899E-03   0.348368E-01   0.563093E+00   0.383237E+03   0.214913E-15
   LPB:    9  -0.487422354724088E+00   0.149724176220914E-03   0.372574E-01   0.583441E+00   0.401694E+03   0.222344E-15
   LPB:   10  -0.487422328701914E+00   0.116350014232559E-03   0.385268E-01   0.616123E+00   0.449109E+03   0.226826E-15
   LPB:   11  -0.487422311503103E+00   0.103361733828206E-03   0.389823E-01   0.653205E+00   0.482393E+03   0.229193E-15
   LPB:   12  -0.487422299620589E+00   0.882246668005638E-04   0.393138E-01   0.685066E+00   0.436573E+03   0.230621E-15
  Finished solving LPB equations
  A_corr:   -0.409932488669355     
 End minimization
 Ecorr=   1604.36775381662     
 A_corr= -0.409932488669355     
 Ecorr_band=  -1604.77768630529     
 End Solvation calculations
RMM:   2    -0.133785521686E+03   -0.48538E-03   -0.65646E-04 13783   0.461E-02    0.243E-01
 Begin Solvation calculations
  rms_SCF =   8.982085787738931E-004 tol =   8.982085787738932E-005
 Begin minimization
 Creating dielectric and ionic cavities
  area:      147.627375030571     
  volume:    654.704033980109     
  Acav:     7.750437189104954E-002
  Solving linear dielectric/ionic screening model
        iter                  A_solv                     rms
   LPB:       -0.487027944423305E+00   0.235326951916184E+00
   LPB:    0  -0.487010800327814E+00   0.218886131091208E+00   0.110274E-02   0.000000E+00   0.281968E+02   0.310937E-01
   LPB:    1  -0.486880146137385E+00   0.202253460757289E-01   0.914723E-02   0.000000E+00   0.639848E+02   0.107856E-17
   LPB:    2  -0.486868757699599E+00   0.554846334734289E-02   0.145204E-01   0.549101E-01   0.188658E+03  -0.135385E-15
   LPB:    3  -0.486866781717778E+00   0.490326553695025E-02   0.237201E-01   0.106214E+00   0.192899E+03  -0.149519E-15
   LPB:    4  -0.486866120264983E+00   0.288053458049149E-02   0.222346E-01   0.357111E+00   0.120604E+03  -0.138263E-15
   LPB:    5  -0.486865719994726E+00   0.132420847109812E-02   0.267526E-01   0.502942E+00   0.375234E+03  -0.105171E-15
   LPB:    6  -0.486865479361887E+00   0.800904470122146E-03   0.330118E-01   0.487191E+00   0.291531E+03  -0.771902E-16
   LPB:    7  -0.486865335537677E+00   0.495814214024200E-03   0.335441E-01   0.588207E+00   0.550743E+03  -0.570213E-16
   LPB:    8  -0.486865250533179E+00   0.265090062493160E-03   0.343545E-01   0.577088E+00   0.764874E+03  -0.461596E-16
   LPB:    9  -0.486865198014088E+00   0.161353779014716E-03   0.369523E-01   0.574404E+00   0.925119E+03  -0.399710E-16
   LPB:   10  -0.486865164760251E+00   0.121956069251412E-03   0.383253E-01   0.610493E+00   0.151464E+04  -0.360911E-16
   LPB:   11  -0.486865143524671E+00   0.105980094865057E-03   0.385036E-01   0.635632E+00   0.152722E+04  -0.334450E-16
   LPB:   12  -0.486865129733921E+00   0.939613541582248E-04   0.383477E-01   0.652058E+00   0.141662E+04  -0.317981E-16
   LPB:   13  -0.486865120156583E+00   0.882944913700032E-04   0.395824E-01   0.672812E+00   0.193078E+04  -0.310484E-16
  Finished solving LPB equations
  A_corr:   -0.409360748265533     
 End minimization
 Ecorr=   1604.32744336411     
 A_corr= -0.409360748265533     
 Ecorr_band=  -1604.73680411238     
 End Solvation calculations
RMM:   3    -0.133785061466E+03    0.46022E-03   -0.11078E-04  8874   0.304E-02    0.277E-02
 Begin Solvation calculations
  rms_SCF =   8.982085787738931E-004 tol =   8.982085787738932E-005
 Begin minimization
 Creating dielectric and ionic cavities
  area:      147.596139472564     
  volume:    654.702363322526     
  Acav:     7.748797322309628E-002
  Solving linear dielectric/ionic screening model
        iter                  A_solv                     rms
   LPB:       -0.487051800390402E+00   0.298275952407825E-01
   LPB:    0  -0.487051266566572E+00   0.249688721376513E-01  -0.194587E-03   0.000000E+00   0.281968E+02  -0.548674E-02
   LPB:    1  -0.487047111820624E+00   0.745889362139863E-02   0.111893E-01   0.000000E+00   0.991451E+02  -0.771040E-19
   LPB:    2  -0.487046597642194E+00   0.128854145567785E-02   0.131907E-01   0.104979E+00   0.163671E+03   0.174693E-16
   LPB:    3  -0.487046373720066E+00   0.869983056965702E-03   0.298435E-01   0.192488E+00   0.577088E+03   0.126226E-16
   LPB:    4  -0.487046263262250E+00   0.159064141214279E-02   0.319331E-01   0.461008E+00   0.211869E+03   0.970789E-17
   LPB:    5  -0.487046193168958E+00   0.103253097507429E-02   0.247293E-01   0.819424E+00   0.171549E+03   0.103043E-16
   LPB:    6  -0.487046140809744E+00   0.381184443569605E-03   0.317194E-01   0.582376E+00   0.250856E+03   0.418399E-17
   LPB:    7  -0.487046110348005E+00   0.204811041044597E-03   0.345169E-01   0.534633E+00   0.156851E+04   0.150823E-16
   LPB:    8  -0.487046092611117E+00   0.186838792774996E-03   0.341054E-01   0.589293E+00   0.151681E+04   0.189983E-16
   LPB:    9  -0.487046081039656E+00   0.149539567596503E-03   0.353932E-01   0.628657E+00   0.109682E+04   0.209212E-16
   LPB:   10  -0.487046073040002E+00   0.892234624856787E-04   0.382981E-01   0.638890E+00   0.159002E+04   0.220952E-16
  Finished solving LPB equations
  A_corr:   -0.409558099816905     
 End minimization
 Ecorr=   1604.29053475703     
 A_corr= -0.409558099816905     
 Ecorr_band=  -1604.70009285685     
 End Solvation calculations
RMM:   4    -0.133785063800E+03   -0.23332E-05   -0.31113E-05  7436   0.234E-02
 Begin Solvation calculations
  rms_SCF =   8.982085787738931E-004 tol =   8.982085787738932E-005
 Begin minimization
 Creating dielectric and ionic cavities
  area:      147.594874826688     
  volume:    654.703194188351     
  Acav:     7.748730928401126E-002
  Solving linear dielectric/ionic screening model
        iter                  A_solv                     rms
   LPB:       -0.487243338751366E+00   0.223989159944536E-01
   LPB:    0  -0.487242947472259E+00   0.170413568897793E-01  -0.166594E-03   0.000000E+00   0.281968E+02  -0.469741E-02
   LPB:    1  -0.487241629576236E+00   0.477619225629798E-02   0.122412E-01   0.000000E+00   0.517818E+02   0.153383E-18
   LPB:    2  -0.487241328245557E+00   0.104747827078369E-02   0.142482E-01   0.196438E+00   0.122173E+03   0.609496E-17
   LPB:    3  -0.487241280075378E+00   0.825668545477618E-03   0.226651E-01   0.100493E+00   0.179766E+03   0.103632E-16
   LPB:    4  -0.487241262754287E+00   0.495476992714246E-03   0.225618E-01   0.361228E+00   0.880000E+02   0.122345E-16
   LPB:    5  -0.487241253250918E+00   0.217458396013457E-03   0.251982E-01   0.491255E+00   0.342222E+03   0.117369E-16
   LPB:    6  -0.487241247150053E+00   0.829643736306052E-04   0.338751E-01   0.477533E+00   0.197545E+03   0.545438E-17
  Finished solving LPB equations
  A_corr:   -0.409753937866042     
 End minimization
 Ecorr=   1604.24931429985     
 A_corr= -0.409753937866042     
 Ecorr_band=  -1604.65906823771     
 End Solvation calculations
 187 F= -.13378506E+03 E0= -.13378491E+03  d E =-.143817E-03
quench:  g(F)=  0.000E+00 g(S)=  0.000E+00 dE (1.order)= 0.000E+00
 reached required accuracy - stopping structural energy minimisation
