 vasp.5.4.4.18Apr17-6-g9f103f2a35 (build Feb 06 2024 13:54:16) complex          
  
 POSCAR found type information on POSCAR  Cu Ni Cu N  O 
 02/POSCAR found :  5 types and      40 ions
 scaLAPACK will be used

 ----------------------------------------------------------------------------- 
|                                                                             |
|  ADVICE TO THIS USER RUNNING 'VASP/VAMP'   (HEAR YOUR MASTER'S VOICE ...):  |
|                                                                             |
|      You enforced a specific xc-type in the INCAR file,                     |
|      a different type was found on the POTCAR file                          |
|          I HOPE YOU KNOW, WHAT YOU ARE  DOING                               |
|                                                                             |
 ----------------------------------------------------------------------------- 

 LDA part: xc-table for Pade appr. of Perdew
 POSCAR found type information on POSCAR  Cu Ni Cu N  O 
 00/POSCAR found :  5 types and      40 ions
 POSCAR found type information on POSCAR  Cu Ni Cu N  O 
 06/POSCAR found :  5 types and      40 ions
 Jacobian:    20.5888137679208     
 POSCAR, INCAR and KPOINTS ok, starting setup
 FFT: planning ...
 WAVECAR not read
 entering main loop
       N       E                     dE             d eps       ncg     rms          rms(c)
  Solvation turned off during non-self-consistent phase (first NELMDL steps)
DAV:   1     0.413216688608E+04    0.41322E+04   -0.17865E+05  4032   0.203E+03
DAV:   2     0.570751414807E+03   -0.35614E+04   -0.34378E+04  4032   0.456E+02
DAV:   3    -0.324901178291E+02   -0.60324E+03   -0.55814E+03  4707   0.228E+02
DAV:   4    -0.146122332998E+03   -0.11363E+03   -0.99904E+02  7443   0.894E+01
DAV:   5    -0.159801145693E+03   -0.13679E+02   -0.13487E+02  6066   0.307E+01    0.414E+01
 Begin Solvation calculations
  rms_SCF =    2.95453357304811      tol =   0.295453357304811     
 Begin minimization
 Creating dielectric and ionic cavities
  area:      170.787966684675     
  volume:    688.491588905827     
  Acav:     8.966368250945449E-002
  Solving linear dielectric/ionic screening model
        iter                  A_solv                     rms
   LPB:       -0.328101885751003E+03   0.217658184234513E+03
   LPB:    0  -0.517523822885846E+01   0.166670808373363E+02  -0.446356E+01   0.000000E+00   0.324168E+02  -0.144695E+03
   LPB:    1  -0.105044267604882E+01   0.705674297993926E+01   0.131225E-01   0.000000E+00   0.159359E+03   0.311935E-14
   LPB:    2  -0.541747455366135E+00   0.176879027398791E+01   0.128529E-01   0.125913E+00   0.200484E+03  -0.217373E-13
   LPB:    3  -0.329324537027446E+00   0.703730133207656E+00   0.261077E-01   0.205578E+00   0.433043E+03  -0.219594E-13
   LPB:    4  -0.255150131416428E+00   0.675868265253558E+00   0.298526E-01   0.305378E+00   0.135409E+03  -0.181295E-13
   LPB:    5  -0.225195178923002E+00   0.808638768072766E+00   0.254059E-01   0.474528E+00   0.485836E+03  -0.269575E-13
   LPB:    6  -0.206925696816427E+00   0.287764363899522E+00   0.250162E-01   0.619399E+00   0.782810E+02  -0.281250E-13
  Finished solving LPB equations
  A_corr:   -0.117262014306972     
 End minimization
 Ecorr=   1747.29891843036     
 A_corr= -0.117262014306972     
 Ecorr_band=  -1747.41618044467     
 End Solvation calculations
RMM:   6    -0.148825744273E+03    0.10975E+02   -0.32480E+02  4104   0.896E+01    0.390E+01
 Begin Solvation calculations
  rms_SCF =    2.95453357304811      tol =   0.295453357304811     
 Begin minimization
 Creating dielectric and ionic cavities
  area:      175.451093284953     
  volume:    696.313530999737     
  Acav:     9.211182397460042E-002
  Solving linear dielectric/ionic screening model
        iter                  A_solv                     rms
   LPB:       -0.306367911062611E+01   0.292091827650074E+02
   LPB:    0  -0.282625155949103E+01   0.282491089414397E+02   0.121721E+00   0.000000E+00   0.320501E+02   0.390117E+01
   LPB:    1  -0.423392490173977E+00   0.254794399890149E+01   0.886609E-02   0.000000E+00   0.764307E+02   0.165180E-15
   LPB:    2  -0.254112000243938E+00   0.831052167146025E+00   0.168762E-01   0.370115E-01   0.126808E+03  -0.505938E-14
   LPB:    3  -0.226718924107434E+00   0.489491190989154E+00   0.221481E-01   0.123303E+00   0.839965E+02  -0.738997E-14
   LPB:    4  -0.215571794715823E+00   0.421450936118257E+00   0.246371E-01   0.365821E+00   0.311894E+03  -0.442190E-14
   LPB:    5  -0.208129260684557E+00   0.168416430970035E+00   0.284764E-01   0.577647E+00   0.852069E+02  -0.333802E-14
  Finished solving LPB equations
  A_corr:   -0.116017436709957     
 End minimization
 Ecorr=   1683.98706509032     
 A_corr= -0.116017436709957     
 Ecorr_band=  -1684.10308252703     
 End Solvation calculations
RMM:   7    -0.158326596848E+03   -0.95009E+01   -0.12521E+02  4212   0.442E+01    0.461E+01
 Begin Solvation calculations
  rms_SCF =    2.95453357304811      tol =   0.295453357304811     
 Begin minimization
 Creating dielectric and ionic cavities
  area:      177.342097468582     
  volume:    698.285109770405     
  Acav:     9.310460117100566E-002
  Solving linear dielectric/ionic screening model
        iter                  A_solv                     rms
   LPB:       -0.768347707937568E+00   0.127835526609486E+02
   LPB:    0  -0.754175825711240E+00   0.127166251879140E+02   0.297811E-01   0.000000E+00   0.319577E+02   0.951736E+00
   LPB:    1  -0.262339491825130E+00   0.121759053105309E+01   0.911036E-02   0.000000E+00   0.732822E+02   0.278384E-16
   LPB:    2  -0.220749323926246E+00   0.212367773357664E+00   0.161399E-01   0.477315E-01   0.141552E+03  -0.552699E-15
   LPB:    3  -0.212018477465041E+00   0.116476958894601E+00   0.267176E-01   0.126815E+00   0.244708E+03   0.186075E-15
   LPB:    4  -0.208297060788057E+00   0.170842779428471E+00   0.337750E-01   0.337173E+00   0.257649E+03   0.768959E-15
  Finished solving LPB equations
  A_corr:   -0.115192459617052     
 End minimization
 Ecorr=   1660.78240608958     
 A_corr= -0.115192459617052     
 Ecorr_band=  -1660.89759854920     
 End Solvation calculations
RMM:   8    -0.146570814971E+03    0.11756E+02   -0.10411E+01  4139   0.945E+00    0.295E+01
 Begin Solvation calculations
  rms_SCF =    2.95453357304811      tol =   0.295453357304811     
 Begin minimization
 Creating dielectric and ionic cavities
  area:      164.119884856628     
  volume:    698.790843027245     
  Acav:     8.616293954972971E-002
  Solving linear dielectric/ionic screening model
        iter                  A_solv                     rms
   LPB:       -0.391815199206811E+00   0.368113412605972E+01
   LPB:    0  -0.375347369202467E+00   0.406392675973561E+01   0.321149E-01   0.000000E+00   0.319340E+02   0.102556E+01
   LPB:    1  -0.273030653313384E+00   0.122464612025529E+01   0.118909E-01   0.000000E+00   0.762215E+02  -0.180500E-16
   LPB:    2  -0.254569148585522E+00   0.241850816544562E+00   0.148633E-01   0.144352E+00   0.121013E+03   0.630414E-14
   LPB:    3  -0.246333086840475E+00   0.218370043643661E+00   0.303175E-01   0.218713E+00   0.182054E+03   0.103212E-13
   LPB:    4  -0.241637966078405E+00   0.233661142176936E+00   0.349633E-01   0.494319E+00   0.547885E+02   0.125234E-13
  Finished solving LPB equations
  A_corr:   -0.155475026528675     
 End minimization
 Ecorr=   1610.68759845254     
 A_corr= -0.155475026528675     
 Ecorr_band=  -1610.84307347907     
 End Solvation calculations
RMM:   9    -0.134660463800E+03    0.11910E+02   -0.22194E+01  4115   0.142E+01    0.680E+00
 Begin Solvation calculations
  rms_SCF =    2.95453357304811      tol =   0.295453357304811     
 Begin minimization
 Creating dielectric and ionic cavities
  area:      157.504411584177     
  volume:    697.726512869806     
  Acav:     8.268981608169301E-002
  Solving linear dielectric/ionic screening model
        iter                  A_solv                     rms
   LPB:       -0.750210220282573E+00   0.121129050171630E+02
   LPB:    0  -0.747992130403275E+00   0.121091903948295E+02   0.117771E-01   0.000000E+00   0.319839E+02   0.376678E+00
   LPB:    1  -0.302969822017930E+00   0.110604342163389E+01   0.905840E-02   0.000000E+00   0.739641E+02  -0.552436E-17
   LPB:    2  -0.268911579884063E+00   0.179994854950295E+00   0.156166E-01   0.443920E-01   0.152966E+03  -0.383241E-15
   LPB:    3  -0.263154720405119E+00   0.106943430772517E+00   0.270424E-01   0.976127E-01   0.241240E+03  -0.860936E-15
   LPB:    4  -0.259821529735123E+00   0.109939118364998E+00   0.397709E-01   0.393689E+00   0.154933E+03  -0.984785E-15
  Finished solving LPB equations
  A_corr:   -0.177131713653430     
 End minimization
 Ecorr=   1597.22515567141     
 A_corr= -0.177131713653430     
 Ecorr_band=  -1597.40228738506     
 End Solvation calculations
RMM:  10    -0.134089172820E+03    0.57129E+00   -0.15167E+00  4140   0.427E+00    0.457E+00
 Begin Solvation calculations
  rms_SCF =   0.657799630349200      tol =   6.577996303492001E-002
 Begin minimization
 Creating dielectric and ionic cavities
  area:      147.132008549781     
  volume:    691.752651208194     
  Acav:     7.724430448863517E-002
  Solving linear dielectric/ionic screening model
        iter                  A_solv                     rms
   LPB:       -0.562679154749069E+00   0.363706717579580E+01
   LPB:    0  -0.562337179443119E+00   0.380271896404468E+01   0.460420E-02   0.000000E+00   0.322639E+02   0.148549E+00
   LPB:    1  -0.366849654696562E+00   0.147266727461756E+01   0.144996E-01   0.000000E+00   0.906289E+02  -0.586825E-17
   LPB:    2  -0.342860460496121E+00   0.515358894504810E+00   0.149828E-01   0.118757E+00   0.132023E+03   0.348439E-13
   LPB:    3  -0.331922150061146E+00   0.354064480009053E+00   0.233383E-01   0.292724E+00   0.199727E+03   0.383194E-13
   LPB:    4  -0.325851483967580E+00   0.426615188193590E+00   0.268268E-01   0.482822E+00   0.680016E+02   0.406642E-13
   LPB:    5  -0.320282282958744E+00   0.260205901643246E+00   0.282778E-01   0.870322E+00   0.190383E+03   0.422650E-13
   LPB:    6  -0.315819359458069E+00   0.957197712818840E-01   0.349921E-01   0.647592E+00   0.754148E+02   0.420610E-13
   LPB:    7  -0.313055677512284E+00   0.527354493528126E-01   0.344944E-01   0.628189E+00   0.144735E+03   0.400986E-13
  Finished solving LPB equations
  A_corr:   -0.235811373023649     
 End minimization
 Ecorr=   1538.61455049166     
 A_corr= -0.235811373023649     
 Ecorr_band=  -1538.85036186468     
 End Solvation calculations
RMM:  11    -0.133892025643E+03    0.19715E+00   -0.62914E-01  4321   0.193E+00    0.245E+00
 Begin Solvation calculations
  rms_SCF =   0.657799630349200      tol =   6.577996303492001E-002
 Begin minimization
 Creating dielectric and ionic cavities
  area:      146.298066812600     
  volume:    688.114776831227     
  Acav:     7.680648507661525E-002
  Solving linear dielectric/ionic screening model
        iter                  A_solv                     rms
   LPB:       -0.405667993281906E+00   0.128614380805936E+01
   LPB:    0  -0.404721401246910E+00   0.156657393246715E+01   0.763999E-02   0.000000E+00   0.324345E+02   0.247799E+00
   LPB:    1  -0.354024231589578E+00   0.495884641518484E+00   0.155679E-01   0.000000E+00   0.118750E+03   0.105039E-16
   LPB:    2  -0.348428767460181E+00   0.261462533365917E+00   0.173825E-01   0.988486E-01   0.174011E+03   0.524746E-14
   LPB:    3  -0.346373480549638E+00   0.841467891084304E-01   0.222205E-01   0.287340E+00   0.101828E+03   0.439962E-14
   LPB:    4  -0.344846232008370E+00   0.810400820603551E-01   0.439107E-01   0.376028E+00   0.320773E+03   0.403837E-14
   LPB:    5  -0.343046482105698E+00   0.186096417743871E+00   0.464843E-01   0.111318E+01   0.865391E+02   0.375388E-14
   LPB:    6  -0.341766011349764E+00   0.244632659266678E+00   0.258121E-01   0.128127E+01   0.582583E+02   0.389575E-14
   LPB:    7  -0.340911216703662E+00   0.760227063772596E-01   0.208963E-01   0.824606E+00   0.113717E+03   0.390152E-14
   LPB:    8  -0.340422234040614E+00   0.290824474010534E-01   0.276384E-01   0.432502E+00   0.193499E+03   0.370324E-14
  Finished solving LPB equations
  A_corr:   -0.263615748963998     
 End minimization
 Ecorr=   1508.37982653053     
 A_corr= -0.263615748963998     
 Ecorr_band=  -1508.64344227949     
 End Solvation calculations
RMM:  12    -0.133873441204E+03    0.18584E-01   -0.15544E-01  4148   0.157E+00    0.176E+00
 Begin Solvation calculations
  rms_SCF =   0.296824586824310      tol =   2.968245868243101E-002
 Begin minimization
 Creating dielectric and ionic cavities
  area:      146.777552079106     
  volume:    684.721237663988     
  Acav:     7.705821484153075E-002
  Solving linear dielectric/ionic screening model
        iter                  A_solv                     rms
   LPB:       -0.403686973141193E+00   0.157466165463990E+01
   LPB:    0  -0.403556868099526E+00   0.146330281762489E+01  -0.282551E-02   0.000000E+00   0.325936E+02  -0.920933E-01
   LPB:    1  -0.369985396129247E+00   0.543165231034501E+00   0.142269E-01   0.000000E+00   0.109432E+03  -0.644522E-17
   LPB:    2  -0.366251252886209E+00   0.159166670728415E+00   0.151124E-01   0.104712E+00   0.130632E+03   0.806532E-15
   LPB:    3  -0.365226884647511E+00   0.940288674405477E-01   0.207167E-01   0.200114E+00   0.214765E+03   0.196999E-14
   LPB:    4  -0.364878705804684E+00   0.105026901386634E+00   0.208326E-01   0.338005E+00   0.138485E+03   0.138020E-14
   LPB:    5  -0.364627912594699E+00   0.735052787814084E-01   0.247720E-01   0.605754E+00   0.209334E+03   0.150178E-14
   LPB:    6  -0.364342375092208E+00   0.300123427300654E-01   0.406615E-01   0.693626E+00   0.836442E+02   0.158510E-14
   LPB:    7  -0.364051871313294E+00   0.218878530319270E-01   0.419681E-01   0.985717E+00   0.113249E+03   0.166002E-14
  Finished solving LPB equations
  A_corr:   -0.286993656471763     
 End minimization
 Ecorr=   1494.05896539969     
 A_corr= -0.286993656471763     
 Ecorr_band=  -1494.34595905616     
 End Solvation calculations
RMM:  13    -0.133855177900E+03    0.18263E-01   -0.69252E-02  4223   0.112E+00    0.589E-01
 Begin Solvation calculations
  rms_SCF =   0.223789423439552      tol =   2.237894234395523E-002
 Begin minimization
 Creating dielectric and ionic cavities
  area:      147.533236368717     
  volume:    682.000982809087     
  Acav:     7.745494909357653E-002
  Solving linear dielectric/ionic screening model
        iter                  A_solv                     rms
   LPB:       -0.414856510362996E+00   0.141453019151692E+01
   LPB:    0  -0.414738017030984E+00   0.131424571609945E+01  -0.269121E-02   0.000000E+00   0.327211E+02  -0.880594E-01
   LPB:    1  -0.388155827446005E+00   0.581898774657971E+00   0.136381E-01   0.000000E+00   0.123039E+03  -0.608432E-17
   LPB:    2  -0.385094480957878E+00   0.139440627316938E+00   0.141089E-01   0.111322E+00   0.106430E+03   0.348691E-14
   LPB:    3  -0.384342850473763E+00   0.981285424369935E-01   0.191714E-01   0.180689E+00   0.273205E+03   0.291875E-14
   LPB:    4  -0.384065761740294E+00   0.819883117952597E-01   0.209386E-01   0.337536E+00   0.983114E+02   0.334665E-14
   LPB:    5  -0.383811769421799E+00   0.607709378002779E-01   0.310376E-01   0.618387E+00   0.269751E+03   0.383053E-14
   LPB:    6  -0.383535367275367E+00   0.251822107592693E-01   0.423350E-01   0.797828E+00   0.695206E+02   0.442850E-14
   LPB:    7  -0.383312808423966E+00   0.205969807273420E-01   0.376195E-01   0.906130E+00   0.129754E+03   0.504363E-14
  Finished solving LPB equations
  A_corr:   -0.305857859330390     
 End minimization
 Ecorr=   1482.49702966730     
 A_corr= -0.305857859330390     
 Ecorr_band=  -1482.80288752663     
 End Solvation calculations
RMM:  14    -0.133857233027E+03   -0.20551E-02   -0.30129E-02  4272   0.593E-01    0.743E-01
 Begin Solvation calculations
  rms_SCF =   0.223789423439552      tol =   2.237894234395523E-002
 Begin minimization
 Creating dielectric and ionic cavities
  area:      148.295263511553     
  volume:    679.892718342044     
  Acav:     7.785501334356541E-002
  Solving linear dielectric/ionic screening model
        iter                  A_solv                     rms
   LPB:       -0.426261386829291E+00   0.132973353538662E+01
   LPB:    0  -0.426082506650794E+00   0.120805665060072E+01  -0.330162E-02   0.000000E+00   0.328199E+02  -0.108359E+00
   LPB:    1  -0.402944690515924E+00   0.448812349191312E+00   0.142347E-01   0.000000E+00   0.118540E+03   0.436650E-17
   LPB:    2  -0.400376672294495E+00   0.120168602989401E+00   0.149098E-01   0.105963E+00   0.116804E+03   0.821389E-15
   LPB:    3  -0.399814144005236E+00   0.601376085202250E-01   0.204467E-01   0.159732E+00   0.179631E+03   0.834328E-15
   LPB:    4  -0.399614149334602E+00   0.809818914894343E-01   0.237075E-01   0.306628E+00   0.150970E+03   0.542578E-15
   LPB:    5  -0.399464840571400E+00   0.692712746980322E-01   0.239683E-01   0.738438E+00   0.194472E+03   0.445222E-15
   LPB:    6  -0.399282962493870E+00   0.272387786537054E-01   0.370275E-01   0.788512E+00   0.673933E+02   0.329674E-15
   LPB:    7  -0.399118141691441E+00   0.179504262684438E-01   0.387201E-01   0.866602E+00   0.132131E+03  -0.113557E-16
  Finished solving LPB equations
  A_corr:   -0.321263128347875     
 End minimization
 Ecorr=   1473.28703332909     
 A_corr= -0.321263128347875     
 Ecorr_band=  -1473.60829645744     
 End Solvation calculations
RMM:  15    -0.133856028540E+03    0.12045E-02   -0.11023E-02  5005   0.252E-01    0.245E-01
 Begin Solvation calculations
  rms_SCF =   0.223789423439552      tol =   2.237894234395523E-002
 Begin minimization
 Creating dielectric and ionic cavities
  area:      148.940549583984     
  volume:    678.423319602974     
  Acav:     7.819378853159134E-002
  Solving linear dielectric/ionic screening model
        iter                  A_solv                     rms
   LPB:       -0.438074294404662E+00   0.136551382583566E+01
   LPB:    0  -0.437783367602259E+00   0.121882297149719E+01  -0.420613E-02   0.000000E+00   0.328888E+02  -0.138335E+00
   LPB:    1  -0.416844920127153E+00   0.402030794293274E+00   0.143796E-01   0.000000E+00   0.107019E+03  -0.135748E-16
   LPB:    2  -0.414459623564792E+00   0.110397642440053E+00   0.149499E-01   0.109574E+00   0.126317E+03   0.612462E-14
   LPB:    3  -0.413963560768579E+00   0.366061504172097E-01   0.213797E-01   0.145422E+00   0.148368E+03   0.724692E-14
   LPB:    4  -0.413771339363539E+00   0.421057059948393E-01   0.291195E-01   0.284500E+00   0.273217E+03   0.780234E-14
   LPB:    5  -0.413645369209564E+00   0.827288967603126E-01   0.301325E-01   0.633308E+00   0.174201E+03   0.812131E-14
   LPB:    6  -0.413530047405652E+00   0.476465850589957E-01   0.243456E-01   0.113308E+01   0.618806E+02   0.828969E-14
   LPB:    7  -0.413410715672262E+00   0.169706310646835E-01   0.332881E-01   0.756791E+00   0.158968E+03   0.835439E-14
  Finished solving LPB equations
  A_corr:   -0.335216927140671     
 End minimization
 Ecorr=   1465.54772783032     
 A_corr= -0.335216927140671     
 Ecorr_band=  -1465.88294475746     
 End Solvation calculations
RMM:  16    -0.133857470907E+03   -0.14424E-02   -0.39789E-03  5157   0.134E-01    0.198E-01
 Begin Solvation calculations
  rms_SCF =   0.223789423439552      tol =   2.237894234395523E-002
 Begin minimization
 Creating dielectric and ionic cavities
  area:      149.495045977435     
  volume:    677.446861921007     
  Acav:     7.848489913815318E-002
  Solving linear dielectric/ionic screening model
        iter                  A_solv                     rms
   LPB:       -0.448446789277415E+00   0.138407544170912E+01
   LPB:    0  -0.448072613793700E+00   0.122946532998064E+01  -0.476679E-02   0.000000E+00   0.329346E+02  -0.156992E+00
   LPB:    1  -0.429478921838272E+00   0.350651743998690E+00   0.144730E-01   0.000000E+00   0.957477E+02   0.808154E-17
   LPB:    2  -0.427358739578353E+00   0.108098842405682E+00   0.147971E-01   0.111530E+00   0.146127E+03  -0.436200E-15
   LPB:    3  -0.426931877728872E+00   0.451704317526433E-01   0.213072E-01   0.139818E+00   0.124352E+03  -0.353479E-15
   LPB:    4  -0.426770561948942E+00   0.595007786837353E-01   0.271434E-01   0.296655E+00   0.329063E+03  -0.107020E-14
   LPB:    5  -0.426669654818811E+00   0.642940516084127E-01   0.262421E-01   0.647010E+00   0.923396E+02  -0.153769E-14
   LPB:    6  -0.426565961322799E+00   0.318575408434265E-01   0.265168E-01   0.101697E+01   0.113055E+03  -0.188375E-14
   LPB:    7  -0.426464256220169E+00   0.169986111767499E-01   0.359450E-01   0.723559E+00   0.117789E+03  -0.215644E-14
  Finished solving LPB equations
  A_corr:   -0.347979357082016     
 End minimization
 Ecorr=   1458.92729951225     
 A_corr= -0.347979357082016     
 Ecorr_band=  -1459.27527886933     
 End Solvation calculations
RMM:  17    -0.133859044003E+03   -0.15731E-02   -0.19816E-03  4139   0.128E-01    0.175E-01
 Begin Solvation calculations
  rms_SCF =   0.223789423439552      tol =   2.237894234395523E-002
 Begin minimization
 Creating dielectric and ionic cavities
  area:      150.254380277598     
  volume:    676.467537800754     
  Acav:     7.888354964573913E-002
  Solving linear dielectric/ionic screening model
        iter                  A_solv                     rms
   LPB:       -0.496422395478850E+00   0.224551938637070E+01
   LPB:    0  -0.495260552547511E+00   0.199419674526186E+01  -0.839383E-02   0.000000E+00   0.329805E+02  -0.276833E+00
   LPB:    1  -0.452505783300666E+00   0.504947711629212E+00   0.144636E-01   0.000000E+00   0.868692E+02  -0.224187E-16
   LPB:    2  -0.447668940282983E+00   0.175320809703619E+00   0.144951E-01   0.112884E+00   0.167562E+03  -0.971036E-15
   LPB:    3  -0.446735792801776E+00   0.100944484778797E+00   0.201861E-01   0.138534E+00   0.118491E+03  -0.160082E-14
   LPB:    4  -0.446408672899257E+00   0.104290805047134E+00   0.213470E-01   0.331491E+00   0.236637E+03  -0.102928E-14
   LPB:    5  -0.446210464825295E+00   0.598732650896753E-01   0.223678E-01   0.578267E+00   0.112397E+03  -0.844464E-15
   LPB:    6  -0.446030541535961E+00   0.248755899725819E-01   0.316275E-01   0.641986E+00   0.128861E+03  -0.791249E-15
   LPB:    7  -0.445884968531095E+00   0.152315210161789E-01   0.378192E-01   0.676620E+00   0.162914E+03  -0.819835E-15
  Finished solving LPB equations
  A_corr:   -0.367001418885356     
 End minimization
 Ecorr=   1450.55043249426     
 A_corr= -0.367001418885356     
 Ecorr_band=  -1450.91743391314     
 End Solvation calculations
RMM:  18    -0.133861662515E+03   -0.26185E-02   -0.30642E-03  4075   0.121E-01    0.178E-01
 Begin Solvation calculations
  rms_SCF =   0.153300648951582      tol =   1.533006489515823E-002
 Begin minimization
 Creating dielectric and ionic cavities
  area:      150.865848373281     
  volume:    676.187482565532     
  Acav:     7.920457039597258E-002
  Solving linear dielectric/ionic screening model
        iter                  A_solv                     rms
   LPB:       -0.518002042355382E+00   0.251293290711121E+01
   LPB:    0  -0.516245478678128E+00   0.223436904072806E+01  -0.103189E-01   0.000000E+00   0.329936E+02  -0.340457E+00
   LPB:    1  -0.471082060572578E+00   0.493143317066960E+00   0.143216E-01   0.000000E+00   0.772921E+02   0.106952E-16
   LPB:    2  -0.466144034118962E+00   0.193907260680496E+00   0.141283E-01   0.110833E+00   0.193422E+03   0.130981E-14
   LPB:    3  -0.465220757820924E+00   0.113800565122458E+00   0.186533E-01   0.141617E+00   0.118468E+03   0.150025E-14
   LPB:    4  -0.464873233978414E+00   0.102680823518678E+00   0.204383E-01   0.343529E+00   0.191149E+03   0.140238E-14
   LPB:    5  -0.464642119156405E+00   0.594908180236338E-01   0.250219E-01   0.543208E+00   0.109485E+03   0.132949E-14
   LPB:    6  -0.464427601413946E+00   0.249027381914418E-01   0.343167E-01   0.676785E+00   0.115278E+03   0.126708E-14
   LPB:    7  -0.464254783064231E+00   0.145338116639686E-01   0.378092E-01   0.731197E+00   0.163988E+03   0.932873E-15
  Finished solving LPB equations
  A_corr:   -0.385050212668258     
 End minimization
 Ecorr=   1442.97102836935     
 A_corr= -0.385050212668258     
 Ecorr_band=  -1443.35607858202     
 End Solvation calculations
RMM:  19    -0.133864407519E+03   -0.27450E-02   -0.24458E-03  4078   0.108E-01    0.974E-02
 Begin Solvation calculations
  rms_SCF =   0.153300648951582      tol =   1.533006489515823E-002
 Begin minimization
 Creating dielectric and ionic cavities
  area:      151.135919130213     
  volume:    676.146862582816     
  Acav:     7.934635754336178E-002
  Solving linear dielectric/ionic screening model
        iter                  A_solv                     rms
   LPB:       -0.487547206555840E+00   0.139872853708617E+01
   LPB:    0  -0.487016263046330E+00   0.126279367667641E+01  -0.567298E-02   0.000000E+00   0.329956E+02  -0.187183E+00
   LPB:    1  -0.475072872475797E+00   0.265874742377258E+00   0.139456E-01   0.000000E+00   0.695758E+02   0.647494E-17
   LPB:    2  -0.473730946431446E+00   0.109227771099506E+00   0.134196E-01   0.116761E+00   0.232925E+03   0.373687E-14
   LPB:    3  -0.473477717541190E+00   0.584658800826103E-01   0.174594E-01   0.145042E+00   0.129429E+03   0.416906E-14
   LPB:    4  -0.473376676365728E+00   0.512414694192751E-01   0.219301E-01   0.317669E+00   0.143764E+03   0.405644E-14
   LPB:    5  -0.473286072425484E+00   0.384158252832061E-01   0.323863E-01   0.607194E+00   0.103483E+03   0.374133E-14
   LPB:    6  -0.473168441002412E+00   0.185782049576866E-01   0.418399E-01   0.100496E+01   0.755252E+02   0.343897E-14
   LPB:    7  -0.473070621906755E+00   0.105042493319629E-01   0.365528E-01   0.951854E+00   0.123314E+03   0.325898E-14
  Finished solving LPB equations
  A_corr:   -0.393724264363393     
 End minimization
 Ecorr=   1438.99322911299     
 A_corr= -0.393724264363393     
 Ecorr_band=  -1439.38695337735     
 End Solvation calculations
RMM:  20    -0.133865335786E+03   -0.92827E-03   -0.72829E-04  4081   0.687E-02    0.952E-02
 Begin Solvation calculations
  rms_SCF =   0.153300648951582      tol =   1.533006489515823E-002
 Begin minimization
 Creating dielectric and ionic cavities
  area:      151.388933562108     
  volume:    676.186157752879     
  Acav:     7.947919012010683E-002
  Solving linear dielectric/ionic screening model
        iter                  A_solv                     rms
   LPB:       -0.502564941601444E+00   0.175377434296367E+01
   LPB:    0  -0.501778241225596E+00   0.160778127317222E+01  -0.690564E-02   0.000000E+00   0.329937E+02  -0.227843E+00
   LPB:    1  -0.485445037085119E+00   0.334039855845822E+00   0.134038E-01   0.000000E+00   0.651204E+02   0.127750E-16
   LPB:    2  -0.483528538464264E+00   0.121757239094379E+00   0.128396E-01   0.122494E+00   0.253395E+03  -0.103995E-14
   LPB:    3  -0.483199062923894E+00   0.564098887666760E-01   0.168891E-01   0.130695E+00   0.151457E+03  -0.110954E-14
   LPB:    4  -0.483097644712907E+00   0.439856863099881E-01   0.207147E-01   0.250969E+00   0.147604E+03  -0.119503E-14
   LPB:    5  -0.483041266795442E+00   0.265753726779721E-01   0.264531E-01   0.435306E+00   0.120952E+03  -0.118886E-14
   LPB:    6  -0.482989161268432E+00   0.122813385373923E-01   0.370227E-01   0.660365E+00   0.105704E+03  -0.110823E-14
  Finished solving LPB equations
  A_corr:   -0.403509971148326     
 End minimization
 Ecorr=   1435.77767187992     
 A_corr= -0.403509971148326     
 Ecorr_band=  -1436.18118185107     
 End Solvation calculations
RMM:  21    -0.133865914310E+03   -0.57852E-03   -0.10204E-03  4085   0.498E-02    0.689E-02
 Begin Solvation calculations
  rms_SCF =   8.274956466201484E-002 tol =   8.274956466201484E-003
 Begin minimization
 Creating dielectric and ionic cavities
  area:      151.344275542909     
  volume:    676.411697883588     
  Acav:     7.945574466002747E-002
  Solving linear dielectric/ionic screening model
        iter                  A_solv                     rms
   LPB:       -0.486837312585531E+00   0.751812760127802E+00
   LPB:    0  -0.486703773262612E+00   0.716413803015127E+00  -0.284560E-02   0.000000E+00   0.329831E+02  -0.938568E-01
   LPB:    1  -0.483878474117239E+00   0.121892139024049E+00   0.120441E-01   0.000000E+00   0.740673E+02  -0.433658E-17
   LPB:    2  -0.483650295408379E+00   0.453506327893501E-01   0.117262E-01   0.829523E-01   0.281232E+03   0.545056E-16
   LPB:    3  -0.483605391020767E+00   0.127557900410425E-01   0.185753E-01   0.124232E+00   0.122992E+03   0.727410E-16
   LPB:    4  -0.483580102758028E+00   0.217285635105157E-01   0.410532E-01   0.254812E+00   0.990135E+02   0.144400E-15
   LPB:    5  -0.483543313952415E+00   0.300293479619420E-01   0.435450E-01   0.137153E+01   0.913093E+02   0.174922E-15
   LPB:    6  -0.483508359469895E+00   0.171008411108337E-01   0.292457E-01   0.141470E+01   0.575458E+02   0.114019E-16
   LPB:    7  -0.483486810120400E+00   0.555436007266203E-02   0.283464E-01   0.636056E+00   0.183126E+03  -0.290949E-15
  Finished solving LPB equations
  A_corr:   -0.404031065460373     
 End minimization
 Ecorr=   1434.68910656093     
 A_corr= -0.404031065460373     
 Ecorr_band=  -1435.09313762640     
 End Solvation calculations
RMM:  22    -0.133866492448E+03   -0.57814E-03   -0.28204E-04  4080   0.573E-02    0.101E-01
 Begin Solvation calculations
  rms_SCF =   8.274956466201484E-002 tol =   8.274956466201484E-003
 Begin minimization
 Creating dielectric and ionic cavities
  area:      151.345587960219     
  volume:    676.522144712865     
  Acav:     7.945643367911512E-002
  Solving linear dielectric/ionic screening model
        iter                  A_solv                     rms
   LPB:       -0.489757835267607E+00   0.914868447468569E+00
   LPB:    0  -0.489589660711240E+00   0.870011920569899E+00  -0.319362E-02   0.000000E+00   0.329780E+02  -0.105319E+00
   LPB:    1  -0.486132990657878E+00   0.148235267234960E+00   0.116332E-01   0.000000E+00   0.652643E+02   0.418031E-17
   LPB:    2  -0.485763724492821E+00   0.436949666791809E-01   0.122120E-01   0.101764E+00   0.257025E+03   0.155583E-14
   LPB:    3  -0.485708893895926E+00   0.140621887946685E-01   0.176035E-01   0.103008E+00   0.166792E+03   0.170913E-14
   LPB:    4  -0.485697654625819E+00   0.128275431540689E-01   0.222309E-01   0.162314E+00   0.153465E+03   0.173765E-14
   LPB:    5  -0.485692580246613E+00   0.902809080003244E-02   0.247982E-01   0.404746E+00   0.136488E+03   0.178442E-14
   LPB:    6  -0.485687815605422E+00   0.483905121456377E-02   0.358674E-01   0.649184E+00   0.111357E+03   0.178276E-14
  Finished solving LPB equations
  A_corr:   -0.406231381926307     
 End minimization
 Ecorr=   1433.95034735344     
 A_corr= -0.406231381926307     
 Ecorr_band=  -1434.35657873537     
 End Solvation calculations
RMM:  23    -0.133866666306E+03   -0.17386E-03   -0.14786E-04  3938   0.349E-02    0.398E-02
 Begin Solvation calculations
  rms_SCF =   8.274956466201484E-002 tol =   8.274956466201484E-003
 Begin minimization
 Creating dielectric and ionic cavities
  area:      151.363981017814     
  volume:    676.620727648720     
  Acav:     7.946609003435219E-002
  Solving linear dielectric/ionic screening model
        iter                  A_solv                     rms
   LPB:       -0.495160304307336E+00   0.113048800116826E+01
   LPB:    0  -0.494918161534272E+00   0.107592217250014E+01  -0.383239E-02   0.000000E+00   0.329733E+02  -0.126367E+00
   LPB:    1  -0.489769806179241E+00   0.183640805595242E+00   0.115661E-01   0.000000E+00   0.641905E+02  -0.680956E-17
   LPB:    2  -0.489193272586922E+00   0.542358077169566E-01   0.123725E-01   0.104685E+00   0.242614E+03   0.552663E-15
   LPB:    3  -0.489107325550254E+00   0.184822884949765E-01   0.178258E-01   0.103470E+00   0.159511E+03   0.606916E-15
   LPB:    4  -0.489084193236688E+00   0.190150343787953E-01   0.251633E-01   0.190664E+00   0.127831E+03   0.610257E-15
   LPB:    5  -0.489072132964995E+00   0.143052658582108E-01   0.257179E-01   0.510118E+00   0.129689E+03   0.527230E-15
   LPB:    6  -0.489062397934159E+00   0.635785786246864E-02   0.314015E-01   0.661097E+00   0.100019E+03   0.473206E-15
  Finished solving LPB equations
  A_corr:   -0.409596307899806     
 End minimization
 Ecorr=   1432.73099854907     
 A_corr= -0.409596307899806     
 Ecorr_band=  -1433.14059485697     
 End Solvation calculations
RMM:  24    -0.133866739958E+03   -0.73653E-04   -0.19803E-04  3942   0.269E-02    0.221E-02
 Begin Solvation calculations
  rms_SCF =   3.512237761538820E-002 tol =   3.512237761538820E-003
 Begin minimization
 Creating dielectric and ionic cavities
  area:      151.366345649033     
  volume:    676.622089802215     
  Acav:     7.946733146574218E-002
  Solving linear dielectric/ionic screening model
        iter                  A_solv                     rms
   LPB:       -0.491801749904936E+00   0.566574157862545E+00
   LPB:    0  -0.491757964797802E+00   0.546793720337207E+00  -0.162966E-02   0.000000E+00   0.329733E+02  -0.537352E-01
   LPB:    1  -0.490595316171480E+00   0.799145481854565E-01   0.105602E-01   0.000000E+00   0.677887E+02   0.167870E-17
   LPB:    2  -0.490476883841181E+00   0.223923558015451E-01   0.125519E-01   0.857003E-01   0.218178E+03  -0.355459E-15
   LPB:    3  -0.490460847153789E+00   0.717523253535317E-02   0.186819E-01   0.909776E-01   0.142937E+03  -0.405095E-15
   LPB:    4  -0.490454337901794E+00   0.106218054102688E-01   0.361893E-01   0.209535E+00   0.888730E+02  -0.420177E-15
   LPB:    5  -0.490447010547036E+00   0.134959956478401E-01   0.383684E-01   0.106175E+01   0.923205E+02  -0.352031E-15
   LPB:    6  -0.490439395007427E+00   0.730319052530823E-02   0.311792E-01   0.127897E+01   0.558035E+02  -0.266503E-15
   LPB:    7  -0.490434072937183E+00   0.262634636455409E-02   0.314080E-01   0.693753E+00   0.183160E+03  -0.249424E-15
  Finished solving LPB equations
  A_corr:   -0.410966741471441     
 End minimization
 Ecorr=   1431.83849067659     
 A_corr= -0.410966741471441     
 Ecorr_band=  -1432.24945741806     
 End Solvation calculations
RMM:  25    -0.133866790252E+03   -0.50294E-04   -0.39400E-05  2634   0.190E-02    0.130E-02
 Begin Solvation calculations
  rms_SCF =   1.726164929395336E-002 tol =   1.726164929395336E-003
 Begin minimization
 Creating dielectric and ionic cavities
  area:      151.341096315316     
  volume:    676.590909642946     
  Acav:     7.945407556554093E-002
  Solving linear dielectric/ionic screening model
        iter                  A_solv                     rms
   LPB:       -0.489849283270615E+00   0.109142479993579E+00
   LPB:    0  -0.489849228082033E+00   0.108750633241376E+00   0.578561E-04   0.000000E+00   0.329747E+02   0.190779E-02
   LPB:    1  -0.489721614091935E+00   0.469849165596872E-01   0.103757E-01   0.000000E+00   0.200203E+03  -0.529608E-20
   LPB:    2  -0.489706618068507E+00   0.770543168818026E-02   0.141033E-01   0.864518E-01   0.899549E+02  -0.507346E-17
   LPB:    3  -0.489701910700075E+00   0.415071003312836E-02   0.238008E-01   0.186008E+00   0.167141E+03  -0.144967E-16
   LPB:    4  -0.489699167882349E+00   0.607692427131334E-02   0.331705E-01   0.418078E+00   0.340387E+03  -0.732283E-17
   LPB:    5  -0.489697969439233E+00   0.486512273148590E-02   0.234129E-01   0.619039E+00   0.139795E+03   0.716671E-17
   LPB:    6  -0.489696936522848E+00   0.260480586253589E-02   0.324285E-01   0.622266E+00   0.293546E+03  -0.102380E-15
   LPB:    7  -0.489696118110984E+00   0.161811644463088E-02   0.373796E-01   0.687383E+00   0.483246E+03  -0.216715E-15
  Finished solving LPB equations
  A_corr:   -0.410242042545443     
 End minimization
 Ecorr=   1431.88560819010     
 A_corr= -0.410242042545443     
 Ecorr_band=  -1432.29585023265     
 End Solvation calculations
RMM:  26    -0.133866919488E+03   -0.12924E-03   -0.35807E-05  2588   0.170E-02    0.116E-02
 Begin Solvation calculations
  rms_SCF =   6.184957398402162E-003 tol =   6.184957398402163E-004
 Begin minimization
 Creating dielectric and ionic cavities
  area:      151.339333927132     
  volume:    676.567843591240     
  Acav:     7.945315031174439E-002
  Solving linear dielectric/ionic screening model
        iter                  A_solv                     rms
   LPB:       -0.489671785678175E+00   0.904964983106307E-01
   LPB:    0  -0.489670231325581E+00   0.865585661413769E-01  -0.307038E-03   0.000000E+00   0.329758E+02  -0.101248E-01
   LPB:    1  -0.489632150932915E+00   0.127304873276935E-01   0.933705E-02   0.000000E+00   0.112091E+03   0.856741E-18
   LPB:    2  -0.489630035179878E+00   0.179222780576232E-02   0.121948E-01   0.425400E-01   0.224819E+03   0.904651E-16
   LPB:    3  -0.489629449755837E+00   0.817761549910987E-03   0.310598E-01   0.108638E+00   0.284085E+03   0.708063E-16
   LPB:    4  -0.489629144565225E+00   0.158407547637242E-02   0.434302E-01   0.372828E+00   0.326457E+03   0.618625E-16
   LPB:    5  -0.489628636302472E+00   0.289768736027787E-02   0.522035E-01   0.138551E+01   0.209165E+03   0.649471E-16
   LPB:    6  -0.489628064066340E+00   0.367061362049836E-02   0.361512E-01   0.162579E+01   0.486318E+02   0.742720E-16
   LPB:    7  -0.489627622394446E+00   0.153263744662761E-02   0.276666E-01   0.100854E+01   0.249816E+03   0.946164E-16
   LPB:    8  -0.489627329696839E+00   0.100590594498734E-02   0.311164E-01   0.589230E+00   0.250184E+03   0.600202E-16
   LPB:    9  -0.489627115868225E+00   0.700994399423406E-03   0.373366E-01   0.608838E+00   0.306448E+03   0.302386E-16
   LPB:   10  -0.489626941850136E+00   0.585689015886320E-03   0.384528E-01   0.790198E+00   0.451763E+03   0.183460E-16
  Finished solving LPB equations
  A_corr:   -0.410173791538392     
 End minimization
 Ecorr=   1431.66565692105     
 A_corr= -0.410173791538392     
 Ecorr_band=  -1432.07583071259     
 End Solvation calculations
RMM:  27    -0.133866962912E+03   -0.43424E-04   -0.16846E-05  2436   0.133E-02    0.136E-02
 Begin Solvation calculations
  rms_SCF =   3.975006876991988E-003 tol =   3.975006876991988E-004
 Begin minimization
 Creating dielectric and ionic cavities
  area:      151.348156037252     
  volume:    676.548349812285     
  Acav:     7.945778191955735E-002
  Solving linear dielectric/ionic screening model
        iter                  A_solv                     rms
   LPB:       -0.489964680565643E+00   0.894608317765847E-01
   LPB:    0  -0.489962140158798E+00   0.808535525823640E-01  -0.392521E-03   0.000000E+00   0.329767E+02  -0.129441E-01
   LPB:    1  -0.489937550261584E+00   0.100181446362457E-01   0.953084E-02   0.000000E+00   0.750080E+02  -0.384328E-18
   LPB:    2  -0.489935778015819E+00   0.268809666090958E-02   0.129476E-01   0.530531E-01   0.155689E+03  -0.177261E-16
   LPB:    3  -0.489935534866645E+00   0.135368566285150E-02   0.185384E-01   0.958220E-01   0.166056E+03   0.201245E-16
   LPB:    4  -0.489935449704019E+00   0.131551331061079E-02   0.277625E-01   0.233877E+00   0.863875E+02   0.251056E-16
   LPB:    5  -0.489935381934396E+00   0.705125751469511E-03   0.282982E-01   0.780705E+00   0.421530E+03   0.348789E-16
   LPB:    6  -0.489935303292245E+00   0.503396700168714E-03   0.446662E-01   0.735190E+00   0.227819E+03   0.359402E-16
   LPB:    7  -0.489935205195469E+00   0.397448683194174E-03   0.524000E-01   0.106328E+01   0.102954E+04   0.356269E-16
  Finished solving LPB equations
  A_corr:   -0.410477423275912     
 End minimization
 Ecorr=   1431.50346300947     
 A_corr= -0.410477423275912     
 Ecorr_band=  -1431.91394043274     
 End Solvation calculations
RMM:  28    -0.133866981226E+03   -0.18314E-04   -0.64806E-06  2327   0.100E-02    0.929E-03
 Begin Solvation calculations
  rms_SCF =   3.645655198845202E-003 tol =   3.645655198845202E-004
 Begin minimization
 Creating dielectric and ionic cavities
  area:      151.361877687737     
  volume:    676.513123671096     
  Acav:     7.946498578606188E-002
  Solving linear dielectric/ionic screening model
        iter                  A_solv                     rms
   LPB:       -0.490293606894752E+00   0.877333143835857E-01
   LPB:    0  -0.490289708828257E+00   0.727466236737249E-01  -0.486211E-03   0.000000E+00   0.329784E+02  -0.160345E-01
   LPB:    1  -0.490260017719776E+00   0.148570309363607E-01   0.952001E-02   0.000000E+00   0.100344E+03   0.869871E-18
   LPB:    2  -0.490258041943053E+00   0.224861200038748E-02   0.127982E-01   0.494994E-01   0.106846E+03   0.383565E-15
   LPB:    3  -0.490257711928322E+00   0.167513855759157E-02   0.203710E-01   0.104938E+00   0.466751E+03   0.404845E-15
   LPB:    4  -0.490257594826819E+00   0.112317472997286E-02   0.228309E-01   0.316605E+00   0.130022E+03   0.407897E-15
   LPB:    5  -0.490257520480442E+00   0.843701433642636E-03   0.288845E-01   0.501829E+00   0.330809E+03   0.400592E-15
   LPB:    6  -0.490257446406512E+00   0.557676542785300E-03   0.395824E-01   0.727056E+00   0.129861E+03   0.392653E-15
   LPB:    7  -0.490257368102927E+00   0.396308920413249E-03   0.469092E-01   0.891991E+00   0.395526E+03   0.382654E-15
   LPB:    8  -0.490257285037720E+00   0.459716087688145E-03   0.474628E-01   0.104844E+01   0.201345E+03   0.368639E-15
   LPB:    9  -0.490257192023350E+00   0.551460805736260E-03   0.458364E-01   0.115951E+01   0.387216E+03   0.353632E-15
   LPB:   10  -0.490257080436301E+00   0.532934166752822E-03   0.452495E-01   0.121523E+01   0.317735E+03   0.338477E-15
   LPB:   11  -0.490256948738312E+00   0.466409454466364E-03   0.476259E-01   0.112134E+01   0.492472E+03   0.319721E-15
   LPB:   12  -0.490256801939533E+00   0.361242375567760E-03   0.485471E-01   0.109351E+01   0.142539E+04   0.296329E-15
  Finished solving LPB equations
  A_corr:   -0.410791816153471     
 End minimization
 Ecorr=   1431.24906371253     
 A_corr= -0.410791816153471     
 Ecorr_band=  -1431.65985552869     
 End Solvation calculations
RMM:  29    -0.133867017023E+03   -0.35796E-04   -0.84862E-06  2389   0.742E-03    0.908E-03
 Begin Solvation calculations
  rms_SCF =   3.410969625176377E-003 tol =   3.410969625176377E-004
 Begin minimization
 Creating dielectric and ionic cavities
  area:      151.362505896913     
  volume:    676.506224401106     
  Acav:     7.946531559587916E-002
  Solving linear dielectric/ionic screening model
        iter                  A_solv                     rms
   LPB:       -0.490157248209688E+00   0.308838905963004E-01
   LPB:    0  -0.490156965927549E+00   0.282798246045214E-01  -0.130840E-03   0.000000E+00   0.329787E+02  -0.431493E-02
   LPB:    1  -0.490144265730028E+00   0.992233080290062E-02   0.146492E-01   0.000000E+00   0.135461E+03   0.197814E-19
   LPB:    2  -0.490143262839475E+00   0.451555184978408E-02   0.152407E-01   0.759018E-01   0.665136E+02   0.321648E-16
   LPB:    3  -0.490142964466914E+00   0.179740854986189E-02   0.168186E-01   0.269601E+00   0.269815E+03   0.809591E-16
   LPB:    4  -0.490142823620673E+00   0.117144114956196E-02   0.252439E-01   0.314499E+00   0.206891E+03   0.935912E-16
   LPB:    5  -0.490142754013868E+00   0.862196286067801E-03   0.250408E-01   0.498212E+00   0.231327E+03   0.104102E-15
   LPB:    6  -0.490142714132538E+00   0.645712943529393E-03   0.260441E-01   0.550880E+00   0.299443E+03   0.108693E-15
   LPB:    7  -0.490142687407945E+00   0.360498642963108E-03   0.306044E-01   0.570251E+00   0.202780E+03   0.104850E-15
   LPB:    8  -0.490142658007758E+00   0.284995592125864E-03   0.447814E-01   0.751841E+00   0.505089E+03   0.985141E-16
  Finished solving LPB equations
  A_corr:   -0.410677342411879     
 End minimization
 Ecorr=   1431.25472822104     
 A_corr= -0.410677342411879     
 Ecorr_band=  -1431.66540556345     
 End Solvation calculations
RMM:  30    -0.133867037553E+03   -0.20531E-04   -0.44721E-06  2340   0.726E-03    0.518E-03
 Begin Solvation calculations
  rms_SCF =   1.766191647251463E-003 tol =   1.766191647251463E-004
 Begin minimization
 Creating dielectric and ionic cavities
  area:      151.365666651650     
  volume:    676.503791346136     
  Acav:     7.946697499211601E-002
  Solving linear dielectric/ionic screening model
        iter                  A_solv                     rms
   LPB:       -0.490226893223620E+00   0.398700183478820E-01
   LPB:    0  -0.490225684973360E+00   0.296951716065924E-01  -0.270692E-03   0.000000E+00   0.329788E+02  -0.892711E-02
   LPB:    1  -0.490219364614075E+00   0.918427487297579E-02   0.993134E-02   0.000000E+00   0.105305E+03   0.682878E-18
   LPB:    2  -0.490218833367074E+00   0.161574990121171E-02   0.133655E-01   0.624564E-01   0.726773E+02   0.133599E-15
   LPB:    3  -0.490218731309997E+00   0.109409666693935E-02   0.198760E-01   0.129183E+00   0.248072E+03   0.129027E-15
   LPB:    4  -0.490218695021468E+00   0.456940744960847E-03   0.204955E-01   0.344823E+00   0.143242E+03   0.126940E-15
   LPB:    5  -0.490218674771636E+00   0.334668541377758E-03   0.301902E-01   0.378830E+00   0.509148E+03   0.128317E-15
   LPB:    6  -0.490218653370001E+00   0.291556926494733E-03   0.437702E-01   0.728975E+00   0.181185E+03   0.124611E-15
   LPB:    7  -0.490218624110293E+00   0.243596895019287E-03   0.503070E-01   0.118953E+01   0.246746E+03   0.121399E-15
   LPB:    8  -0.490218587645543E+00   0.328907466790589E-03   0.499291E-01   0.125568E+01   0.200096E+03   0.117274E-15
   LPB:    9  -0.490218548423960E+00   0.295302864264332E-03   0.455061E-01   0.118015E+01   0.361992E+03   0.112421E-15
   LPB:   10  -0.490218503212371E+00   0.334777100103395E-03   0.462107E-01   0.113515E+01   0.510838E+03   0.105919E-15
   LPB:   11  -0.490218444576330E+00   0.364676240405913E-03   0.495645E-01   0.120917E+01   0.302510E+03   0.983290E-16
   LPB:   12  -0.490218373307925E+00   0.272086398573345E-03   0.490762E-01   0.122753E+01   0.714590E+03   0.893189E-16
   LPB:   13  -0.490218301456001E+00   0.260546152901433E-03   0.453684E-01   0.109058E+01   0.963358E+03   0.788997E-16
   LPB:   14  -0.490218235546528E+00   0.270465904965980E-03   0.442644E-01   0.940173E+00   0.165973E+04   0.684097E-16
   LPB:   15  -0.490218178019827E+00   0.241116052443104E-03   0.422087E-01   0.915323E+00   0.222880E+04   0.583295E-16
   LPB:   16  -0.490218128050799E+00   0.242273835876149E-03   0.427563E-01   0.857498E+00   0.137835E+04   0.498696E-16
   LPB:   17  -0.490218087769435E+00   0.208370490686807E-03   0.397098E-01   0.867973E+00   0.849027E+03   0.423400E-16
   LPB:   18  -0.490218056588825E+00   0.169405413308063E-03   0.394914E-01   0.778351E+00   0.718791E+03   0.366579E-16
  Finished solving LPB equations
  A_corr:   -0.410751081596709     
 End minimization
 Ecorr=   1431.19095479124     
 A_corr= -0.410751081596709     
 Ecorr_band=  -1431.60170587284     
 End Solvation calculations
RMM:  31    -0.133867047775E+03   -0.10222E-04   -0.29563E-06  2316   0.526E-03    0.299E-03
 Begin Solvation calculations
  rms_SCF =   1.766191647251463E-003 tol =   1.766191647251463E-004
 Begin minimization
 Creating dielectric and ionic cavities
  area:      151.370426334767     
  volume:    676.503090065933     
  Acav:     7.946947382575256E-002
  Solving linear dielectric/ionic screening model
        iter                  A_solv                     rms
   LPB:       -0.490384597248453E+00   0.460117105188735E-01
   LPB:    0  -0.490383019660265E+00   0.333555974283786E-01  -0.309310E-03   0.000000E+00   0.329789E+02  -0.102007E-01
   LPB:    1  -0.490376695253561E+00   0.701615436545511E-02   0.998688E-02   0.000000E+00   0.776650E+02  -0.768434E-18
   LPB:    2  -0.490376302576729E+00   0.146562057019650E-02   0.128497E-01   0.482561E-01   0.859158E+02  -0.339619E-16
   LPB:    3  -0.490376238258457E+00   0.103909052858504E-02   0.177507E-01   0.118570E+00   0.366334E+03  -0.398622E-16
   LPB:    4  -0.490376208266681E+00   0.329103748841486E-03   0.223000E-01   0.371176E+00   0.101331E+03  -0.412823E-16
   LPB:    5  -0.490376190938964E+00   0.203987800869229E-03   0.317736E-01   0.405487E+00   0.302883E+03  -0.414848E-16
   LPB:    6  -0.490376177823928E+00   0.188401024762578E-03   0.382926E-01   0.628028E+00   0.174495E+03  -0.418702E-16
   LPB:    7  -0.490376166451610E+00   0.142029760188832E-03   0.413275E-01   0.803444E+00   0.154283E+03  -0.429451E-16
  Finished solving LPB equations
  A_corr:   -0.410906692625858     
 End minimization
 Ecorr=   1431.05518090982     
 A_corr= -0.410906692625858     
 Ecorr_band=  -1431.46608760245     
 End Solvation calculations
RMM:  32    -0.133867054450E+03   -0.66749E-05   -0.21069E-06  2304   0.460E-03
 Begin Solvation calculations
  rms_SCF =   1.766191647251463E-003 tol =   1.766191647251463E-004
 Begin minimization
 Creating dielectric and ionic cavities
  area:      151.372131092432     
  volume:    676.501048413866     
  Acav:     7.947036882352672E-002
  Solving linear dielectric/ionic screening model
        iter                  A_solv                     rms
   LPB:       -0.490380882977671E+00   0.334403651573212E-01
   LPB:    0  -0.490380747487727E+00   0.317917402771453E-01  -0.906463E-04   0.000000E+00   0.329789E+02  -0.298942E-02
   LPB:    1  -0.490375203274823E+00   0.554012306553459E-02   0.122660E-01   0.000000E+00   0.679108E+02  -0.880044E-19
   LPB:    2  -0.490374732516163E+00   0.220938762459495E-02   0.123160E-01   0.845651E-01   0.251867E+03   0.274390E-16
   LPB:    3  -0.490374636289177E+00   0.985160796644098E-03   0.180301E-01   0.139627E+00   0.106715E+03   0.374028E-16
   LPB:    4  -0.490374610725936E+00   0.561369072279706E-03   0.203343E-01   0.235553E+00   0.166596E+03   0.395589E-16
   LPB:    5  -0.490374597559470E+00   0.285066902041219E-03   0.244396E-01   0.428538E+00   0.257573E+03   0.386446E-16
   LPB:    6  -0.490374588756710E+00   0.153407533234188E-03   0.332573E-01   0.491311E+00   0.189505E+03   0.349281E-16
  Finished solving LPB equations
  A_corr:   -0.410904219933183     
 End minimization
 Ecorr=   1431.00918428187     
 A_corr= -0.410904219933183     
 Ecorr_band=  -1431.42008850180     
 End Solvation calculations
   1 F= -.13386705E+03 E0= -.13386284E+03  d E =-.133867E+03
quench:  g(F)=  0.000E+00 g(S)=  0.000E+00 dE (1.order)= 0.000E+00
 bond charge predicted
       N       E                     dE             d eps       ncg     rms          rms(c)
 Begin Solvation calculations
  rms_SCF =   1.766191647251463E-003 tol =   1.766191647251463E-004
 Begin minimization
 Creating dielectric and ionic cavities
  area:      151.419334103655     
  volume:    676.491161636942     
  Acav:     7.949515040441894E-002
  Solving linear dielectric/ionic screening model
        iter                  A_solv                     rms
   LPB:       -0.491483410603386E+00   0.280338265135403E-02
   LPB:    0  -0.491483410579972E+00   0.281617432536936E-02  -0.119160E-05   0.000000E+00   0.329794E+02  -0.392982E-04
   LPB:    1  -0.490851729128908E+00   0.115872801743362E-02   0.153984E-01   0.000000E+00   0.646657E+06   0.300306E-20
   LPB:    2  -0.490796889484152E+00   0.122860019030361E-02   0.264410E-01   0.505584E-01   0.106972E+06   0.236341E-17
   LPB:    3  -0.490780606068501E+00   0.251023447252052E-02   0.320334E-01   0.245090E+00   0.248101E+05   0.220304E-18
   LPB:    4  -0.490773880518406E+00   0.691812928980698E-02   0.343187E-01   0.385527E+00   0.242970E+04  -0.374520E-18
   LPB:    5  -0.490771171375623E+00   0.113086433474766E-01   0.258246E-01   0.535306E+00   0.234474E+03   0.949262E-18
   LPB:    6  -0.490769400226789E+00   0.423264411383854E-02   0.194907E-01   0.866221E+00   0.231118E+03  -0.934010E-17
   LPB:    7  -0.490767945910706E+00   0.191283635935077E-02   0.343105E-01   0.466449E+00   0.132141E+04  -0.233011E-16
   LPB:    8  -0.490767123895983E+00   0.312493935900124E-02   0.344401E-01   0.563097E+00   0.429641E+03  -0.359861E-16
   LPB:    9  -0.490766677890851E+00   0.316731734864564E-02   0.265167E-01   0.704701E+00   0.206690E+03  -0.260819E-16
   LPB:   10  -0.490766313553219E+00   0.113340687734299E-02   0.281759E-01   0.768786E+00   0.243527E+03  -0.461664E-16
   LPB:   11  -0.490766046321851E+00   0.454815000124222E-03   0.381035E-01   0.542371E+00   0.247376E+04  -0.934073E-17
   LPB:   12  -0.490765872858893E+00   0.415413178196026E-03   0.393505E-01   0.628542E+00   0.162431E+04   0.294984E-16
   LPB:   13  -0.490765762808512E+00   0.470390984048751E-03   0.365930E-01   0.682239E+00   0.170294E+04   0.571221E-16
   LPB:   14  -0.490765688170921E+00   0.391363090286242E-03   0.348663E-01   0.711801E+00   0.103453E+04   0.741478E-16
   LPB:   15  -0.490765633051359E+00   0.242367983418413E-03   0.359868E-01   0.715502E+00   0.165727E+04   0.864753E-16
   LPB:   16  -0.490765591659859E+00   0.168461347339061E-03   0.393336E-01   0.687044E+00   0.191710E+04   0.957608E-16
  Finished solving LPB equations
  A_corr:   -0.411270441255440     
 End minimization
 Ecorr=   1430.95790274844     
 A_corr= -0.411270441255440     
 Ecorr_band=  -1431.36917318970     
 End Solvation calculations
DAV:   1    -0.133869977411E+03   -0.29296E-02   -0.46729E-02  4176   0.373E-01    0.623E-02
 Begin Solvation calculations
  rms_SCF =   1.766191647251463E-003 tol =   1.766191647251463E-004
 Begin minimization
 Creating dielectric and ionic cavities
  area:      151.373959449059     
  volume:    676.464854082066     
  Acav:     7.947132871075595E-002
  Solving linear dielectric/ionic screening model
        iter                  A_solv                     rms
   LPB:       -0.491515903832433E+00   0.146621385663956E+00
   LPB:    0  -0.491507729134275E+00   0.134114274180857E+00  -0.704079E-03   0.000000E+00   0.329806E+02  -0.232210E-01
   LPB:    1  -0.491422988342200E+00   0.246266705341263E-01   0.105487E-01   0.000000E+00   0.812123E+02  -0.120469E-17
   LPB:    2  -0.491411620444348E+00   0.440952027008526E-02   0.137772E-01   0.102713E+00   0.291482E+03  -0.457372E-16
   LPB:    3  -0.491408897308989E+00   0.422899372544428E-02   0.254261E-01   0.129798E+00   0.695552E+03   0.133241E-16
   LPB:    4  -0.491408066207170E+00   0.359746297464728E-02   0.225569E-01   0.344021E+00   0.155182E+03   0.377349E-16
   LPB:    5  -0.491407614512042E+00   0.181736796996957E-02   0.241467E-01   0.507707E+00   0.296081E+03   0.662503E-16
   LPB:    6  -0.491407360103994E+00   0.837891420214236E-03   0.304997E-01   0.445909E+00   0.263406E+03   0.615773E-16
   LPB:    7  -0.491407216984189E+00   0.475131006933263E-03   0.324284E-01   0.529102E+00   0.847662E+03   0.767231E-16
   LPB:    8  -0.491407129379521E+00   0.283058956264293E-03   0.346022E-01   0.573653E+00   0.712595E+03   0.890969E-16
   LPB:    9  -0.491407073113029E+00   0.201241265899718E-03   0.369602E-01   0.601301E+00   0.939130E+03   0.985035E-16
   LPB:   10  -0.491407037293901E+00   0.178972714314538E-03   0.374634E-01   0.628047E+00   0.101111E+04   0.104884E-15
   LPB:   11  -0.491407013611680E+00   0.180326391337558E-03   0.373551E-01   0.663079E+00   0.101876E+04   0.109029E-15
   LPB:   12  -0.491406997161008E+00   0.168447374651680E-03   0.365517E-01   0.709911E+00   0.904414E+03   0.111807E-15
  Finished solving LPB equations
  A_corr:   -0.411935668450252     
 End minimization
 Ecorr=   1430.81074352534     
 A_corr= -0.411935668450252     
 Ecorr_band=  -1431.22267919379     
 End Solvation calculations
RMM:   2    -0.133870261644E+03   -0.28423E-03   -0.32743E-03  5401   0.112E-01    0.954E-02
 Begin Solvation calculations
  rms_SCF =   1.766191647251463E-003 tol =   1.766191647251463E-004
 Begin minimization
 Creating dielectric and ionic cavities
  area:      151.371587789603     
  volume:    676.463270160082     
  Acav:     7.947008358954147E-002
  Solving linear dielectric/ionic screening model
        iter                  A_solv                     rms
   LPB:       -0.491565601137174E+00   0.494551438435468E-01
   LPB:    0  -0.491565191257560E+00   0.479318794519993E-01  -0.157657E-03   0.000000E+00   0.329807E+02  -0.519964E-02
   LPB:    1  -0.491557786009350E+00   0.573213740599409E-02   0.916993E-02   0.000000E+00   0.758452E+02   0.187658E-18
   LPB:    2  -0.491556719426369E+00   0.845341727037705E-03   0.181047E-01   0.729508E-01   0.135544E+03   0.777749E-17
   LPB:    3  -0.491556571657466E+00   0.564495922811483E-03   0.256292E-01   0.978686E-01   0.415058E+03   0.469051E-17
   LPB:    4  -0.491556517985930E+00   0.615827939117310E-03   0.263345E-01   0.353486E+00   0.339340E+03   0.348507E-17
   LPB:    5  -0.491556491192958E+00   0.682820003642724E-03   0.271063E-01   0.484989E+00   0.239583E+03   0.443121E-17
   LPB:    6  -0.491556474646850E+00   0.430430136414121E-03   0.265923E-01   0.629490E+00   0.138453E+03   0.326469E-17
   LPB:    7  -0.491556461801127E+00   0.205675549644115E-03   0.334652E-01   0.616916E+00   0.376056E+03  -0.326081E-17
   LPB:    8  -0.491556451300724E+00   0.107634493379244E-03   0.394014E-01   0.694271E+00   0.603977E+03  -0.121897E-16
  Finished solving LPB equations
  A_corr:   -0.412086367711182     
 End minimization
 Ecorr=   1430.79221258716     
 A_corr= -0.412086367711182     
 Ecorr_band=  -1431.20429895487     
 End Solvation calculations
RMM:   3    -0.133870265634E+03   -0.39895E-05   -0.33637E-04  4143   0.407E-02    0.141E-01
 Begin Solvation calculations
  rms_SCF =   1.766191647251463E-003 tol =   1.766191647251463E-004
 Begin minimization
 Creating dielectric and ionic cavities
  area:      151.372912954906     
  volume:    676.465248983499     
  Acav:     7.947077930132555E-002
  Solving linear dielectric/ionic screening model
        iter                  A_solv                     rms
   LPB:       -0.491782411507172E+00   0.300098978594467E-01
   LPB:    0  -0.491781855484020E+00   0.253273453599149E-01  -0.183625E-03   0.000000E+00   0.329806E+02  -0.605607E-02
   LPB:    1  -0.491777659458553E+00   0.701346228709319E-02   0.114745E-01   0.000000E+00   0.896052E+02   0.325382E-18
   LPB:    2  -0.491777127495000E+00   0.111575910006433E-02   0.128594E-01   0.113124E+00   0.191425E+03  -0.218677E-16
   LPB:    3  -0.491777002995296E+00   0.913499235262747E-03   0.230808E-01   0.130394E+00   0.492835E+03  -0.265475E-16
   LPB:    4  -0.491776967113327E+00   0.741985392124714E-03   0.219207E-01   0.303462E+00   0.130952E+03  -0.278799E-16
   LPB:    5  -0.491776947842284E+00   0.425235667529528E-03   0.244281E-01   0.481941E+00   0.307032E+03  -0.296242E-16
   LPB:    6  -0.491776934744681E+00   0.187853920888061E-03   0.338215E-01   0.490888E+00   0.170021E+03  -0.299852E-16
   LPB:    7  -0.491776925146626E+00   0.122645299262003E-03   0.366710E-01   0.675867E+00   0.523544E+03  -0.262924E-16
  Finished solving LPB equations
  A_corr:   -0.412306145845300     
 End minimization
 Ecorr=   1430.73474656413     
 A_corr= -0.412306145845300     
 Ecorr_band=  -1431.14705270997     
 End Solvation calculations
RMM:   4    -0.133870157840E+03    0.10779E-03   -0.11589E-04  3091   0.267E-02    0.297E-02
 Begin Solvation calculations
  rms_SCF =   1.766191647251463E-003 tol =   1.766191647251463E-004
 Begin minimization
 Creating dielectric and ionic cavities
  area:      151.369549497613     
  volume:    676.464023604431     
  Acav:     7.946901348624669E-002
  Solving linear dielectric/ionic screening model
        iter                  A_solv                     rms
   LPB:       -0.492720231629290E+00   0.114281034636613E+00
   LPB:    0  -0.492709912797339E+00   0.923523983125362E-01  -0.791044E-03   0.000000E+00   0.329807E+02  -0.260892E-01
   LPB:    1  -0.492644707261724E+00   0.293719976284542E-01   0.120034E-01   0.000000E+00   0.941901E+02  -0.827826E-19
   LPB:    2  -0.492636478149908E+00   0.478814393827918E-02   0.127136E-01   0.119153E+00   0.175919E+03   0.126504E-15
   LPB:    3  -0.492634361811860E+00   0.363353932931736E-02   0.229130E-01   0.142698E+00   0.476331E+03   0.143928E-15
   LPB:    4  -0.492633739758104E+00   0.316208728210624E-02   0.223043E-01   0.301951E+00   0.136839E+03   0.151721E-15
   LPB:    5  -0.492633417344399E+00   0.174627785667659E-02   0.235331E-01   0.491242E+00   0.289501E+03   0.168272E-15
   LPB:    6  -0.492633232730128E+00   0.658893434268393E-03   0.306576E-01   0.439534E+00   0.177715E+03   0.179213E-15
   LPB:    7  -0.492633129299051E+00   0.396660329210406E-03   0.324456E-01   0.529380E+00   0.663662E+03   0.176433E-15
   LPB:    8  -0.492633065410619E+00   0.242226655881242E-03   0.347099E-01   0.577395E+00   0.410277E+03   0.173902E-15
   LPB:    9  -0.492633024582939E+00   0.202911758087013E-03   0.368416E-01   0.602071E+00   0.544066E+03   0.172175E-15
   LPB:   10  -0.492632998247542E+00   0.174711981022683E-03   0.369977E-01   0.642316E+00   0.463851E+03   0.170798E-15
  Finished solving LPB equations
  A_corr:   -0.413163984761296     
 End minimization
 Ecorr=   1430.51368639510     
 A_corr= -0.413163984761296     
 Ecorr_band=  -1430.92685037986     
 End Solvation calculations
RMM:   5    -0.133870151497E+03    0.63429E-05   -0.48356E-05  2756   0.251E-02
 Begin Solvation calculations
  rms_SCF =   1.766191647251463E-003 tol =   1.766191647251463E-004
 Begin minimization
 Creating dielectric and ionic cavities
  area:      151.370587761493     
  volume:    676.465671341707     
  Acav:     7.946955857478381E-002
  Solving linear dielectric/ionic screening model
        iter                  A_solv                     rms
   LPB:       -0.493159850733516E+00   0.542266787913185E-01
   LPB:    0  -0.493156445853497E+00   0.376850409115135E-01  -0.454398E-03   0.000000E+00   0.329806E+02  -0.149863E-01
   LPB:    1  -0.493142586070468E+00   0.123596303636058E-01   0.136954E-01   0.000000E+00   0.813427E+02   0.512078E-18
   LPB:    2  -0.493140475917234E+00   0.468036478872744E-02   0.129112E-01   0.161497E+00   0.228040E+03   0.930280E-16
   LPB:    3  -0.493139983250196E+00   0.284342725458519E-02   0.210451E-01   0.143237E+00   0.127888E+03   0.121358E-15
   LPB:    4  -0.493139820545695E+00   0.139320302386238E-02   0.209009E-01   0.332531E+00   0.111549E+03   0.124832E-15
   LPB:    5  -0.493139738719696E+00   0.667254059631487E-03   0.235898E-01   0.445586E+00   0.449569E+03   0.118626E-15
   LPB:    6  -0.493139691807202E+00   0.278448449404996E-03   0.330668E-01   0.409007E+00   0.187259E+03   0.118111E-15
   LPB:    7  -0.493139660741327E+00   0.232958528916826E-03   0.375657E-01   0.582902E+00   0.349300E+03   0.118966E-15
   LPB:    8  -0.493139637579202E+00   0.190182680009155E-03   0.373128E-01   0.750635E+00   0.236788E+03   0.119858E-15
   LPB:    9  -0.493139620160349E+00   0.154059859989048E-03   0.380279E-01   0.737899E+00   0.275888E+03   0.121517E-15
  Finished solving LPB equations
  A_corr:   -0.413670061585565     
 End minimization
 Ecorr=   1430.37728590499     
 A_corr= -0.413670061585565     
 Ecorr_band=  -1430.79095596658     
 End Solvation calculations
   2 F= -.13387015E+03 E0= -.13386594E+03  d E =-.309705E-02
quench:  g(F)=  0.000E+00 g(S)=  0.000E+00 dE (1.order)= 0.000E+00
 bond charge predicted
       N       E                     dE             d eps       ncg     rms          rms(c)
 Begin Solvation calculations
  rms_SCF =   1.766191647251463E-003 tol =   1.766191647251463E-004
 Begin minimization
 Creating dielectric and ionic cavities
  area:      151.482470209062     
  volume:    676.437169094809     
  Acav:     7.952829685975746E-002
  Solving linear dielectric/ionic screening model
        iter                  A_solv                     rms
   LPB:       -0.496377680520726E+00   0.520380194845672E-02
   LPB:    0  -0.496377680339377E+00   0.524914855048945E-02  -0.331615E-05   0.000000E+00   0.329819E+02  -0.109373E-03
   LPB:    1  -0.494323580661316E+00   0.228848351109611E-02   0.153402E-01   0.000000E+00   0.590607E+06   0.347654E-21
   LPB:    2  -0.494154483872132E+00   0.263801253411062E-02   0.262999E-01   0.480164E-01   0.854208E+05   0.118599E-17
   LPB:    3  -0.494104378363507E+00   0.562773873197091E-02   0.320098E-01   0.243456E+00   0.176369E+05   0.191974E-17
   LPB:    4  -0.494083752442499E+00   0.151508482976650E-01   0.338104E-01   0.389728E+00   0.153806E+04   0.324636E-17
   LPB:    5  -0.494075624026214E+00   0.197763812958199E-01   0.230915E-01   0.577019E+00   0.193207E+03   0.539355E-17
   LPB:    6  -0.494069451988007E+00   0.610693349956560E-02   0.212281E-01   0.825970E+00   0.295191E+03   0.604455E-17
   LPB:    7  -0.494064785367820E+00   0.329363331656340E-02   0.359342E-01   0.446659E+00   0.178256E+04   0.936579E-18
   LPB:    8  -0.494062177231337E+00   0.561653290187962E-02   0.344694E-01   0.582642E+00   0.411438E+03  -0.214232E-17
   LPB:    9  -0.494060771723130E+00   0.555081139584418E-02   0.261909E-01   0.709229E+00   0.208664E+03  -0.127044E-16
   LPB:   10  -0.494059624434071E+00   0.198088909778872E-02   0.284017E-01   0.752741E+00   0.241967E+03  -0.224562E-16
   LPB:   11  -0.494058792113892E+00   0.815322794155654E-03   0.380248E-01   0.541870E+00   0.233800E+04  -0.507366E-16
   LPB:   12  -0.494058249998608E+00   0.720437276982777E-03   0.395853E-01   0.625654E+00   0.147366E+04  -0.597301E-16
   LPB:   13  -0.494057907244627E+00   0.777852352242653E-03   0.369695E-01   0.676989E+00   0.161222E+04  -0.723020E-16
   LPB:   14  -0.494057676459820E+00   0.654731457949012E-03   0.357514E-01   0.696266E+00   0.103574E+04  -0.815481E-16
   LPB:   15  -0.494057511403331E+00   0.411979229456626E-03   0.362405E-01   0.705545E+00   0.151796E+04  -0.865991E-16
   LPB:   16  -0.494057388158970E+00   0.261857624555748E-03   0.394627E-01   0.685712E+00   0.193560E+04  -0.913214E-16
   LPB:   17  -0.494057303084892E+00   0.307676124558687E-03   0.407311E-01   0.668792E+00   0.256062E+04  -0.959434E-16
   LPB:   18  -0.494057238643874E+00   0.369512413326630E-03   0.390510E-01   0.790058E+00   0.137457E+04  -0.990737E-16
   LPB:   19  -0.494057192499442E+00   0.324383916873316E-03   0.355017E-01   0.787664E+00   0.131941E+04  -0.102103E-15
   LPB:   20  -0.494057156359360E+00   0.192940567774216E-03   0.365735E-01   0.760241E+00   0.153594E+04  -0.104323E-15
   LPB:   21  -0.494057126582723E+00   0.114879764067203E-03   0.419830E-01   0.717761E+00   0.310847E+04  -0.106219E-15
  Finished solving LPB equations
  A_corr:   -0.414528829722965     
 End minimization
 Ecorr=   1430.27604523109     
 A_corr= -0.414528829722965     
 Ecorr_band=  -1430.69057406081     
 End Solvation calculations
DAV:   1    -0.133873383150E+03   -0.32253E-02   -0.14811E-01  4176   0.731E-01    0.104E-01
 Begin Solvation calculations
  rms_SCF =   1.766191647251463E-003 tol =   1.766191647251463E-004
 Begin minimization
 Creating dielectric and ionic cavities
  area:      151.388065615894     
  volume:    676.402672447731     
  Acav:     7.947873444834458E-002
  Solving linear dielectric/ionic screening model
        iter                  A_solv                     rms
   LPB:       -0.495917795639814E+00   0.197604364457760E+00
   LPB:    0  -0.495884216697599E+00   0.157950234619119E+00  -0.142692E-02   0.000000E+00   0.329836E+02  -0.470649E-01
   LPB:    1  -0.495680218870059E+00   0.550428073749723E-01   0.122265E-01   0.000000E+00   0.976058E+02  -0.346299E-17
   LPB:    2  -0.495650889492610E+00   0.947307295890960E-02   0.131525E-01   0.133650E+00   0.174989E+03   0.479168E-16
   LPB:    3  -0.495642247815335E+00   0.714526567439311E-02   0.238048E-01   0.162795E+00   0.505033E+03   0.712189E-16
   LPB:    4  -0.495639564786306E+00   0.681582734471942E-02   0.230389E-01   0.320797E+00   0.156241E+03   0.854150E-16
   LPB:    5  -0.495638167974825E+00   0.357150418247898E-02   0.230478E-01   0.520409E+00   0.253526E+03   0.994748E-16
   LPB:    6  -0.495637368553540E+00   0.136539897949353E-02   0.309702E-01   0.425915E+00   0.220456E+03   0.107875E-15
   LPB:    7  -0.495636942668698E+00   0.784236229588279E-03   0.325331E-01   0.507149E+00   0.897862E+03   0.918290E-16
   LPB:    8  -0.495636692453549E+00   0.497961759065786E-03   0.338081E-01   0.565362E+00   0.626990E+03   0.932895E-16
   LPB:    9  -0.495636536816850E+00   0.376535639059697E-03   0.358545E-01   0.586510E+00   0.832328E+03   0.907722E-16
   LPB:   10  -0.495636440813072E+00   0.304043192307161E-03   0.364672E-01   0.606481E+00   0.800748E+03   0.901261E-16
   LPB:   11  -0.495636380093927E+00   0.278083678196966E-03   0.364989E-01   0.631916E+00   0.864473E+03   0.902651E-16
   LPB:   12  -0.495636340685207E+00   0.251616479520416E-03   0.355734E-01   0.665920E+00   0.811306E+03   0.903056E-16
   LPB:   13  -0.495636313509888E+00   0.203584475910693E-03   0.358521E-01   0.684214E+00   0.942060E+03   0.899727E-16
   LPB:   14  -0.495636294477918E+00   0.150419843618235E-03   0.365017E-01   0.687877E+00   0.865201E+03   0.899390E-16
  Finished solving LPB equations
  A_corr:   -0.416157560029574     
 End minimization
 Ecorr=   1429.93514424659     
 A_corr= -0.416157560029574     
 Ecorr_band=  -1430.35130180662     
 End Solvation calculations
RMM:   2    -0.133874187035E+03   -0.80388E-03   -0.10291E-02  5810   0.202E-01    0.878E-02
 Begin Solvation calculations
  rms_SCF =   1.766191647251463E-003 tol =   1.766191647251463E-004
 Begin minimization
 Creating dielectric and ionic cavities
  area:      151.388339741616     
  volume:    676.407695471906     
  Acav:     7.947887836434829E-002
  Solving linear dielectric/ionic screening model
        iter                  A_solv                     rms
   LPB:       -0.496307954213190E+00   0.572399923092214E-01
   LPB:    0  -0.496303187727971E+00   0.365201890276389E-01  -0.537609E-03   0.000000E+00   0.329833E+02  -0.177321E-01
   LPB:    1  -0.496280733760156E+00   0.115860692776735E-01   0.155306E-01   0.000000E+00   0.106877E+03   0.471831E-18
   LPB:    2  -0.496278349297934E+00   0.695034729952187E-02   0.134248E-01   0.122851E+00   0.257801E+03   0.467225E-17
   LPB:    3  -0.496277552013031E+00   0.337567696453817E-02   0.195812E-01   0.229241E+00   0.112238E+03   0.151897E-17
   LPB:    4  -0.496277265171235E+00   0.210585921439528E-02   0.232528E-01   0.302965E+00   0.142948E+03   0.151034E-16
   LPB:    5  -0.496277126573408E+00   0.119946263245651E-02   0.222581E-01   0.504779E+00   0.323217E+03   0.247570E-16
   LPB:    6  -0.496277036228496E+00   0.466641513134252E-03   0.304203E-01   0.476950E+00   0.158703E+03   0.407756E-16
   LPB:    7  -0.496276982804208E+00   0.327277229241920E-03   0.344667E-01   0.521913E+00   0.602553E+03   0.495797E-16
   LPB:    8  -0.496276948710017E+00   0.248154592188214E-03   0.353671E-01   0.621932E+00   0.330822E+03   0.575212E-16
   LPB:    9  -0.496276923370593E+00   0.192344699361855E-03   0.378803E-01   0.693909E+00   0.464827E+03   0.638022E-16
   LPB:   10  -0.496276904399862E+00   0.161463283487238E-03   0.381209E-01   0.743940E+00   0.436610E+03   0.684474E-16
  Finished solving LPB equations
  A_corr:   -0.416798026035514     
 End minimization
 Ecorr=   1429.79582577057     
 A_corr= -0.416798026035514     
 Ecorr_band=  -1430.21262379661     
 End Solvation calculations
RMM:   3    -0.133874015852E+03    0.17118E-03   -0.65459E-04  5661   0.496E-02    0.104E-01
 Begin Solvation calculations
  rms_SCF =   1.766191647251463E-003 tol =   1.766191647251463E-004
 Begin minimization
 Creating dielectric and ionic cavities
  area:      151.390108556195     
  volume:    676.410262930321     
  Acav:     7.947980699200237E-002
  Solving linear dielectric/ionic screening model
        iter                  A_solv                     rms
   LPB:       -0.496566802705569E+00   0.447008663649172E-01
   LPB:    0  -0.496566051170231E+00   0.405986124840314E-01  -0.213473E-03   0.000000E+00   0.329832E+02  -0.704103E-02
   LPB:    1  -0.496558164041906E+00   0.799942554910007E-02   0.102087E-01   0.000000E+00   0.868606E+02  -0.323284E-18
   LPB:    2  -0.496557214618278E+00   0.112522142174531E-02   0.135502E-01   0.906910E-01   0.192995E+03  -0.612958E-16
   LPB:    3  -0.496557039974835E+00   0.102137713965229E-02   0.243205E-01   0.102486E+00   0.480388E+03  -0.657925E-16
   LPB:    4  -0.496556989515450E+00   0.843151483800468E-03   0.228813E-01   0.307102E+00   0.124385E+03  -0.672496E-16
   LPB:    5  -0.496556964376965E+00   0.500442342148820E-03   0.234776E-01   0.485540E+00   0.331166E+03  -0.666057E-16
   LPB:    6  -0.496556949125347E+00   0.216695076906125E-03   0.313137E-01   0.454878E+00   0.148111E+03  -0.688288E-16
   LPB:    7  -0.496556936805688E+00   0.150422029894825E-03   0.381459E-01   0.663086E+00   0.373236E+03  -0.727494E-16
  Finished solving LPB equations
  A_corr:   -0.417077129813686     
 End minimization
 Ecorr=   1429.72026031749     
 A_corr= -0.417077129813686     
 Ecorr_band=  -1430.13733744730     
 End Solvation calculations
RMM:   4    -0.133874000631E+03    0.15221E-04   -0.21737E-04  3603   0.318E-02    0.950E-02
 Begin Solvation calculations
  rms_SCF =   1.766191647251463E-003 tol =   1.766191647251463E-004
 Begin minimization
 Creating dielectric and ionic cavities
  area:      151.393062719251     
  volume:    676.414777301447     
  Acav:     7.948135792760683E-002
  Solving linear dielectric/ionic screening model
        iter                  A_solv                     rms
   LPB:       -0.498843989889782E+00   0.179400800360385E+00
   LPB:    0  -0.498798884982045E+00   0.113521394318594E+00  -0.165380E-02   0.000000E+00   0.329830E+02  -0.545471E-01
   LPB:    1  -0.498584461676287E+00   0.506548163596205E-01   0.146954E-01   0.000000E+00   0.114414E+03  -0.477171E-18
   LPB:    2  -0.498563371087470E+00   0.146400842680729E-01   0.135636E-01   0.106567E+00   0.109520E+03   0.410676E-15
   LPB:    3  -0.498556354149308E+00   0.676707255335877E-02   0.193638E-01   0.233048E+00   0.328933E+03   0.498535E-15
   LPB:    4  -0.498553987299686E+00   0.658983294853062E-02   0.224661E-01   0.290727E+00   0.142562E+03   0.532874E-15
   LPB:    5  -0.498552833613221E+00   0.382008902867220E-02   0.218381E-01   0.501451E+00   0.257294E+03   0.548768E-15
   LPB:    6  -0.498552142052010E+00   0.123633723396871E-02   0.304378E-01   0.430076E+00   0.148088E+03   0.551319E-15
   LPB:    7  -0.498551768772067E+00   0.782143829539865E-03   0.328744E-01   0.499758E+00   0.526772E+03   0.550056E-15
   LPB:    8  -0.498551546019004E+00   0.501188566459065E-03   0.339271E-01   0.578229E+00   0.321049E+03   0.548790E-15
   LPB:    9  -0.498551405527617E+00   0.403438413491453E-03   0.359649E-01   0.594969E+00   0.396630E+03   0.548133E-15
   LPB:   10  -0.498551316294523E+00   0.340522308609133E-03   0.362026E-01   0.630980E+00   0.339478E+03   0.547667E-15
   LPB:   11  -0.498551258366652E+00   0.301302678059031E-03   0.357035E-01   0.658249E+00   0.421465E+03   0.548289E-15
   LPB:   12  -0.498551219756187E+00   0.231163809757396E-03   0.353819E-01   0.672585E+00   0.351881E+03   0.548694E-15
   LPB:   13  -0.498551192931294E+00   0.179400321129205E-03   0.366881E-01   0.670022E+00   0.500895E+03   0.548751E-15
   LPB:   14  -0.498551174868101E+00   0.130312238262106E-03   0.366603E-01   0.673884E+00   0.442792E+03   0.549094E-15
  Finished solving LPB equations
  A_corr:   -0.419069816940494     
 End minimization
 Ecorr=   1429.21470623814     
 A_corr= -0.419069816940494     
 Ecorr_band=  -1429.63377605508     
 End Solvation calculations
RMM:   5    -0.133873908285E+03    0.92347E-04   -0.90858E-05  3023   0.270E-02    0.185E-02
 Begin Solvation calculations
  rms_SCF =   1.766191647251463E-003 tol =   1.766191647251463E-004
 Begin minimization
 Creating dielectric and ionic cavities
  area:      151.412516367611     
  volume:    676.431751212304     
  Acav:     7.949157109299579E-002
  Solving linear dielectric/ionic screening model
        iter                  A_solv                     rms
   LPB:       -0.500028490493316E+00   0.137509814231090E+00
   LPB:    0  -0.500008324464008E+00   0.990728961251534E-01  -0.110582E-02   0.000000E+00   0.329822E+02  -0.364725E-01
   LPB:    1  -0.499912923623245E+00   0.410122671678539E-01   0.125965E-01   0.000000E+00   0.984186E+02   0.747956E-18
   LPB:    2  -0.499901051466637E+00   0.628572906518444E-02   0.125417E-01   0.124990E+00   0.111620E+03   0.198034E-15
   LPB:    3  -0.499898265128080E+00   0.450799428264699E-02   0.210854E-01   0.139598E+00   0.321052E+03   0.222408E-15
   LPB:    4  -0.499897433033338E+00   0.352431443795394E-02   0.223074E-01   0.282274E+00   0.104433E+03   0.229202E-15
   LPB:    5  -0.499897033323666E+00   0.199609573290256E-02   0.227126E-01   0.471796E+00   0.329855E+03   0.241756E-15
   LPB:    6  -0.499896811059463E+00   0.637321230377718E-03   0.302183E-01   0.417947E+00   0.133406E+03   0.239454E-15
   LPB:    7  -0.499896690378525E+00   0.441365036421913E-03   0.322749E-01   0.508365E+00   0.305914E+03   0.230592E-15
   LPB:    8  -0.499896616045574E+00   0.293988016716213E-03   0.350733E-01   0.566801E+00   0.215128E+03   0.225944E-15
   LPB:    9  -0.499896564781552E+00   0.268910367221705E-03   0.382817E-01   0.631854E+00   0.212843E+03   0.222998E-15
   LPB:   10  -0.499896528499455E+00   0.238837155705291E-03   0.375988E-01   0.720605E+00   0.169668E+03   0.221964E-15
   LPB:   11  -0.499896502837019E+00   0.212451068581002E-03   0.363002E-01   0.732605E+00   0.236464E+03   0.220061E-15
   LPB:   12  -0.499896484761439E+00   0.153196782965043E-03   0.360566E-01   0.709119E+00   0.191977E+03   0.218502E-15
  Finished solving LPB equations
  A_corr:   -0.420404913668443     
 End minimization
 Ecorr=   1428.81400581879     
 A_corr= -0.420404913668443     
 Ecorr_band=  -1429.23441073246     
 End Solvation calculations
RMM:   6    -0.133873903905E+03    0.43800E-05   -0.65526E-05  3643   0.380E-02
 Begin Solvation calculations
  rms_SCF =   1.766191647251463E-003 tol =   1.766191647251463E-004
 Begin minimization
 Creating dielectric and ionic cavities
  area:      151.424759304366     
  volume:    676.444365464409     
  Acav:     7.949799863479198E-002
  Solving linear dielectric/ionic screening model
        iter                  A_solv                     rms
   LPB:       -0.500514311096490E+00   0.515850842561147E-01
   LPB:    0  -0.500510871115926E+00   0.320838984821170E-01  -0.456727E-03   0.000000E+00   0.329816E+02  -0.150636E-01
   LPB:    1  -0.500495499218616E+00   0.101230838501023E-01   0.154600E-01   0.000000E+00   0.845175E+02  -0.421968E-18
   LPB:    2  -0.500494165691620E+00   0.361132155116226E-02   0.152037E-01   0.882133E-01   0.118828E+03   0.490579E-16
   LPB:    3  -0.500493820178262E+00   0.154685760260661E-02   0.190597E-01   0.206680E+00   0.159889E+03   0.529688E-16
   LPB:    4  -0.500493693560938E+00   0.169639628888383E-02   0.219825E-01   0.317736E+00   0.147535E+03   0.575387E-16
   LPB:    5  -0.500493635867529E+00   0.119297462454353E-02   0.197075E-01   0.508251E+00   0.206684E+03   0.597610E-16
   LPB:    6  -0.500493597050703E+00   0.332079100705341E-03   0.270412E-01   0.490342E+00   0.102721E+03   0.594189E-16
   LPB:    7  -0.500493572632760E+00   0.215866934190652E-03   0.344395E-01   0.493922E+00   0.222471E+03   0.563874E-16
   LPB:    8  -0.500493553413359E+00   0.176643760233694E-03   0.394851E-01   0.686521E+00   0.134401E+03   0.537340E-16
   LPB:    9  -0.500493537624596E+00   0.156924384901321E-03   0.403491E-01   0.803911E+00   0.132454E+03   0.519835E-16
  Finished solving LPB equations
  A_corr:   -0.420995538989804     
 End minimization
 Ecorr=   1428.62179792134     
 A_corr= -0.420995538989804     
 Ecorr_band=  -1429.04279346033     
 End Solvation calculations
   3 F= -.13387390E+03 E0= -.13386969E+03  d E =-.375241E-02
[...]
 Begin Solvation calculations
  rms_SCF =   8.463594606358508E-004 tol =   8.463594606358509E-005
 Begin minimization
 Creating dielectric and ionic cavities
  area:      152.334448489914     
  volume:    675.002274836479     
  Acav:     7.997558545720465E-002
  Solving linear dielectric/ionic screening model
        iter                  A_solv                     rms
   LPB:       -0.568048377487109E+00   0.547585165113611E-02
   LPB:    0  -0.568048352295311E+00   0.438798279291644E-02   0.390449E-04   0.000000E+00   0.330492E+02   0.129040E-02
   LPB:    1  -0.568047978687478E+00   0.275911515823899E-02   0.156088E-01   0.000000E+00   0.142680E+03   0.247485E-19
   LPB:    2  -0.568047911152259E+00   0.739047346533759E-03   0.138842E-01   0.203217E+00   0.156107E+03   0.771484E-17
   LPB:    3  -0.568047883114740E+00   0.389835150209570E-03   0.232730E-01   0.247673E+00   0.617835E+03   0.656606E-17
   LPB:    4  -0.568047871462958E+00   0.444181291604539E-03   0.263584E-01   0.366932E+00   0.233351E+03   0.707706E-17
   LPB:    5  -0.568047864998422E+00   0.294075898192895E-03   0.240581E-01   0.607860E+00   0.204043E+03   0.471912E-17
   LPB:    6  -0.568047859979654E+00   0.130180735197838E-03   0.320041E-01   0.583600E+00   0.319022E+03   0.343164E-17
   LPB:    7  -0.568047856550765E+00   0.779376914627945E-04   0.373919E-01   0.584768E+00   0.835920E+03   0.396556E-17
  Finished solving LPB equations
  A_corr:   -0.488072271093560     
 End minimization
 Ecorr=   1416.95420251572     
 A_corr= -0.488072271093560     
 Ecorr_band=  -1417.44227478681     
 End Solvation calculations
RMM:   2    -0.133907653891E+03   -0.15696E-04   -0.15292E-04  3405   0.328E-02    0.214E-02
 Begin Solvation calculations
  rms_SCF =   8.463594606358508E-004 tol =   8.463594606358509E-005
 Begin minimization
 Creating dielectric and ionic cavities
  area:      152.333802503454     
  volume:    675.001785072220     
  Acav:     7.997524631431312E-002
  Solving linear dielectric/ionic screening model
        iter                  A_solv                     rms
   LPB:       -0.568036244969273E+00   0.481360252614362E-02
   LPB:    0  -0.568036244966859E+00   0.481149295528989E-02   0.382224E-06   0.000000E+00   0.330492E+02   0.126322E-04
   LPB:    1  -0.568036166317713E+00   0.488880734889117E-03   0.923110E-02   0.000000E+00   0.790536E+02  -0.424025E-21
   LPB:    2  -0.568036156080127E+00   0.144859715404936E-03   0.172723E-01   0.695675E-01   0.236404E+03  -0.116613E-17
   LPB:    3  -0.568036152990741E+00   0.135906702537408E-03   0.293628E-01   0.177512E+00   0.417467E+03  -0.137598E-17
   LPB:    4  -0.568036151335834E+00   0.179434415277286E-03   0.342543E-01   0.459181E+00   0.174754E+03  -0.496539E-18
   LPB:    5  -0.568036149760537E+00   0.149533199775077E-03   0.322145E-01   0.101217E+01   0.266890E+03  -0.361727E-18
   LPB:    6  -0.568036148230528E+00   0.808815352214899E-04   0.325851E-01   0.960205E+00   0.321066E+03   0.352590E-17
  Finished solving LPB equations
  A_corr:   -0.488060901916215     
 End minimization
 Ecorr=   1416.96147947873     
 A_corr= -0.488060901916215     
 Ecorr_band=  -1417.44954038065     
 End Solvation calculations
RMM:   3    -0.133907653275E+03    0.61531E-06   -0.15774E-05  2264   0.135E-02
 Begin Solvation calculations
  rms_SCF =   8.463594606358508E-004 tol =   8.463594606358509E-005
 Begin minimization
 Creating dielectric and ionic cavities
  area:      152.333198419506     
  volume:    675.001921730838     
  Acav:     7.997492917024052E-002
  Solving linear dielectric/ionic screening model
        iter                  A_solv                     rms
   LPB:       -0.568013710087031E+00   0.821070466066198E-02
   LPB:    0  -0.568013707965367E+00   0.815636149998529E-02   0.113311E-04   0.000000E+00   0.330492E+02   0.374485E-03
   LPB:    1  -0.568013483790744E+00   0.101326823384042E-02   0.943184E-02   0.000000E+00   0.755163E+02  -0.616876E-20
   LPB:    2  -0.568013446322379E+00   0.186406917955968E-03   0.178812E-01   0.881614E-01   0.178711E+03   0.385517E-17
   LPB:    3  -0.568013439518726E+00   0.112242009969127E-03   0.263983E-01   0.122998E+00   0.412591E+03   0.287555E-17
   LPB:    4  -0.568013436428398E+00   0.657485202783908E-04   0.311548E-01   0.384870E+00   0.537792E+03   0.297713E-17
  Finished solving LPB equations
  A_corr:   -0.488038507258157     
 End minimization
 Ecorr=   1416.96532675437     
 A_corr= -0.488038507258157     
 Ecorr_band=  -1417.45336526163     
 End Solvation calculations
  78 F= -.13390765E+03 E0= -.13390287E+03  d E =0.570581E-04
quench:  g(F)=  0.000E+00 g(S)=  0.000E+00 dE (1.order)= 0.000E+00
 bond charge predicted
       N       E                     dE             d eps       ncg     rms          rms(c)
 Begin Solvation calculations
  rms_SCF =   8.463594606358508E-004 tol =   8.463594606358509E-005
 Begin minimization
 Creating dielectric and ionic cavities
  area:      152.337808675993     
  volume:    674.998846429611     
  Acav:     7.997734955489630E-002
  Solving linear dielectric/ionic screening model
        iter                  A_solv                     rms
   LPB:       -0.568076630287283E+00   0.657653142956936E-03
   LPB:    0  -0.568076630285356E+00   0.662329167588363E-03  -0.341430E-06   0.000000E+00   0.330494E+02  -0.112840E-04
   LPB:    1  -0.568041239639003E+00   0.265706756367589E-03   0.159511E-01   0.000000E+00   0.587235E+06   0.662889E-21
   LPB:    2  -0.568036882916175E+00   0.219986693830384E-03   0.280224E-01   0.700738E-01   0.142745E+06  -0.133669E-17
   LPB:    3  -0.568035404473652E+00   0.454361385231100E-03   0.331717E-01   0.286669E+00   0.585349E+05  -0.127293E-17
   LPB:    4  -0.568034763645576E+00   0.119894524919867E-02   0.354184E-01   0.405953E+00   0.631205E+04  -0.130068E-17
   LPB:    5  -0.568034467910089E+00   0.286044423649582E-02   0.325742E-01   0.501785E+00   0.541841E+03  -0.702152E-18
   LPB:    6  -0.568034331818850E+00   0.207182693823553E-02   0.191642E-01   0.782184E+00   0.171244E+03  -0.924442E-18
   LPB:    7  -0.568034206075355E+00   0.555884176509985E-03   0.275452E-01   0.642837E+00   0.576041E+03  -0.231565E-17
   LPB:    8  -0.568034125113963E+00   0.666020522793629E-03   0.367410E-01   0.482711E+00   0.121077E+04  -0.356064E-17
   LPB:    9  -0.568034080896732E+00   0.100232197554649E-02   0.312330E-01   0.642467E+00   0.237539E+03  -0.264861E-17
   LPB:   10  -0.568034051811712E+00   0.542949085759794E-03   0.246831E-01   0.832322E+00   0.195118E+03  -0.120560E-17
   LPB:   11  -0.568034028313595E+00   0.181972064127214E-03   0.338893E-01   0.588438E+00   0.655314E+03  -0.109696E-16
   LPB:   12  -0.568034012280738E+00   0.120569942926839E-03   0.389271E-01   0.594002E+00   0.287678E+04  -0.212548E-16
   LPB:   13  -0.568034002104353E+00   0.133222979999515E-03   0.374755E-01   0.659306E+00   0.204739E+04  -0.287016E-16
   LPB:   14  -0.568033995549075E+00   0.112912683232625E-03   0.345969E-01   0.697764E+00   0.145377E+04  -0.334070E-16
   LPB:   15  -0.568033990960614E+00   0.690019879989452E-04   0.355176E-01   0.681819E+00   0.181516E+04  -0.364745E-16
  Finished solving LPB equations
  A_corr:   -0.488056641405718     
 End minimization
 Ecorr=   1416.96528950393     
 A_corr= -0.488056641405718     
 Ecorr_band=  -1417.45334614533     
 End Solvation calculations
DAV:   1    -0.133907586931E+03    0.66960E-04   -0.32770E-03  4041   0.114E-01    0.131E-02
 Begin Solvation calculations
  rms_SCF =   8.463594606358508E-004 tol =   8.463594606358509E-005
 Begin minimization
 Creating dielectric and ionic cavities
  area:      152.332026730727     
  volume:    674.997398182951     
  Acav:     7.997431403363152E-002
  Solving linear dielectric/ionic screening model
        iter                  A_solv                     rms
   LPB:       -0.568057192808565E+00   0.824133633428329E-02
   LPB:    0  -0.568057182055242E+00   0.800363849636686E-02  -0.255096E-04   0.000000E+00   0.330494E+02  -0.843079E-03
   LPB:    1  -0.568056755293383E+00   0.268800163209072E-02   0.117495E-01   0.000000E+00   0.955666E+02  -0.373467E-19
   LPB:    2  -0.568056625786845E+00   0.334585747351012E-03   0.166185E-01   0.214553E+00   0.325227E+03  -0.147856E-17
   LPB:    3  -0.568056593263374E+00   0.177628992888373E-03   0.301748E-01   0.138310E+00   0.918164E+03  -0.173794E-17
   LPB:    4  -0.568056581303158E+00   0.227482946795895E-03   0.305138E-01   0.363656E+00   0.821993E+03  -0.191917E-17
   LPB:    5  -0.568056574770791E+00   0.295433431031972E-03   0.291530E-01   0.571668E+00   0.387700E+03  -0.210722E-17
   LPB:    6  -0.568056570628754E+00   0.265221044141007E-03   0.275688E-01   0.670515E+00   0.176636E+03  -0.668089E-18
   LPB:    7  -0.568056567553824E+00   0.145857949796431E-03   0.297288E-01   0.688434E+00   0.232136E+03   0.328796E-17
   LPB:    8  -0.568056565243801E+00   0.713296857528224E-04   0.348969E-01   0.639987E+00   0.568917E+03   0.753191E-17
  Finished solving LPB equations
  A_corr:   -0.488082251210170     
 End minimization
 Ecorr=   1416.96257074608     
 A_corr= -0.488082251210170     
 Ecorr_band=  -1417.45065299729     
 End Solvation calculations
RMM:   2    -0.133907603170E+03   -0.16239E-04   -0.15585E-04  3435   0.317E-02    0.212E-02
 Begin Solvation calculations
  rms_SCF =   8.463594606358508E-004 tol =   8.463594606358509E-005
 Begin minimization
 Creating dielectric and ionic cavities
  area:      152.331958347299     
  volume:    674.998246876122     
  Acav:     7.997427813233200E-002
  Solving linear dielectric/ionic screening model
        iter                  A_solv                     rms
   LPB:       -0.568052859316428E+00   0.971762505378133E-02
   LPB:    0  -0.568052857992059E+00   0.970212973186049E-02   0.895236E-05   0.000000E+00   0.330494E+02   0.295870E-03
   LPB:    1  -0.568052580339978E+00   0.942342965690801E-03   0.890937E-02   0.000000E+00   0.743055E+02  -0.163540E-19
   LPB:    2  -0.568052552984048E+00   0.172192611453167E-03   0.168831E-01   0.519930E-01   0.144447E+03   0.220215E-18
   LPB:    3  -0.568052548376770E+00   0.873146327802142E-04   0.248997E-01   0.114196E+00   0.298178E+03   0.238706E-18
   LPB:    4  -0.568052546419049E+00   0.480827539833945E-04   0.330110E-01   0.320510E+00   0.480251E+03  -0.716380E-18
  Finished solving LPB equations
  A_corr:   -0.488078268286717     
 End minimization
 Ecorr=   1416.96044481485     
 A_corr= -0.488078268286717     
 Ecorr_band=  -1417.44852308313     
 End Solvation calculations
RMM:   3    -0.133907602853E+03    0.31666E-06   -0.16171E-05  2299   0.137E-02
 Begin Solvation calculations
  rms_SCF =   8.463594606358508E-004 tol =   8.463594606358509E-005
 Begin minimization
 Creating dielectric and ionic cavities
  area:      152.331801043008     
  volume:    674.998642593022     
  Acav:     7.997419554757926E-002
  Solving linear dielectric/ionic screening model
        iter                  A_solv                     rms
   LPB:       -0.568043458083936E+00   0.188336541378929E-02
   LPB:    0  -0.568043457549586E+00   0.177628366832539E-02   0.568652E-05   0.000000E+00   0.330494E+02   0.187936E-03
   LPB:    1  -0.568043409217929E+00   0.104559900648505E-02   0.139018E-01   0.000000E+00   0.147386E+03  -0.112457E-19
   LPB:    2  -0.568043397167718E+00   0.279773682274528E-03   0.150096E-01   0.230922E+00   0.194892E+03   0.245601E-17
   LPB:    3  -0.568043392554593E+00   0.208060527105067E-03   0.253703E-01   0.226488E+00   0.361726E+03   0.324426E-17
   LPB:    4  -0.568043389903309E+00   0.218848479471793E-03   0.287703E-01   0.506808E+00   0.200576E+03   0.388625E-17
   LPB:    5  -0.568043387894814E+00   0.157139644808129E-03   0.293089E-01   0.743633E+00   0.203573E+03   0.574100E-17
   LPB:    6  -0.568043386104231E+00   0.709232772681883E-04   0.323768E-01   0.807031E+00   0.419082E+03   0.919684E-17
  Finished solving LPB equations
  A_corr:   -0.488069190556652     
 End minimization
 Ecorr=   1416.96312972469     
 A_corr= -0.488069190556652     
 Ecorr_band=  -1417.45119891525     
 End Solvation calculations
  79 F= -.13390760E+03 E0= -.13390281E+03  d E =0.504225E-04
quench:  g(F)=  0.000E+00 g(S)=  0.000E+00 dE (1.order)= 0.000E+00
 bond charge predicted
       N       E                     dE             d eps       ncg     rms          rms(c)
 Begin Solvation calculations
  rms_SCF =   8.463594606358508E-004 tol =   8.463594606358509E-005
 Begin minimization
 Creating dielectric and ionic cavities
  area:      152.334140116147     
  volume:    674.993784881661     
  Acav:     7.997542356097738E-002
  Solving linear dielectric/ionic screening model
        iter                  A_solv                     rms
   LPB:       -0.568125890869884E+00   0.718535947293334E-03
   LPB:    0  -0.568125890865458E+00   0.725360802684986E-03  -0.517555E-06   0.000000E+00   0.330496E+02  -0.171050E-04
   LPB:    1  -0.568085695233364E+00   0.276243956150633E-03   0.159697E-01   0.000000E+00   0.547304E+06  -0.174867E-20
   LPB:    2  -0.568080968336420E+00   0.231771196409171E-03   0.277699E-01   0.676272E-01   0.146766E+06  -0.848995E-18
   LPB:    3  -0.568079405723162E+00   0.479028542750409E-03   0.330348E-01   0.277893E+00   0.545590E+05  -0.117774E-17
   LPB:    4  -0.568078727246247E+00   0.125432759411442E-02   0.354189E-01   0.404967E+00   0.585364E+04  -0.158802E-17
   LPB:    5  -0.568078415698190E+00   0.294666889638890E-02   0.323525E-01   0.502709E+00   0.524870E+03  -0.185595E-17
   LPB:    6  -0.568078271942345E+00   0.209839246309747E-02   0.191262E-01   0.780514E+00   0.171804E+03  -0.393699E-17
   LPB:    7  -0.568078140123734E+00   0.648730365786293E-03   0.276722E-01   0.633775E+00   0.565072E+03  -0.710696E-17
   LPB:    8  -0.568078057280820E+00   0.864060760108331E-03   0.353466E-01   0.492012E+00   0.743346E+03  -0.102079E-16
   LPB:    9  -0.568078012739234E+00   0.102876828897473E-02   0.282530E-01   0.672656E+00   0.187872E+03  -0.117720E-16
   LPB:   10  -0.568077979542817E+00   0.443563123360213E-03   0.261409E-01   0.805507E+00   0.249595E+03  -0.118168E-16
   LPB:   11  -0.568077954288702E+00   0.172881057177291E-03   0.360360E-01   0.551855E+00   0.976872E+03  -0.159694E-16
   LPB:   12  -0.568077937537713E+00   0.157553289348057E-03   0.379536E-01   0.629784E+00   0.241512E+04  -0.203170E-16
   LPB:   13  -0.568077926849930E+00   0.157217309324184E-03   0.350886E-01   0.690135E+00   0.151760E+04  -0.220713E-16
   LPB:   14  -0.568077919766126E+00   0.104660928291911E-03   0.331632E-01   0.701276E+00   0.145430E+04  -0.232695E-16
   LPB:   15  -0.568077914711041E+00   0.611618419503099E-04   0.368641E-01   0.641969E+00   0.231371E+04  -0.239698E-16
  Finished solving LPB equations
  A_corr:   -0.488102491150063     
 End minimization
 Ecorr=   1416.96235472444     
 A_corr= -0.488102491150063     
 Ecorr_band=  -1417.45045721559     
 End Solvation calculations
DAV:   1    -0.133907536851E+03    0.66318E-04   -0.33149E-03  4032   0.114E-01    0.127E-02
 Begin Solvation calculations
  rms_SCF =   7.853601425306069E-004 tol =   7.853601425306069E-005
 Begin minimization
 Creating dielectric and ionic cavities
  area:      152.333051798117     
  volume:    674.996333381642     
  Acav:     7.997485219401133E-002
  Solving linear dielectric/ionic screening model
        iter                  A_solv                     rms
   LPB:       -0.568036432302290E+00   0.423876152128993E-02
   LPB:    0  -0.568036411465333E+00   0.301298525970281E-02   0.355099E-04   0.000000E+00   0.330495E+02   0.117358E-02
   LPB:    1  -0.568036070198387E+00   0.195078380355680E-02   0.178024E-01   0.000000E+00   0.196455E+03   0.967616E-19
   LPB:    2  -0.568036022505930E+00   0.962896983598408E-03   0.156374E-01   0.159100E+00   0.137961E+03  -0.371446E-17
   LPB:    3  -0.568036000569806E+00   0.385972872112684E-03   0.205623E-01   0.349786E+00   0.412121E+03  -0.864001E-17
   LPB:    4  -0.568035990371204E+00   0.438763951556944E-03   0.252414E-01   0.378738E+00   0.273910E+03  -0.104331E-16
   LPB:    5  -0.568035984537018E+00   0.305484719520723E-03   0.237083E-01   0.609048E+00   0.193568E+03  -0.111493E-16
   LPB:    6  -0.568035979931148E+00   0.132247251665115E-03   0.312059E-01   0.599785E+00   0.302489E+03  -0.122016E-16
   LPB:    7  -0.568035976696421E+00   0.736400617346906E-04   0.375939E-01   0.582969E+00   0.815798E+03  -0.149327E-16
  Finished solving LPB equations
  A_corr:   -0.488061124502410     
 End minimization
 Ecorr=   1416.96932607160     
 A_corr= -0.488061124502410     
 Ecorr_band=  -1417.45738719610     
 End Solvation calculations
RMM:   2    -0.133907552093E+03   -0.15241E-04   -0.14669E-04  3373   0.323E-02    0.216E-02
 Begin Solvation calculations
  rms_SCF =   7.853601425306069E-004 tol =   7.853601425306069E-005
 Begin minimization
 Creating dielectric and ionic cavities
  area:      152.332454847637     
  volume:    674.995868200521     
  Acav:     7.997453879500957E-002
  Solving linear dielectric/ionic screening model
        iter                  A_solv                     rms
   LPB:       -0.568026157970039E+00   0.529013506876173E-02
   LPB:    0  -0.568026157969634E+00   0.529084123166071E-02  -0.156445E-06   0.000000E+00   0.330495E+02  -0.517044E-05
   LPB:    1  -0.568026066531858E+00   0.506559155744901E-03   0.911779E-02   0.000000E+00   0.781119E+02  -0.425832E-21
   LPB:    2  -0.568026055659650E+00   0.143802435376482E-03   0.171656E-01   0.631572E-01   0.216526E+03   0.599101E-19
   LPB:    3  -0.568026052671787E+00   0.132984669517766E-03   0.287617E-01   0.164016E+00   0.374467E+03  -0.285386E-18
   LPB:    4  -0.568026051084592E+00   0.164092104949468E-03   0.338896E-01   0.450836E+00   0.186060E+03  -0.162188E-17
   LPB:    5  -0.568026049641688E+00   0.146961745699549E-03   0.323954E-01   0.951021E+00   0.273807E+03  -0.150085E-17
   LPB:    6  -0.568026048220627E+00   0.869905296494586E-04   0.325010E-01   0.981662E+00   0.300556E+03  -0.122836E-17
   LPB:    7  -0.568026047169061E+00   0.590392676341942E-04   0.338362E-01   0.710786E+00   0.591272E+03  -0.117969E-17
  Finished solving LPB equations
  A_corr:   -0.488051508374051     
 End minimization
 Ecorr=   1416.97564646556     
 A_corr= -0.488051508374051     
 Ecorr_band=  -1417.46369797393     
 End Solvation calculations
RMM:   3    -0.133907551223E+03    0.86911E-06   -0.15532E-05  2267   0.134E-02
 Begin Solvation calculations
  rms_SCF =   7.853601425306069E-004 tol =   7.853601425306069E-005
 Begin minimization
 Creating dielectric and ionic cavities
  area:      152.331820736516     
  volume:    674.995983577702     
  Acav:     7.997420588667094E-002
  Solving linear dielectric/ionic screening model
        iter                  A_solv                     rms
   LPB:       -0.568004975151301E+00   0.741026012956525E-02
   LPB:    0  -0.568004973280705E+00   0.734937241203842E-02   0.106395E-04   0.000000E+00   0.330495E+02   0.351631E-03
   LPB:    1  -0.568004780681481E+00   0.999443358976851E-03   0.964831E-02   0.000000E+00   0.762283E+02   0.275763E-19
   LPB:    2  -0.568004745633788E+00   0.182919067417341E-03   0.176114E-01   0.996924E-01   0.199538E+03   0.583333E-18
   LPB:    3  -0.568004739159569E+00   0.988093080154320E-04   0.256981E-01   0.126596E+00   0.483575E+03   0.651087E-18
   LPB:    4  -0.568004736288961E+00   0.603280438884366E-04   0.300879E-01   0.378701E+00   0.674952E+03   0.679320E-18
  Finished solving LPB equations
  A_corr:   -0.488030530402290     
 End minimization
 Ecorr=   1416.98035527154     
 A_corr= -0.488030530402290     
 Ecorr_band=  -1417.46838580194     
 End Solvation calculations
  80 F= -.13390755E+03 E0= -.13390277E+03  d E =0.516296E-04
quench:  g(F)=  0.000E+00 g(S)=  0.000E+00 dE (1.order)= 0.000E+00
 reached required accuracy - stopping structural energy minimisation
