 vasp.5.4.4.18Apr17-6-g9f103f2a35 (build Feb 06 2024 13:54:16) complex          
  
 POSCAR found type information on POSCAR  Cu Pd Cu N  O 
 02/POSCAR found :  5 types and      40 ions
 scaLAPACK will be used

 ----------------------------------------------------------------------------- 
|                                                                             |
|  ADVICE TO THIS USER RUNNING 'VASP/VAMP'   (HEAR YOUR MASTER'S VOICE ...):  |
|                                                                             |
|      You enforced a specific xc-type in the INCAR file,                     |
|      a different type was found on the POTCAR file                          |
|          I HOPE YOU KNOW, WHAT YOU ARE  DOING                               |
|                                                                             |
 ----------------------------------------------------------------------------- 

 LDA part: xc-table for Pade appr. of Perdew
 POSCAR found type information on POSCAR  Cu Pd Cu N  O 
 00/POSCAR found :  5 types and      40 ions
 POSCAR found type information on POSCAR  Cu Pd Cu N  O 
 06/POSCAR found :  5 types and      40 ions
 Jacobian:    20.5888137679208     
 POSCAR, INCAR and KPOINTS ok, starting setup
 FFT: planning ...
 WAVECAR not read
 entering main loop
       N       E                     dE             d eps       ncg     rms          rms(c)
DAV:   1     0.418889590036E+04    0.41889E+04   -0.17838E+05  4032   0.203E+03
DAV:   2     0.614402244915E+03   -0.35745E+04   -0.34450E+04  4032   0.460E+02
DAV:   3    -0.230946421534E+02   -0.63750E+03   -0.58618E+03  4635   0.232E+02
DAV:   4    -0.146535016990E+03   -0.12344E+03   -0.10776E+03  7245   0.926E+01
DAV:   5    -0.159995399130E+03   -0.13460E+02   -0.13300E+02  6192   0.312E+01    0.417E+01
RMM:   6    -0.152771623447E+03    0.72238E+01   -0.33178E+02  4104   0.904E+01    0.386E+01
RMM:   7    -0.152021421858E+03    0.75020E+00   -0.10427E+02  4153   0.418E+01    0.256E+01
RMM:   8    -0.140746230986E+03    0.11275E+02   -0.72412E+00  4123   0.107E+01    0.170E+01
RMM:   9    -0.138791850258E+03    0.19544E+01   -0.51392E+00  4108   0.984E+00    0.120E+01
RMM:  10    -0.134053839708E+03    0.47380E+01   -0.65894E+00  4115   0.707E+00    0.447E+00
RMM:  11    -0.133864610676E+03    0.18923E+00   -0.63330E-01  4149   0.273E+00    0.375E+00
RMM:  12    -0.133790978441E+03    0.73632E-01   -0.27258E-01  4137   0.187E+00    0.251E+00
RMM:  13    -0.133623952736E+03    0.16703E+00   -0.31935E-01  4160   0.161E+00    0.181E+00
RMM:  14    -0.133620279972E+03    0.36728E-02   -0.11384E-01  4274   0.919E-01    0.120E+00
RMM:  15    -0.133624029618E+03   -0.37496E-02   -0.30899E-02  4374   0.486E-01    0.893E-01
RMM:  16    -0.133614071498E+03    0.99581E-02   -0.57206E-03  5371   0.162E-01    0.586E-01
RMM:  17    -0.133606977841E+03    0.70937E-02   -0.28600E-02  4097   0.405E-01    0.513E-01
RMM:  18    -0.133605327148E+03    0.16507E-02   -0.19720E-03  4108   0.167E-01    0.253E-01
RMM:  19    -0.133604112095E+03    0.12151E-02   -0.83600E-04  4452   0.647E-02    0.138E-01
RMM:  20    -0.133603849372E+03    0.26272E-03   -0.55770E-04  4087   0.653E-02    0.772E-02
RMM:  21    -0.133604347781E+03   -0.49841E-03   -0.90755E-04  4077   0.684E-02    0.962E-02
RMM:  22    -0.133604688458E+03   -0.34068E-03   -0.19670E-04  3996   0.356E-02    0.546E-02
RMM:  23    -0.133604983588E+03   -0.29513E-03   -0.25129E-04  4025   0.343E-02    0.381E-02
RMM:  24    -0.133605196456E+03   -0.21287E-03   -0.50850E-05  2777   0.158E-02    0.199E-02
RMM:  25    -0.133605320445E+03   -0.12399E-03   -0.61043E-05  2883   0.224E-02    0.200E-02
RMM:  26    -0.133605408209E+03   -0.87764E-04   -0.21353E-05  2454   0.166E-02    0.264E-02
RMM:  27    -0.133605451017E+03   -0.42809E-04   -0.10483E-05  2383   0.112E-02    0.155E-02
RMM:  28    -0.133605464429E+03   -0.13412E-04   -0.95514E-06  2383   0.919E-03    0.319E-03
RMM:  29    -0.133605477375E+03   -0.12946E-04   -0.46107E-06  2317   0.804E-03    0.340E-03
RMM:  30    -0.133605477943E+03   -0.56825E-06   -0.19939E-06  2311   0.533E-03
   1 F= -.13360548E+03 E0= -.13360573E+03  d E =-.133605E+03
quench:  g(F)=  0.000E+00 g(S)=  0.000E+00 dE (1.order)= 0.000E+00
 bond charge predicted
       N       E                     dE             d eps       ncg     rms          rms(c)
DAV:   1    -0.133605474288E+03    0.30873E-05   -0.41556E-04  4221   0.379E-02    0.496E-03
RMM:   2    -0.133605475421E+03   -0.11334E-05   -0.12724E-05  2358   0.994E-03
   2 F= -.13360548E+03 E0= -.13360573E+03  d E =0.252222E-05
quench:  g(F)=  0.000E+00 g(S)=  0.000E+00 dE (1.order)= 0.000E+00
 bond charge predicted
       N       E                     dE             d eps       ncg     rms          rms(c)
DAV:   1    -0.133605471363E+03    0.29245E-05   -0.77539E-04  4428   0.579E-02    0.793E-03
RMM:   2    -0.133605475703E+03   -0.43397E-05   -0.41846E-05  2577   0.159E-02
   3 F= -.13360548E+03 E0= -.13360573E+03  d E =-.281856E-06
quench:  g(F)=  0.000E+00 g(S)=  0.000E+00 dE (1.order)= 0.000E+00
 bond charge predicted
       N       E                     dE             d eps       ncg     rms          rms(c)
DAV:   1    -0.133605470364E+03    0.99919E-06   -0.71597E-04  5535   0.872E-02    0.898E-03
RMM:   2    -0.133605476977E+03   -0.66125E-05   -0.46609E-05  2646   0.188E-02
   4 F= -.13360548E+03 E0= -.13360574E+03  d E =-.127364E-05
quench:  g(F)=  0.000E+00 g(S)=  0.000E+00 dE (1.order)= 0.000E+00
 bond charge predicted
       N       E                     dE             d eps       ncg     rms          rms(c)
DAV:   1    -0.133605469755E+03    0.60915E-06   -0.56379E-04  5166   0.114E-01    0.103E-02
RMM:   2    -0.133605475271E+03   -0.55161E-05   -0.55979E-05  2727   0.195E-02
   5 F= -.13360548E+03 E0= -.13360573E+03  d E =0.170556E-05
quench:  g(F)=  0.000E+00 g(S)=  0.000E+00 dE (1.order)= 0.000E+00
 bond charge predicted
       N       E                     dE             d eps       ncg     rms          rms(c)
DAV:   1    -0.133605467431E+03    0.23243E-05   -0.50439E-04  5562   0.111E-01    0.910E-03
RMM:   2    -0.133605475923E+03   -0.84928E-05   -0.45821E-05  2672   0.215E-02
   6 F= -.13360548E+03 E0= -.13360574E+03  d E =-.652384E-06
quench:  g(F)=  0.000E+00 g(S)=  0.000E+00 dE (1.order)= 0.000E+00
 bond charge predicted
       N       E                     dE             d eps       ncg     rms          rms(c)
DAV:   1    -0.133605462797E+03    0.46336E-05   -0.49425E-04  5202   0.134E-01    0.102E-02
RMM:   2    -0.133605468852E+03   -0.60547E-05   -0.66257E-05  2906   0.215E-02
   7 F= -.13360547E+03 E0= -.13360573E+03  d E =0.707171E-05
quench:  g(F)=  0.000E+00 g(S)=  0.000E+00 dE (1.order)= 0.000E+00
 bond charge predicted
       N       E                     dE             d eps       ncg     rms          rms(c)
DAV:   1    -0.133605462508E+03    0.28909E-06   -0.47535E-04  5607   0.981E-02    0.877E-03
RMM:   2    -0.133605471069E+03   -0.85613E-05   -0.41727E-05  2622   0.222E-02
   8 F= -.13360547E+03 E0= -.13360573E+03  d E =-.221757E-05
quench:  g(F)=  0.000E+00 g(S)=  0.000E+00 dE (1.order)= 0.000E+00
 bond charge predicted
       N       E                     dE             d eps       ncg     rms          rms(c)
DAV:   1    -0.133605457726E+03    0.47824E-05   -0.43621E-04  5067   0.133E-01    0.955E-03
RMM:   2    -0.133605463021E+03   -0.52950E-05   -0.60088E-05  2843   0.210E-02
   9 F= -.13360546E+03 E0= -.13360572E+03  d E =0.804876E-05
quench:  g(F)=  0.000E+00 g(S)=  0.000E+00 dE (1.order)= 0.000E+00
 bond charge predicted
       N       E                     dE             d eps       ncg     rms          rms(c)
DAV:   1    -0.133605456682E+03    0.10432E-05   -0.46736E-04  5508   0.859E-02    0.822E-03
RMM:   2    -0.133605463831E+03   -0.71487E-05   -0.34047E-05  2518   0.205E-02
  10 F= -.13360546E+03 E0= -.13360572E+03  d E =-.810454E-06
quench:  g(F)=  0.000E+00 g(S)=  0.000E+00 dE (1.order)= 0.000E+00
 bond charge predicted
       N       E                     dE             d eps       ncg     rms          rms(c)
DAV:   1    -0.133605449013E+03    0.76693E-05   -0.58208E-04  5661   0.126E-01    0.101E-02
RMM:   2    -0.133605453585E+03   -0.45718E-05   -0.55925E-05  2676   0.188E-02
  11 F= -.13360545E+03 E0= -.13360571E+03  d E =0.102462E-04
quench:  g(F)=  0.000E+00 g(S)=  0.000E+00 dE (1.order)= 0.000E+00
 bond charge predicted
       N       E                     dE             d eps       ncg     rms          rms(c)
DAV:   1    -0.133605443614E+03    0.53988E-05   -0.74313E-04  5211   0.844E-02    0.930E-03
RMM:   2    -0.133605451236E+03   -0.76218E-05   -0.49160E-05  2700   0.220E-02
  12 F= -.13360545E+03 E0= -.13360571E+03  d E =0.234881E-05
quench:  g(F)=  0.000E+00 g(S)=  0.000E+00 dE (1.order)= 0.000E+00
 bond charge predicted
       N       E                     dE             d eps       ncg     rms          rms(c)
DAV:   1    -0.133605439318E+03    0.42958E-05   -0.59269E-04  5364   0.125E-01    0.107E-02
RMM:   2    -0.133605443645E+03   -0.43267E-05   -0.60703E-05  2792   0.199E-02
  13 F= -.13360544E+03 E0= -.13360570E+03  d E =0.759097E-05
quench:  g(F)=  0.000E+00 g(S)=  0.000E+00 dE (1.order)= 0.000E+00
 bond charge predicted
       N       E                     dE             d eps       ncg     rms          rms(c)
DAV:   1    -0.133605437081E+03    0.22373E-05   -0.54562E-04  5454   0.964E-02    0.932E-03
RMM:   2    -0.133605445459E+03   -0.83784E-05   -0.44443E-05  2639   0.228E-02
  14 F= -.13360545E+03 E0= -.13360571E+03  d E =-.181443E-05
quench:  g(F)=  0.000E+00 g(S)=  0.000E+00 dE (1.order)= 0.000E+00
 bond charge predicted
       N       E                     dE             d eps       ncg     rms          rms(c)
DAV:   1    -0.133605431086E+03    0.59955E-05   -0.51955E-04  5256   0.139E-01    0.103E-02
RMM:   2    -0.133605436518E+03   -0.54321E-05   -0.62804E-05  2846   0.207E-02
  15 F= -.13360544E+03 E0= -.13360569E+03  d E =0.894176E-05
quench:  g(F)=  0.000E+00 g(S)=  0.000E+00 dE (1.order)= 0.000E+00
 bond charge predicted
       N       E                     dE             d eps       ncg     rms          rms(c)
DAV:   1    -0.133605427442E+03    0.36431E-05   -0.61879E-04  5544   0.891E-02    0.909E-03
RMM:   2    -0.133605435249E+03   -0.78063E-05   -0.43735E-05  2636   0.224E-02
  16 F= -.13360544E+03 E0= -.13360570E+03  d E =0.126890E-05
quench:  g(F)=  0.000E+00 g(S)=  0.000E+00 dE (1.order)= 0.000E+00
 bond charge predicted
       N       E                     dE             d eps       ncg     rms          rms(c)
DAV:   1    -0.133605418953E+03    0.84896E-05   -0.69101E-04  5580   0.135E-01    0.112E-02
RMM:   2    -0.133605424194E+03   -0.52414E-05   -0.64345E-05  2759   0.196E-02
  17 F= -.13360542E+03 E0= -.13360568E+03  d E =0.110545E-04
quench:  g(F)=  0.000E+00 g(S)=  0.000E+00 dE (1.order)= 0.000E+00
 bond charge predicted
       N       E                     dE             d eps       ncg     rms          rms(c)
DAV:   1    -0.133605413324E+03    0.56288E-05   -0.83003E-04  5229   0.898E-02    0.996E-03
RMM:   2    -0.133605422090E+03   -0.87659E-05   -0.58056E-05  2780   0.237E-02
  18 F= -.13360542E+03 E0= -.13360568E+03  d E =0.210429E-05
quench:  g(F)=  0.000E+00 g(S)=  0.000E+00 dE (1.order)= 0.000E+00
 bond charge predicted
       N       E                     dE             d eps       ncg     rms          rms(c)
DAV:   1    -0.133605405144E+03    0.81803E-05   -0.69157E-04  5544   0.136E-01    0.117E-02
RMM:   2    -0.133605410886E+03   -0.57421E-05   -0.67397E-05  2820   0.205E-02
  19 F= -.13360541E+03 E0= -.13360567E+03  d E =0.112041E-04
quench:  g(F)=  0.000E+00 g(S)=  0.000E+00 dE (1.order)= 0.000E+00
 bond charge predicted
       N       E                     dE             d eps       ncg     rms          rms(c)
DAV:   1    -0.133605402841E+03    0.23029E-05   -0.66168E-04  5454   0.988E-02    0.999E-03
RMM:   2    -0.133605412639E+03   -0.97978E-05   -0.52317E-05  2726   0.242E-02
  20 F= -.13360541E+03 E0= -.13360567E+03  d E =-.175276E-05
quench:  g(F)=  0.000E+00 g(S)=  0.000E+00 dE (1.order)= 0.000E+00
 bond charge predicted
       N       E                     dE             d eps       ncg     rms          rms(c)
DAV:   1    -0.133605394789E+03    0.80514E-05   -0.65951E-04  5535   0.148E-01    0.115E-02
RMM:   2    -0.133605400454E+03   -0.56642E-05   -0.67752E-05  2839   0.207E-02
  21 F= -.13360540E+03 E0= -.13360566E+03  d E =0.121850E-04
quench:  g(F)=  0.000E+00 g(S)=  0.000E+00 dE (1.order)= 0.000E+00
 bond charge predicted
       N       E                     dE             d eps       ncg     rms          rms(c)
DAV:   1    -0.133605386927E+03    0.78621E-05   -0.89280E-04  5382   0.955E-02    0.103E-02
RMM:   2    -0.133605398090E+03   -0.11162E-04   -0.61135E-05  2814   0.250E-02    0.158E-02
RMM:   3    -0.133605390726E+03    0.73633E-05   -0.13010E-05  2230   0.166E-02
  22 F= -.13360539E+03 E0= -.13360564E+03  d E =0.972739E-05
quench:  g(F)=  0.000E+00 g(S)=  0.000E+00 dE (1.order)= 0.000E+00
 bond charge predicted
       N       E                     dE             d eps       ncg     rms          rms(c)
DAV:   1    -0.133605377860E+03    0.20230E-04   -0.98911E-04  4410   0.619E-02    0.110E-02
RMM:   2    -0.133605383346E+03   -0.54864E-05   -0.66457E-05  2738   0.166E-02
  23 F= -.13360538E+03 E0= -.13360564E+03  d E =0.738011E-05
quench:  g(F)=  0.000E+00 g(S)=  0.000E+00 dE (1.order)= 0.000E+00
 bond charge predicted
       N       E                     dE             d eps       ncg     rms          rms(c)
DAV:   1    -0.133605368553E+03    0.93063E-05   -0.10536E-03  4599   0.727E-02    0.969E-03
RMM:   2    -0.133605374806E+03   -0.62529E-05   -0.57087E-05  2822   0.184E-02
  24 F= -.13360537E+03 E0= -.13360563E+03  d E =0.853985E-05
quench:  g(F)=  0.000E+00 g(S)=  0.000E+00 dE (1.order)= 0.000E+00
 bond charge predicted
       N       E                     dE             d eps       ncg     rms          rms(c)
DAV:   1    -0.133605364495E+03    0.40583E-05   -0.76003E-04  5454   0.998E-02    0.121E-02
RMM:   2    -0.133605372021E+03   -0.75262E-05   -0.63070E-05  2726   0.202E-02
  25 F= -.13360537E+03 E0= -.13360563E+03  d E =0.278496E-05
quench:  g(F)=  0.000E+00 g(S)=  0.000E+00 dE (1.order)= 0.000E+00
 bond charge predicted
       N       E                     dE             d eps       ncg     rms          rms(c)
DAV:   1    -0.133605357965E+03    0.65305E-05   -0.75544E-04  5589   0.136E-01    0.108E-02
RMM:   2    -0.133605368710E+03   -0.10746E-04   -0.57038E-05  2743   0.229E-02    0.158E-02
RMM:   3    -0.133605361290E+03    0.74208E-05   -0.14610E-05  2233   0.177E-02
  26 F= -.13360536E+03 E0= -.13360561E+03  d E =0.107317E-04
quench:  g(F)=  0.000E+00 g(S)=  0.000E+00 dE (1.order)= 0.000E+00
 bond charge predicted
       N       E                     dE             d eps       ncg     rms          rms(c)
DAV:   1    -0.133605347901E+03    0.20810E-04   -0.99331E-04  4527   0.652E-02    0.114E-02
RMM:   2    -0.133605353385E+03   -0.54844E-05   -0.66646E-05  2755   0.170E-02
  27 F= -.13360535E+03 E0= -.13360561E+03  d E =0.790439E-05
quench:  g(F)=  0.000E+00 g(S)=  0.000E+00 dE (1.order)= 0.000E+00
 bond charge predicted
       N       E                     dE             d eps       ncg     rms          rms(c)
DAV:   1    -0.133605334520E+03    0.13380E-04   -0.12605E-03  4680   0.869E-02    0.106E-02
RMM:   2    -0.133605342811E+03   -0.82902E-05   -0.69058E-05  3001   0.205E-02
  28 F= -.13360534E+03 E0= -.13360560E+03  d E =0.105747E-04
quench:  g(F)=  0.000E+00 g(S)=  0.000E+00 dE (1.order)= 0.000E+00
 bond charge predicted
       N       E                     dE             d eps       ncg     rms          rms(c)
DAV:   1    -0.133605329041E+03    0.54798E-05   -0.89425E-04  5544   0.116E-01    0.132E-02
RMM:   2    -0.133605337781E+03   -0.87403E-05   -0.75798E-05  2825   0.218E-02
  29 F= -.13360534E+03 E0= -.13360560E+03  d E =0.502971E-05
quench:  g(F)=  0.000E+00 g(S)=  0.000E+00 dE (1.order)= 0.000E+00
 bond charge predicted
       N       E                     dE             d eps       ncg     rms          rms(c)
DAV:   1    -0.133605322675E+03    0.63656E-05   -0.78936E-04  5598   0.142E-01    0.115E-02
RMM:   2    -0.133605335645E+03   -0.12970E-04   -0.65078E-05  2848   0.250E-02    0.172E-02
RMM:   3    -0.133605326264E+03    0.93805E-05   -0.16122E-05  2236   0.183E-02
  30 F= -.13360533E+03 E0= -.13360558E+03  d E =0.115163E-04
quench:  g(F)=  0.000E+00 g(S)=  0.000E+00 dE (1.order)= 0.000E+00
 bond charge predicted
       N       E                     dE             d eps       ncg     rms          rms(c)
DAV:   1    -0.133605312408E+03    0.23237E-04   -0.88285E-04  4563   0.635E-02    0.111E-02
RMM:   2    -0.133605317496E+03   -0.50886E-05   -0.61702E-05  2722   0.163E-02
  31 F= -.13360532E+03 E0= -.13360557E+03  d E =0.876814E-05
quench:  g(F)=  0.000E+00 g(S)=  0.000E+00 dE (1.order)= 0.000E+00
 bond charge predicted
       N       E                     dE             d eps       ncg     rms          rms(c)
DAV:   1    -0.133605294284E+03    0.18124E-04   -0.12466E-03  4698   0.881E-02    0.106E-02
RMM:   2    -0.133605302709E+03   -0.84251E-05   -0.67715E-05  2999   0.207E-02
  32 F= -.13360530E+03 E0= -.13360556E+03  d E =0.147873E-04
quench:  g(F)=  0.000E+00 g(S)=  0.000E+00 dE (1.order)= 0.000E+00
 bond charge predicted
       N       E                     dE             d eps       ncg     rms          rms(c)
DAV:   1    -0.133605283572E+03    0.10712E-04   -0.10479E-03  5526   0.120E-01    0.140E-02
RMM:   2    -0.133605293011E+03   -0.94384E-05   -0.85475E-05  2903   0.225E-02
  33 F= -.13360529E+03 E0= -.13360555E+03  d E =0.969839E-05
quench:  g(F)=  0.000E+00 g(S)=  0.000E+00 dE (1.order)= 0.000E+00
 bond charge predicted
       N       E                     dE             d eps       ncg     rms          rms(c)
DAV:   1    -0.133605277047E+03    0.65250E-05   -0.85617E-04  5571   0.145E-01    0.121E-02
RMM:   2    -0.133605292103E+03   -0.15055E-04   -0.74486E-05  2951   0.265E-02    0.185E-02
RMM:   3    -0.133605281000E+03    0.11102E-04   -0.17056E-05  2239   0.186E-02    0.819E-03
RMM:   4    -0.133605280518E+03    0.48201E-06   -0.38464E-06  2136   0.102E-02
  34 F= -.13360528E+03 E0= -.13360554E+03  d E =0.124925E-04
quench:  g(F)=  0.000E+00 g(S)=  0.000E+00 dE (1.order)= 0.000E+00
 bond charge predicted
       N       E                     dE             d eps       ncg     rms          rms(c)
DAV:   1    -0.133605267531E+03    0.13469E-04   -0.84517E-04  4041   0.519E-02    0.919E-03
RMM:   2    -0.133605271526E+03   -0.39948E-05   -0.45348E-05  2567   0.152E-02
  35 F= -.13360527E+03 E0= -.13360553E+03  d E =0.899225E-05
quench:  g(F)=  0.000E+00 g(S)=  0.000E+00 dE (1.order)= 0.000E+00
 bond charge predicted
       N       E                     dE             d eps       ncg     rms          rms(c)
DAV:   1    -0.133605244228E+03    0.23304E-04   -0.15921E-03  4617   0.983E-02    0.114E-02
RMM:   2    -0.133605254789E+03   -0.10561E-04   -0.81251E-05  3182   0.233E-02    0.119E-02
RMM:   3    -0.133605251393E+03    0.33953E-05   -0.11119E-05  2224   0.153E-02
  36 F= -.13360525E+03 E0= -.13360551E+03  d E =0.201326E-04
quench:  g(F)=  0.000E+00 g(S)=  0.000E+00 dE (1.order)= 0.000E+00
 bond charge predicted
       N       E                     dE             d eps       ncg     rms          rms(c)
DAV:   1    -0.133605223360E+03    0.31429E-04   -0.18424E-03  4401   0.862E-02    0.145E-02
RMM:   2    -0.133605234285E+03   -0.10925E-04   -0.12761E-04  3261   0.219E-02    0.110E-02
RMM:   3    -0.133605232479E+03    0.18060E-05   -0.90846E-06  2198   0.137E-02
  37 F= -.13360523E+03 E0= -.13360549E+03  d E =0.189147E-04
quench:  g(F)=  0.000E+00 g(S)=  0.000E+00 dE (1.order)= 0.000E+00
 bond charge predicted
       N       E                     dE             d eps       ncg     rms          rms(c)
DAV:   1    -0.133605215128E+03    0.19156E-04   -0.14848E-03  4932   0.102E-01    0.111E-02
RMM:   2    -0.133605227741E+03   -0.12612E-04   -0.84031E-05  3092   0.221E-02    0.140E-02
RMM:   3    -0.133605221913E+03    0.58279E-05   -0.12599E-05  2234   0.168E-02
  38 F= -.13360522E+03 E0= -.13360547E+03  d E =0.105659E-04
quench:  g(F)=  0.000E+00 g(S)=  0.000E+00 dE (1.order)= 0.000E+00
 bond charge predicted
       N       E                     dE             d eps       ncg     rms          rms(c)
DAV:   1    -0.133605205861E+03    0.21880E-04   -0.95199E-04  4437   0.632E-02    0.106E-02
RMM:   2    -0.133605211267E+03   -0.54064E-05   -0.62941E-05  2715   0.162E-02
  39 F= -.13360521E+03 E0= -.13360547E+03  d E =0.106456E-04
quench:  g(F)=  0.000E+00 g(S)=  0.000E+00 dE (1.order)= 0.000E+00
 bond charge predicted
       N       E                     dE             d eps       ncg     rms          rms(c)
DAV:   1    -0.133605189916E+03    0.15945E-04   -0.12194E-03  4356   0.763E-02    0.102E-02
RMM:   2    -0.133605197224E+03   -0.73082E-05   -0.66377E-05  2918   0.199E-02
  40 F= -.13360520E+03 E0= -.13360545E+03  d E =0.140429E-04
quench:  g(F)=  0.000E+00 g(S)=  0.000E+00 dE (1.order)= 0.000E+00
 bond charge predicted
       N       E                     dE             d eps       ncg     rms          rms(c)
DAV:   1    -0.133605176490E+03    0.13426E-04   -0.11513E-03  5355   0.109E-01    0.142E-02
RMM:   2    -0.133605186889E+03   -0.10399E-04   -0.90742E-05  2949   0.227E-02    0.139E-02
RMM:   3    -0.133605183465E+03    0.34244E-05   -0.14736E-05  2253   0.177E-02
  41 F= -.13360518E+03 E0= -.13360543E+03  d E =0.137596E-04
quench:  g(F)=  0.000E+00 g(S)=  0.000E+00 dE (1.order)= 0.000E+00
 bond charge predicted
       N       E                     dE             d eps       ncg     rms          rms(c)
DAV:   1    -0.133605159102E+03    0.27787E-04   -0.15196E-03  4779   0.973E-02    0.108E-02
RMM:   2    -0.133605166668E+03   -0.75663E-05   -0.80334E-05  3037   0.190E-02
  42 F= -.13360517E+03 E0= -.13360542E+03  d E =0.167967E-04
quench:  g(F)=  0.000E+00 g(S)=  0.000E+00 dE (1.order)= 0.000E+00
 bond charge predicted
       N       E                     dE             d eps       ncg     rms          rms(c)
DAV:   1    -0.133605136626E+03    0.22476E-04   -0.16116E-03  4185   0.759E-02    0.145E-02
RMM:   2    -0.133605146363E+03   -0.97368E-05   -0.11190E-04  3181   0.215E-02    0.110E-02
RMM:   3    -0.133605145265E+03    0.10977E-05   -0.97615E-06  2234   0.145E-02
  43 F= -.13360515E+03 E0= -.13360540E+03  d E =0.214029E-04
quench:  g(F)=  0.000E+00 g(S)=  0.000E+00 dE (1.order)= 0.000E+00
 bond charge predicted
       N       E                     dE             d eps       ncg     rms          rms(c)
DAV:   1    -0.133605119405E+03    0.26958E-04   -0.19807E-03  4761   0.109E-01    0.122E-02
RMM:   2    -0.133605130563E+03   -0.11158E-04   -0.10770E-04  3379   0.215E-02    0.963E-03
RMM:   3    -0.133605129541E+03    0.10219E-05   -0.87853E-06  2225   0.132E-02
  44 F= -.13360513E+03 E0= -.13360539E+03  d E =0.157244E-04
quench:  g(F)=  0.000E+00 g(S)=  0.000E+00 dE (1.order)= 0.000E+00
 bond charge predicted
       N       E                     dE             d eps       ncg     rms          rms(c)
DAV:   1    -0.133605104734E+03    0.25828E-04   -0.14503E-03  4941   0.926E-02    0.126E-02
RMM:   2    -0.133605113452E+03   -0.87174E-05   -0.97540E-05  2987   0.189E-02
  45 F= -.13360511E+03 E0= -.13360537E+03  d E =0.160892E-04
quench:  g(F)=  0.000E+00 g(S)=  0.000E+00 dE (1.order)= 0.000E+00
 bond charge predicted
       N       E                     dE             d eps       ncg     rms          rms(c)
DAV:   1    -0.133605084683E+03    0.20051E-04   -0.17698E-03  4365   0.927E-02    0.123E-02
RMM:   2    -0.133605096530E+03   -0.11848E-04   -0.99788E-05  3338   0.240E-02    0.126E-02
RMM:   3    -0.133605093277E+03    0.32538E-05   -0.11531E-05  2227   0.156E-02
  46 F= -.13360509E+03 E0= -.13360535E+03  d E =0.201751E-04
quench:  g(F)=  0.000E+00 g(S)=  0.000E+00 dE (1.order)= 0.000E+00
 bond charge predicted
       N       E                     dE             d eps       ncg     rms          rms(c)
DAV:   1    -0.133605069198E+03    0.27332E-04   -0.15654E-03  4707   0.860E-02    0.135E-02
RMM:   2    -0.133605078819E+03   -0.96210E-05   -0.11134E-04  3100   0.197E-02    0.979E-03
RMM:   3    -0.133605077112E+03    0.17069E-05   -0.69459E-06  2146   0.115E-02
  47 F= -.13360508E+03 E0= -.13360533E+03  d E =0.161641E-04
quench:  g(F)=  0.000E+00 g(S)=  0.000E+00 dE (1.order)= 0.000E+00
 bond charge predicted
       N       E                     dE             d eps       ncg     rms          rms(c)
DAV:   1    -0.133605050050E+03    0.28769E-04   -0.20090E-03  4176   0.944E-02    0.121E-02
RMM:   2    -0.133605062741E+03   -0.12691E-04   -0.98281E-05  3380   0.228E-02    0.123E-02
RMM:   3    -0.133605058532E+03    0.42093E-05   -0.12567E-05  2247   0.160E-02
  48 F= -.13360506E+03 E0= -.13360531E+03  d E =0.185803E-04
quench:  g(F)=  0.000E+00 g(S)=  0.000E+00 dE (1.order)= 0.000E+00
 bond charge predicted
       N       E                     dE             d eps       ncg     rms          rms(c)
DAV:   1    -0.133605026533E+03    0.36208E-04   -0.20175E-03  4275   0.904E-02    0.142E-02
RMM:   2    -0.133605038356E+03   -0.11823E-04   -0.13362E-04  3309   0.228E-02    0.105E-02
RMM:   3    -0.133605036320E+03    0.20367E-05   -0.84288E-06  2176   0.133E-02
  49 F= -.13360504E+03 E0= -.13360529E+03  d E =0.222125E-04
quench:  g(F)=  0.000E+00 g(S)=  0.000E+00 dE (1.order)= 0.000E+00
 bond charge predicted
       N       E                     dE             d eps       ncg     rms          rms(c)
DAV:   1    -0.133605009662E+03    0.28695E-04   -0.21838E-03  4599   0.109E-01    0.128E-02
RMM:   2    -0.133605024682E+03   -0.15020E-04   -0.11723E-04  3503   0.244E-02    0.135E-02
RMM:   3    -0.133605019776E+03    0.49061E-05   -0.13128E-05  2246   0.162E-02
  50 F= -.13360502E+03 E0= -.13360528E+03  d E =0.165441E-04
quench:  g(F)=  0.000E+00 g(S)=  0.000E+00 dE (1.order)= 0.000E+00
 bond charge predicted
       N       E                     dE             d eps       ncg     rms          rms(c)
DAV:   1    -0.133604996125E+03    0.28557E-04   -0.14405E-03  4590   0.805E-02    0.126E-02
RMM:   2    -0.133605004949E+03   -0.88238E-05   -0.10109E-04  3025   0.191E-02    0.943E-03
RMM:   3    -0.133605003724E+03    0.12250E-05   -0.67189E-06  2160   0.123E-02
  51 F= -.13360500E+03 E0= -.13360526E+03  d E =0.160518E-04
quench:  g(F)=  0.000E+00 g(S)=  0.000E+00 dE (1.order)= 0.000E+00
 bond charge predicted
       N       E                     dE             d eps       ncg     rms          rms(c)
DAV:   1    -0.133604975063E+03    0.29886E-04   -0.19983E-03  4455   0.105E-01    0.123E-02
RMM:   2    -0.133604988802E+03   -0.13739E-04   -0.99670E-05  3370   0.234E-02    0.130E-02
RMM:   3    -0.133604983755E+03    0.50468E-05   -0.13288E-05  2248   0.165E-02
  52 F= -.13360498E+03 E0= -.13360524E+03  d E =0.199685E-04
quench:  g(F)=  0.000E+00 g(S)=  0.000E+00 dE (1.order)= 0.000E+00
 bond charge predicted
       N       E                     dE             d eps       ncg     rms          rms(c)
DAV:   1    -0.133604947621E+03    0.41181E-04   -0.22400E-03  4212   0.929E-02    0.153E-02
RMM:   2    -0.133604960521E+03   -0.12899E-04   -0.14616E-04  3399   0.237E-02    0.113E-02
RMM:   3    -0.133604958255E+03    0.22655E-05   -0.87247E-06  2193   0.133E-02
  53 F= -.13360496E+03 E0= -.13360521E+03  d E =0.255000E-04
quench:  g(F)=  0.000E+00 g(S)=  0.000E+00 dE (1.order)= 0.000E+00
 bond charge predicted
       N       E                     dE             d eps       ncg     rms          rms(c)
DAV:   1    -0.133604929933E+03    0.30588E-04   -0.23284E-03  4743   0.116E-01    0.134E-02
RMM:   2    -0.133604946718E+03   -0.16785E-04   -0.12348E-04  3552   0.255E-02    0.148E-02
RMM:   3    -0.133604940440E+03    0.62778E-05   -0.15033E-05  2245   0.171E-02
  54 F= -.13360494E+03 E0= -.13360520E+03  d E =0.178150E-04
quench:  g(F)=  0.000E+00 g(S)=  0.000E+00 dE (1.order)= 0.000E+00
 bond charge predicted
       N       E                     dE             d eps       ncg     rms          rms(c)
DAV:   1    -0.133604916706E+03    0.30012E-04   -0.14119E-03  4626   0.786E-02    0.126E-02
RMM:   2    -0.133604925505E+03   -0.87986E-05   -0.10040E-04  3007   0.190E-02    0.946E-03
RMM:   3    -0.133604924387E+03    0.11183E-05   -0.69312E-06  2169   0.122E-02
  55 F= -.13360492E+03 E0= -.13360518E+03  d E =0.160536E-04
quench:  g(F)=  0.000E+00 g(S)=  0.000E+00 dE (1.order)= 0.000E+00
 bond charge predicted
       N       E                     dE             d eps       ncg     rms          rms(c)
DAV:   1    -0.133604893335E+03    0.32170E-04   -0.20661E-03  4446   0.106E-01    0.125E-02
RMM:   2    -0.133604906847E+03   -0.13512E-04   -0.10154E-04  3393   0.233E-02    0.126E-02
RMM:   3    -0.133604902375E+03    0.44721E-05   -0.12877E-05  2250   0.162E-02
  56 F= -.13360490E+03 E0= -.13360515E+03  d E =0.220118E-04
quench:  g(F)=  0.000E+00 g(S)=  0.000E+00 dE (1.order)= 0.000E+00
 bond charge predicted
       N       E                     dE             d eps       ncg     rms          rms(c)
DAV:   1    -0.133604860251E+03    0.46596E-04   -0.25533E-03  4221   0.989E-02    0.162E-02
RMM:   2    -0.133604874822E+03   -0.14571E-04   -0.16565E-04  3516   0.250E-02    0.120E-02
RMM:   3    -0.133604872024E+03    0.27980E-05   -0.90283E-06  2192   0.132E-02
  57 F= -.13360487E+03 E0= -.13360512E+03  d E =0.303506E-04
quench:  g(F)=  0.000E+00 g(S)=  0.000E+00 dE (1.order)= 0.000E+00
 bond charge predicted
       N       E                     dE             d eps       ncg     rms          rms(c)
DAV:   1    -0.133604837343E+03    0.37480E-04   -0.27729E-03  4662   0.125E-01    0.146E-02
RMM:   2    -0.133604858161E+03   -0.20818E-04   -0.15091E-04  3797   0.279E-02    0.164E-02
RMM:   3    -0.133604849782E+03    0.83795E-05   -0.16124E-05  2258   0.172E-02
  58 F= -.13360485E+03 E0= -.13360510E+03  d E =0.222428E-04
quench:  g(F)=  0.000E+00 g(S)=  0.000E+00 dE (1.order)= 0.000E+00
 bond charge predicted
       N       E                     dE             d eps       ncg     rms          rms(c)
DAV:   1    -0.133604825022E+03    0.33139E-04   -0.15623E-03  4662   0.832E-02    0.131E-02
RMM:   2    -0.133604834829E+03   -0.98071E-05   -0.11136E-04  3080   0.197E-02    0.995E-03
RMM:   3    -0.133604833386E+03    0.14428E-05   -0.70135E-06  2180   0.122E-02
  59 F= -.13360483E+03 E0= -.13360509E+03  d E =0.163953E-04
quench:  g(F)=  0.000E+00 g(S)=  0.000E+00 dE (1.order)= 0.000E+00
 bond charge predicted
       N       E                     dE             d eps       ncg     rms          rms(c)
DAV:   1    -0.133604801825E+03    0.33004E-04   -0.21164E-03  4491   0.108E-01    0.126E-02
RMM:   2    -0.133604816332E+03   -0.14507E-04   -0.10560E-04  3419   0.240E-02    0.133E-02
RMM:   3    -0.133604810987E+03    0.53445E-05   -0.13239E-05  2252   0.164E-02
  60 F= -.13360481E+03 E0= -.13360506E+03  d E =0.223989E-04
quench:  g(F)=  0.000E+00 g(S)=  0.000E+00 dE (1.order)= 0.000E+00
 bond charge predicted
       N       E                     dE             d eps       ncg     rms          rms(c)
DAV:   1    -0.133604764085E+03    0.52246E-04   -0.28660E-03  4122   0.103E-01    0.169E-02
RMM:   2    -0.133604779796E+03   -0.15710E-04   -0.17852E-04  3628   0.264E-02    0.123E-02
RMM:   3    -0.133604776822E+03    0.29742E-05   -0.93272E-06  2205   0.132E-02
  61 F= -.13360478E+03 E0= -.13360503E+03  d E =0.341658E-04
quench:  g(F)=  0.000E+00 g(S)=  0.000E+00 dE (1.order)= 0.000E+00
 bond charge predicted
       N       E                     dE             d eps       ncg     rms          rms(c)
DAV:   1    -0.133604727859E+03    0.51937E-04   -0.39033E-03  4473   0.142E-01    0.169E-02
RMM:   2    -0.133604753966E+03   -0.26107E-04   -0.20867E-04  4310   0.316E-02    0.167E-02
RMM:   3    -0.133604745721E+03    0.82451E-05   -0.17843E-05  2286   0.167E-02
  62 F= -.13360475E+03 E0= -.13360500E+03  d E =0.311004E-04
quench:  g(F)=  0.000E+00 g(S)=  0.000E+00 dE (1.order)= 0.000E+00
 bond charge predicted
       N       E                     dE             d eps       ncg     rms          rms(c)
DAV:   1    -0.133604709696E+03    0.44270E-04   -0.23845E-03  4788   0.106E-01    0.161E-02
RMM:   2    -0.133604724700E+03   -0.15004E-04   -0.17158E-04  3426   0.239E-02    0.123E-02
RMM:   3    -0.133604721946E+03    0.27541E-05   -0.91665E-06  2185   0.130E-02
  63 F= -.13360472E+03 E0= -.13360497E+03  d E =0.237755E-04
quench:  g(F)=  0.000E+00 g(S)=  0.000E+00 dE (1.order)= 0.000E+00
 bond charge predicted
       N       E                     dE             d eps       ncg     rms          rms(c)
DAV:   1    -0.133604691555E+03    0.33145E-04   -0.23369E-03  4689   0.119E-01    0.137E-02
RMM:   2    -0.133604711509E+03   -0.19953E-04   -0.12582E-04  3580   0.276E-02    0.181E-02
RMM:   3    -0.133604699663E+03    0.11846E-04   -0.16637E-05  2268   0.178E-02    0.881E-03
RMM:   4    -0.133604699240E+03    0.42241E-06   -0.49936E-06  2146   0.113E-02
  64 F= -.13360470E+03 E0= -.13360495E+03  d E =0.227052E-04
quench:  g(F)=  0.000E+00 g(S)=  0.000E+00 dE (1.order)= 0.000E+00
 bond charge predicted
       N       E                     dE             d eps       ncg     rms          rms(c)
DAV:   1    -0.133604660097E+03    0.39566E-04   -0.27228E-03  4149   0.904E-02    0.152E-02
RMM:   2    -0.133604672593E+03   -0.12496E-04   -0.14324E-04  3342   0.248E-02    0.113E-02
RMM:   3    -0.133604671091E+03    0.15024E-05   -0.10497E-05  2214   0.143E-02
  65 F= -.13360467E+03 E0= -.13360492E+03  d E =0.281499E-04
quench:  g(F)=  0.000E+00 g(S)=  0.000E+00 dE (1.order)= 0.000E+00
 bond charge predicted
       N       E                     dE             d eps       ncg     rms          rms(c)
DAV:   1    -0.133604617667E+03    0.54926E-04   -0.41158E-03  4284   0.142E-01    0.167E-02
RMM:   2    -0.133604639720E+03   -0.22053E-04   -0.21064E-04  4397   0.312E-02    0.125E-02
RMM:   3    -0.133604637609E+03    0.21103E-05   -0.14398E-05  2295   0.142E-02
  66 F= -.13360464E+03 E0= -.13360489E+03  d E =0.334812E-04
quench:  g(F)=  0.000E+00 g(S)=  0.000E+00 dE (1.order)= 0.000E+00
 bond charge predicted
       N       E                     dE             d eps       ncg     rms          rms(c)
DAV:   1    -0.133604598772E+03    0.40948E-04   -0.28941E-03  5031   0.128E-01    0.177E-02
RMM:   2    -0.133604616036E+03   -0.17264E-04   -0.19861E-04  3529   0.259E-02    0.134E-02
RMM:   3    -0.133604612758E+03    0.32783E-05   -0.10793E-05  2231   0.139E-02
  67 F= -.13360461E+03 E0= -.13360487E+03  d E =0.248515E-04
quench:  g(F)=  0.000E+00 g(S)=  0.000E+00 dE (1.order)= 0.000E+00
 bond charge predicted
       N       E                     dE             d eps       ncg     rms          rms(c)
DAV:   1    -0.133604588858E+03    0.27178E-04   -0.21801E-03  5013   0.126E-01    0.138E-02
RMM:   2    -0.133604611162E+03   -0.22304E-04   -0.12456E-04  3455   0.290E-02    0.205E-02
RMM:   3    -0.133604595961E+03    0.15201E-04   -0.18810E-05  2269   0.194E-02    0.857E-03
RMM:   4    -0.133604595691E+03    0.27032E-06   -0.51364E-06  2158   0.110E-02
  68 F= -.13360460E+03 E0= -.13360485E+03  d E =0.170672E-04
quench:  g(F)=  0.000E+00 g(S)=  0.000E+00 dE (1.order)= 0.000E+00
 bond charge predicted
       N       E                     dE             d eps       ncg     rms          rms(c)
DAV:   1    -0.133604560688E+03    0.35273E-04   -0.23171E-03  4095   0.835E-02    0.140E-02
RMM:   2    -0.133604571287E+03   -0.10599E-04   -0.11951E-04  3174   0.233E-02    0.105E-02
RMM:   3    -0.133604570529E+03    0.75811E-06   -0.11066E-05  2222   0.146E-02
  69 F= -.13360457E+03 E0= -.13360482E+03  d E =0.251615E-04
quench:  g(F)=  0.000E+00 g(S)=  0.000E+00 dE (1.order)= 0.000E+00
 bond charge predicted
       N       E                     dE             d eps       ncg     rms          rms(c)
DAV:   1    -0.133604515113E+03    0.56175E-04   -0.41583E-03  4239   0.140E-01    0.167E-02
RMM:   2    -0.133604535318E+03   -0.20205E-04   -0.20185E-04  4399   0.308E-02    0.111E-02
RMM:   3    -0.133604534594E+03    0.72359E-06   -0.12364E-05  2288   0.128E-02
  70 F= -.13360453E+03 E0= -.13360478E+03  d E =0.359349E-04
quench:  g(F)=  0.000E+00 g(S)=  0.000E+00 dE (1.order)= 0.000E+00
 bond charge predicted
       N       E                     dE             d eps       ncg     rms          rms(c)
DAV:   1    -0.133604487533E+03    0.47785E-04   -0.34720E-03  4959   0.138E-01    0.192E-02
RMM:   2    -0.133604508404E+03   -0.20870E-04   -0.23626E-04  3725   0.287E-02    0.147E-02
RMM:   3    -0.133604504522E+03    0.38817E-05   -0.12840E-05  2287   0.147E-02
  71 F= -.13360450E+03 E0= -.13360476E+03  d E =0.300723E-04
quench:  g(F)=  0.000E+00 g(S)=  0.000E+00 dE (1.order)= 0.000E+00
 bond charge predicted
       N       E                     dE             d eps       ncg     rms          rms(c)
DAV:   1    -0.133604482040E+03    0.26363E-04   -0.21454E-03  5103   0.128E-01    0.132E-02
RMM:   2    -0.133604499856E+03   -0.17816E-04   -0.12728E-04  3398   0.260E-02    0.158E-02
RMM:   3    -0.133604492270E+03    0.75863E-05   -0.14233E-05  2247   0.173E-02
  72 F= -.13360449E+03 E0= -.13360474E+03  d E =0.122521E-04
quench:  g(F)=  0.000E+00 g(S)=  0.000E+00 dE (1.order)= 0.000E+00
 bond charge predicted
       N       E                     dE             d eps       ncg     rms          rms(c)
DAV:   1    -0.133604463100E+03    0.36756E-04   -0.16677E-03  4338   0.844E-02    0.136E-02
RMM:   2    -0.133604472447E+03   -0.93466E-05   -0.10773E-04  3081   0.208E-02    0.940E-03
RMM:   3    -0.133604471052E+03    0.13955E-05   -0.71396E-06  2136   0.122E-02
  73 F= -.13360447E+03 E0= -.13360472E+03  d E =0.212184E-04
quench:  g(F)=  0.000E+00 g(S)=  0.000E+00 dE (1.order)= 0.000E+00
 bond charge predicted
       N       E                     dE             d eps       ncg     rms          rms(c)
DAV:   1    -0.133604429278E+03    0.43169E-04   -0.32452E-03  4131   0.120E-01    0.151E-02
RMM:   2    -0.133604448492E+03   -0.19214E-04   -0.15400E-04  4010   0.278E-02    0.140E-02
RMM:   3    -0.133604442991E+03    0.55015E-05   -0.14698E-05  2268   0.161E-02
  74 F= -.13360444E+03 E0= -.13360470E+03  d E =0.280609E-04
quench:  g(F)=  0.000E+00 g(S)=  0.000E+00 dE (1.order)= 0.000E+00
 bond charge predicted
       N       E                     dE             d eps       ncg     rms          rms(c)
DAV:   1    -0.133604394695E+03    0.53797E-04   -0.33099E-03  4428   0.116E-01    0.182E-02
RMM:   2    -0.133604414344E+03   -0.19649E-04   -0.22422E-04  3763   0.279E-02    0.140E-02
RMM:   3    -0.133604410421E+03    0.39230E-05   -0.10678E-05  2234   0.134E-02
  75 F= -.13360441E+03 E0= -.13360466E+03  d E =0.325697E-04
quench:  g(F)=  0.000E+00 g(S)=  0.000E+00 dE (1.order)= 0.000E+00
 bond charge predicted
       N       E                     dE             d eps       ncg     rms          rms(c)
DAV:   1    -0.133604379093E+03    0.35251E-04   -0.29331E-03  4815   0.134E-01    0.150E-02
RMM:   2    -0.133604402886E+03   -0.23792E-04   -0.16691E-04  3837   0.295E-02    0.181E-02
RMM:   3    -0.133604391995E+03    0.10891E-04   -0.15790E-05  2266   0.173E-02    0.104E-02
RMM:   4    -0.133604391149E+03    0.84582E-06   -0.57234E-06  2142   0.120E-02
  76 F= -.13360439E+03 E0= -.13360464E+03  d E =0.192717E-04
quench:  g(F)=  0.000E+00 g(S)=  0.000E+00 dE (1.order)= 0.000E+00
 bond charge predicted
       N       E                     dE             d eps       ncg     rms          rms(c)
DAV:   1    -0.133604361815E+03    0.30180E-04   -0.21688E-03  4059   0.793E-02    0.138E-02
RMM:   2    -0.133604372516E+03   -0.10702E-04   -0.11956E-04  3159   0.229E-02    0.113E-02
RMM:   3    -0.133604371348E+03    0.11680E-05   -0.10257E-05  2219   0.147E-02
  77 F= -.13360437E+03 E0= -.13360462E+03  d E =0.198011E-04
quench:  g(F)=  0.000E+00 g(S)=  0.000E+00 dE (1.order)= 0.000E+00
 bond charge predicted
       N       E                     dE             d eps       ncg     rms          rms(c)
DAV:   1    -0.133604324581E+03    0.47935E-04   -0.34893E-03  4275   0.131E-01    0.151E-02
RMM:   2    -0.133604342076E+03   -0.17495E-04   -0.17055E-04  4098   0.286E-02    0.104E-02
RMM:   3    -0.133604341440E+03    0.63570E-06   -0.12392E-05  2276   0.135E-02
  78 F= -.13360434E+03 E0= -.13360459E+03  d E =0.299079E-04
quench:  g(F)=  0.000E+00 g(S)=  0.000E+00 dE (1.order)= 0.000E+00
 bond charge predicted
       N       E                     dE             d eps       ncg     rms          rms(c)
DAV:   1    -0.133604292105E+03    0.49971E-04   -0.35199E-03  4797   0.132E-01    0.189E-02
RMM:   2    -0.133604312246E+03   -0.20141E-04   -0.23146E-04  3768   0.280E-02    0.141E-02
RMM:   3    -0.133604308014E+03    0.42316E-05   -0.11571E-05  2257   0.136E-02
  79 F= -.13360431E+03 E0= -.13360456E+03  d E =0.334263E-04
quench:  g(F)=  0.000E+00 g(S)=  0.000E+00 dE (1.order)= 0.000E+00
 bond charge predicted
       N       E                     dE             d eps       ncg     rms          rms(c)
DAV:   1    -0.133604276936E+03    0.35310E-04   -0.31164E-03  4896   0.142E-01    0.160E-02
RMM:   2    -0.133604305926E+03   -0.28990E-04   -0.18264E-04  3935   0.327E-02    0.217E-02
RMM:   3    -0.133604288368E+03    0.17558E-04   -0.19316E-05  2284   0.187E-02    0.104E-02
RMM:   4    -0.133604287687E+03    0.68119E-06   -0.66737E-06  2163   0.128E-02
  80 F= -.13360429E+03 E0= -.13360454E+03  d E =0.203270E-04
quench:  g(F)=  0.000E+00 g(S)=  0.000E+00 dE (1.order)= 0.000E+00
 bond charge predicted
       N       E                     dE             d eps       ncg     rms          rms(c)
DAV:   1    -0.133604253733E+03    0.34635E-04   -0.24269E-03  4068   0.846E-02    0.146E-02
RMM:   2    -0.133604265760E+03   -0.12028E-04   -0.13438E-04  3261   0.245E-02    0.117E-02
RMM:   3    -0.133604264394E+03    0.13664E-05   -0.11264E-05  2220   0.150E-02
  81 F= -.13360426E+03 E0= -.13360452E+03  d E =0.232930E-04
quench:  g(F)=  0.000E+00 g(S)=  0.000E+00 dE (1.order)= 0.000E+00
 bond charge predicted
       N       E                     dE             d eps       ncg     rms          rms(c)
DAV:   1    -0.133604214804E+03    0.50957E-04   -0.37526E-03  4293   0.136E-01    0.158E-02
RMM:   2    -0.133604234238E+03   -0.19434E-04   -0.18811E-04  4199   0.297E-02    0.112E-02
RMM:   3    -0.133604233151E+03    0.10870E-05   -0.13039E-05  2283   0.138E-02
  82 F= -.13360423E+03 E0= -.13360448E+03  d E =0.312427E-04
quench:  g(F)=  0.000E+00 g(S)=  0.000E+00 dE (1.order)= 0.000E+00
 bond charge predicted
       N       E                     dE             d eps       ncg     rms          rms(c)
DAV:   1    -0.133604186414E+03    0.47824E-04   -0.33978E-03  4851   0.132E-01    0.189E-02
RMM:   2    -0.133604206093E+03   -0.19679E-04   -0.22634E-04  3712   0.277E-02    0.141E-02
RMM:   3    -0.133604202026E+03    0.40676E-05   -0.11624E-05  2256   0.139E-02
  83 F= -.13360420E+03 E0= -.13360445E+03  d E =0.311256E-04
quench:  g(F)=  0.000E+00 g(S)=  0.000E+00 dE (1.order)= 0.000E+00
 bond charge predicted
       N       E                     dE             d eps       ncg     rms          rms(c)
DAV:   1    -0.133604175805E+03    0.30289E-04   -0.26816E-03  4986   0.136E-01    0.151E-02
RMM:   2    -0.133604202336E+03   -0.26531E-04   -0.15774E-04  3731   0.313E-02    0.215E-02
RMM:   3    -0.133604185320E+03    0.17017E-04   -0.19411E-05  2285   0.189E-02    0.969E-03
RMM:   4    -0.133604184776E+03    0.54324E-06   -0.59354E-06  2157   0.119E-02
  84 F= -.13360418E+03 E0= -.13360443E+03  d E =0.172494E-04
quench:  g(F)=  0.000E+00 g(S)=  0.000E+00 dE (1.order)= 0.000E+00
 bond charge predicted
       N       E                     dE             d eps       ncg     rms          rms(c)
DAV:   1    -0.133604149874E+03    0.35446E-04   -0.23431E-03  4068   0.833E-02    0.143E-02
RMM:   2    -0.133604161189E+03   -0.11315E-04   -0.12635E-04  3203   0.239E-02    0.112E-02
RMM:   3    -0.133604160024E+03    0.11646E-05   -0.10882E-05  2218   0.149E-02
  85 F= -.13360416E+03 E0= -.13360441E+03  d E =0.247523E-04
quench:  g(F)=  0.000E+00 g(S)=  0.000E+00 dE (1.order)= 0.000E+00
 bond charge predicted
       N       E                     dE             d eps       ncg     rms          rms(c)
DAV:   1    -0.133604096327E+03    0.64862E-04   -0.47776E-03  4167   0.148E-01    0.177E-02
RMM:   2    -0.133604119010E+03   -0.22684E-04   -0.22473E-04  4573   0.329E-02    0.115E-02
RMM:   3    -0.133604118683E+03    0.32715E-06   -0.14331E-05  2293   0.135E-02
  86 F= -.13360412E+03 E0= -.13360436E+03  d E =0.413408E-04
quench:  g(F)=  0.000E+00 g(S)=  0.000E+00 dE (1.order)= 0.000E+00
 bond charge predicted
       N       E                     dE             d eps       ncg     rms          rms(c)
DAV:   1    -0.133604033838E+03    0.85172E-04   -0.63332E-03  4554   0.171E-01    0.246E-02
RMM:   2    -0.133604070275E+03   -0.36437E-04   -0.41215E-04  4494   0.378E-02    0.179E-02
RMM:   3    -0.133604061429E+03    0.88465E-05   -0.16385E-05  2344   0.134E-02
  87 F= -.13360406E+03 E0= -.13360431E+03  d E =0.572543E-04
quench:  g(F)=  0.000E+00 g(S)=  0.000E+00 dE (1.order)= 0.000E+00
 bond charge predicted
       N       E                     dE             d eps       ncg     rms          rms(c)
DAV:   1    -0.133604002542E+03    0.67733E-04   -0.60865E-03  4824   0.191E-01    0.222E-02
RMM:   2    -0.133604055980E+03   -0.53438E-04   -0.36444E-04  4785   0.436E-02    0.272E-02
RMM:   3    -0.133604028128E+03    0.27852E-04   -0.28236E-05  2399   0.202E-02    0.148E-02
RMM:   4    -0.133604026346E+03    0.17819E-05   -0.11614E-05  2198   0.168E-02
  88 F= -.13360403E+03 E0= -.13360428E+03  d E =0.350828E-04
quench:  g(F)=  0.000E+00 g(S)=  0.000E+00 dE (1.order)= 0.000E+00
 bond charge predicted
       N       E                     dE             d eps       ncg     rms          rms(c)
DAV:   1    -0.133603990224E+03    0.37904E-04   -0.30350E-03  4059   0.923E-02    0.171E-02
RMM:   2    -0.133604007565E+03   -0.17341E-04   -0.19389E-04  3561   0.283E-02    0.148E-02
RMM:   3    -0.133604004293E+03    0.32719E-05   -0.12691E-05  2256   0.148E-02
  89 F= -.13360400E+03 E0= -.13360425E+03  d E =0.220528E-04
quench:  g(F)=  0.000E+00 g(S)=  0.000E+00 dE (1.order)= 0.000E+00
 bond charge predicted
       N       E                     dE             d eps       ncg     rms          rms(c)
DAV:   1    -0.133603945733E+03    0.61832E-04   -0.43371E-03  4293   0.149E-01    0.171E-02
RMM:   2    -0.133603968434E+03   -0.22701E-04   -0.21207E-04  4444   0.321E-02    0.123E-02
RMM:   3    -0.133603966757E+03    0.16766E-05   -0.13900E-05  2279   0.147E-02
  90 F= -.13360397E+03 E0= -.13360421E+03  d E =0.375360E-04
quench:  g(F)=  0.000E+00 g(S)=  0.000E+00 dE (1.order)= 0.000E+00
 bond charge predicted
       N       E                     dE             d eps       ncg     rms          rms(c)
DAV:   1    -0.133603890147E+03    0.78287E-04   -0.56927E-03  4509   0.160E-01    0.237E-02
RMM:   2    -0.133603921805E+03   -0.31658E-04   -0.36332E-04  4346   0.356E-02    0.171E-02
RMM:   3    -0.133603913835E+03    0.79695E-05   -0.14401E-05  2260   0.128E-02
  91 F= -.13360391E+03 E0= -.13360416E+03  d E =0.529218E-04
quench:  g(F)=  0.000E+00 g(S)=  0.000E+00 dE (1.order)= 0.000E+00
 bond charge predicted
       N       E                     dE             d eps       ncg     rms          rms(c)
DAV:   1    -0.133603856809E+03    0.64996E-04   -0.60113E-03  4077   0.140E-01    0.204E-02
RMM:   2    -0.133603884369E+03   -0.27560E-04   -0.29655E-04  4651   0.357E-02    0.148E-02
RMM:   3    -0.133603880147E+03    0.42226E-05   -0.15963E-05  2240   0.146E-02
  92 F= -.13360388E+03 E0= -.13360413E+03  d E =0.336887E-04
quench:  g(F)=  0.000E+00 g(S)=  0.000E+00 dE (1.order)= 0.000E+00
 bond charge predicted
       N       E                     dE             d eps       ncg     rms          rms(c)
DAV:   1    -0.133603843512E+03    0.40857E-04   -0.30595E-03  4293   0.113E-01    0.176E-02
RMM:   2    -0.133603861853E+03   -0.18341E-04   -0.20777E-04  3681   0.327E-02    0.155E-02
RMM:   3    -0.133603857869E+03    0.39843E-05   -0.15522E-05  2179   0.170E-02
  93 F= -.13360386E+03 E0= -.13360410E+03  d E =0.222778E-04
quench:  g(F)=  0.000E+00 g(S)=  0.000E+00 dE (1.order)= 0.000E+00
 bond charge predicted
       N       E                     dE             d eps       ncg     rms          rms(c)
DAV:   1    -0.133603806754E+03    0.55099E-04   -0.39537E-03  4041   0.127E-01    0.162E-02
RMM:   2    -0.133603825154E+03   -0.18399E-04   -0.17962E-04  4118   0.298E-02    0.111E-02
RMM:   3    -0.133603825339E+03   -0.18501E-06   -0.13357E-05  2271   0.145E-02
  94 F= -.13360383E+03 E0= -.13360408E+03  d E =0.325301E-04
quench:  g(F)=  0.000E+00 g(S)=  0.000E+00 dE (1.order)= 0.000E+00
 bond charge predicted
       N       E                     dE             d eps       ncg     rms          rms(c)
DAV:   1    -0.133603758582E+03    0.66572E-04   -0.47108E-03  4671   0.152E-01    0.214E-02
RMM:   2    -0.133603787082E+03   -0.28500E-04   -0.31960E-04  4166   0.330E-02    0.155E-02
RMM:   3    -0.133603780349E+03    0.67326E-05   -0.13484E-05  2278   0.131E-02
  95 F= -.13360378E+03 E0= -.13360403E+03  d E =0.449894E-04
quench:  g(F)=  0.000E+00 g(S)=  0.000E+00 dE (1.order)= 0.000E+00
 bond charge predicted
       N       E                     dE             d eps       ncg     rms          rms(c)
DAV:   1    -0.133603728244E+03    0.58838E-04   -0.51645E-03  4662   0.168E-01    0.201E-02
RMM:   2    -0.133603775879E+03   -0.47634E-04   -0.29290E-04  4621   0.393E-02    0.249E-02
RMM:   3    -0.133603751695E+03    0.24184E-04   -0.26171E-05  2349   0.198E-02    0.134E-02
RMM:   4    -0.133603749318E+03    0.23771E-05   -0.10165E-05  2229   0.159E-02
  96 F= -.13360375E+03 E0= -.13360400E+03  d E =0.310318E-04
quench:  g(F)=  0.000E+00 g(S)=  0.000E+00 dE (1.order)= 0.000E+00
 bond charge predicted
       N       E                     dE             d eps       ncg     rms          rms(c)
DAV:   1    -0.133603705415E+03    0.46280E-04   -0.35923E-03  4140   0.978E-02    0.181E-02
RMM:   2    -0.133603724507E+03   -0.19091E-04   -0.21322E-04  3691   0.286E-02    0.145E-02
RMM:   3    -0.133603720985E+03    0.35220E-05   -0.11931E-05  2235   0.136E-02
  97 F= -.13360372E+03 E0= -.13360397E+03  d E =0.283330E-04
quench:  g(F)=  0.000E+00 g(S)=  0.000E+00 dE (1.order)= 0.000E+00
 bond charge predicted
       N       E                     dE             d eps       ncg     rms          rms(c)
DAV:   1    -0.133603660770E+03    0.63737E-04   -0.48567E-03  4338   0.156E-01    0.179E-02
RMM:   2    -0.133603688618E+03   -0.27848E-04   -0.24475E-04  4616   0.336E-02    0.147E-02
RMM:   3    -0.133603683880E+03    0.47386E-05   -0.16727E-05  2297   0.158E-02
  98 F= -.13360368E+03 E0= -.13360393E+03  d E =0.371051E-04
quench:  g(F)=  0.000E+00 g(S)=  0.000E+00 dE (1.order)= 0.000E+00
 bond charge predicted
       N       E                     dE             d eps       ncg     rms          rms(c)
DAV:   1    -0.133603620177E+03    0.68442E-04   -0.44197E-03  4671   0.142E-01    0.217E-02
RMM:   2    -0.133603646276E+03   -0.26099E-04   -0.30112E-04  4034   0.318E-02    0.164E-02
RMM:   3    -0.133603640293E+03    0.59826E-05   -0.14157E-05  2251   0.139E-02
  99 F= -.13360364E+03 E0= -.13360389E+03  d E =0.435866E-04
quench:  g(F)=  0.000E+00 g(S)=  0.000E+00 dE (1.order)= 0.000E+00
 bond charge predicted
       N       E                     dE             d eps       ncg     rms          rms(c)
DAV:   1    -0.133603599900E+03    0.46375E-04   -0.41702E-03  4725   0.154E-01    0.184E-02
RMM:   2    -0.133603639036E+03   -0.39136E-04   -0.23954E-04  4323   0.370E-02    0.251E-02
RMM:   3    -0.133603614715E+03    0.24321E-04   -0.23229E-05  2325   0.194E-02    0.117E-02
RMM:   4    -0.133603613759E+03    0.95636E-06   -0.87503E-06  2179   0.145E-02
 100 F= -.13360361E+03 E0= -.13360386E+03  d E =0.265341E-04
quench:  g(F)=  0.000E+00 g(S)=  0.000E+00 dE (1.order)= 0.000E+00
 bond charge predicted
       N       E                     dE             d eps       ncg     rms          rms(c)
DAV:   1    -0.133603567183E+03    0.47532E-04   -0.34824E-03  4104   0.100E-01    0.175E-02
RMM:   2    -0.133603584447E+03   -0.17264E-04   -0.19298E-04  3619   0.290E-02    0.137E-02
RMM:   3    -0.133603582248E+03    0.21996E-05   -0.15259E-05  2250   0.149E-02
 101 F= -.13360358E+03 E0= -.13360383E+03  d E =0.315112E-04
quench:  g(F)=  0.000E+00 g(S)=  0.000E+00 dE (1.order)= 0.000E+00
 bond charge predicted
       N       E                     dE             d eps       ncg     rms          rms(c)
DAV:   1    -0.133603506931E+03    0.77516E-04   -0.60855E-03  4212   0.169E-01    0.201E-02
RMM:   2    -0.133603536852E+03   -0.29920E-04   -0.29261E-04  4951   0.367E-02    0.137E-02
RMM:   3    -0.133603535383E+03    0.14688E-05   -0.15850E-05  2311   0.141E-02
 102 F= -.13360354E+03 E0= -.13360378E+03  d E =0.468646E-04
quench:  g(F)=  0.000E+00 g(S)=  0.000E+00 dE (1.order)= 0.000E+00
 bond charge predicted
       N       E                     dE             d eps       ncg     rms          rms(c)
DAV:   1    -0.133603461497E+03    0.75355E-04   -0.57234E-03  4851   0.171E-01    0.242E-02
RMM:   2    -0.133603494962E+03   -0.33464E-04   -0.37961E-04  4191   0.357E-02    0.183E-02
RMM:   3    -0.133603487857E+03    0.71044E-05   -0.18138E-05  2365   0.152E-02
 103 F= -.13360349E+03 E0= -.13360374E+03  d E =0.475257E-04
quench:  g(F)=  0.000E+00 g(S)=  0.000E+00 dE (1.order)= 0.000E+00
 bond charge predicted
       N       E                     dE             d eps       ncg     rms          rms(c)
DAV:   1    -0.133603451419E+03    0.43543E-04   -0.40277E-03  5049   0.170E-01    0.184E-02
RMM:   2    -0.133603491703E+03   -0.40284E-04   -0.25098E-04  4197   0.372E-02    0.249E-02
RMM:   3    -0.133603468149E+03    0.23554E-04   -0.20863E-05  2313   0.191E-02    0.121E-02
RMM:   4    -0.133603467133E+03    0.10157E-05   -0.82994E-06  2173   0.141E-02
 104 F= -.13360347E+03 E0= -.13360371E+03  d E =0.207241E-04
quench:  g(F)=  0.000E+00 g(S)=  0.000E+00 dE (1.order)= 0.000E+00
 bond charge predicted
       N       E                     dE             d eps       ncg     rms          rms(c)
DAV:   1    -0.133603423674E+03    0.44475E-04   -0.31874E-03  4059   0.969E-02    0.164E-02
RMM:   2    -0.133603439125E+03   -0.15451E-04   -0.16957E-04  3494   0.277E-02    0.128E-02
RMM:   3    -0.133603437602E+03    0.15232E-05   -0.15791E-05  2252   0.152E-02
 105 F= -.13360344E+03 E0= -.13360368E+03  d E =0.295314E-04
quench:  g(F)=  0.000E+00 g(S)=  0.000E+00 dE (1.order)= 0.000E+00
 bond charge predicted
       N       E                     dE             d eps       ncg     rms          rms(c)
DAV:   1    -0.133603360248E+03    0.78877E-04   -0.65244E-03  4149   0.171E-01    0.205E-02
RMM:   2    -0.133603390313E+03   -0.30065E-04   -0.29940E-04  5019   0.376E-02    0.131E-02
RMM:   3    -0.133603389353E+03    0.95931E-06   -0.14381E-05  2314   0.133E-02
 106 F= -.13360339E+03 E0= -.13360363E+03  d E =0.482484E-04
quench:  g(F)=  0.000E+00 g(S)=  0.000E+00 dE (1.order)= 0.000E+00
 bond charge predicted
       N       E                     dE             d eps       ncg     rms          rms(c)
DAV:   1    -0.133603298255E+03    0.92058E-04   -0.74282E-03  4707   0.188E-01    0.269E-02
RMM:   2    -0.133603341191E+03   -0.42937E-04   -0.48055E-04  4518   0.409E-02    0.202E-02
RMM:   3    -0.133603331619E+03    0.95725E-05   -0.21248E-05  2389   0.145E-02
 107 F= -.13360333E+03 E0= -.13360358E+03  d E =0.577347E-04
quench:  g(F)=  0.000E+00 g(S)=  0.000E+00 dE (1.order)= 0.000E+00
 bond charge predicted
       N       E                     dE             d eps       ncg     rms          rms(c)
DAV:   1    -0.133603287722E+03    0.53470E-04   -0.51095E-03  5013   0.186E-01    0.203E-02
RMM:   2    -0.133603330079E+03   -0.42358E-04   -0.31709E-04  4464   0.388E-02    0.235E-02
RMM:   3    -0.133603310767E+03    0.19312E-04   -0.21206E-05  2342   0.182E-02    0.143E-02
RMM:   4    -0.133603308843E+03    0.19241E-05   -0.99122E-06  2175   0.155E-02
 108 F= -.13360331E+03 E0= -.13360355E+03  d E =0.227753E-04
quench:  g(F)=  0.000E+00 g(S)=  0.000E+00 dE (1.order)= 0.000E+00
 bond charge predicted
       N       E                     dE             d eps       ncg     rms          rms(c)
DAV:   1    -0.133603274956E+03    0.35811E-04   -0.25844E-03  4086   0.854E-02    0.154E-02
RMM:   2    -0.133603288625E+03   -0.13669E-04   -0.15025E-04  3341   0.252E-02    0.130E-02
RMM:   3    -0.133603286685E+03    0.19404E-05   -0.11690E-05  2232   0.150E-02
 109 F= -.13360329E+03 E0= -.13360353E+03  d E =0.221585E-04
quench:  g(F)=  0.000E+00 g(S)=  0.000E+00 dE (1.order)= 0.000E+00
 bond charge predicted
       N       E                     dE             d eps       ncg     rms          rms(c)
DAV:   1    -0.133603217540E+03    0.71085E-04   -0.53310E-03  4158   0.156E-01    0.186E-02
RMM:   2    -0.133603242566E+03   -0.25026E-04   -0.24219E-04  4700   0.345E-02    0.117E-02
RMM:   3    -0.133603242557E+03    0.93787E-08   -0.15493E-05  2305   0.140E-02
 110 F= -.13360324E+03 E0= -.13360348E+03  d E =0.441280E-04
quench:  g(F)=  0.000E+00 g(S)=  0.000E+00 dE (1.order)= 0.000E+00
 bond charge predicted
       N       E                     dE             d eps       ncg     rms          rms(c)
DAV:   1    -0.133603142285E+03    0.10028E-03   -0.80764E-03  4464   0.189E-01    0.275E-02
RMM:   2    -0.133603185180E+03   -0.42896E-04   -0.48827E-04  4736   0.417E-02    0.196E-02
RMM:   3    -0.133603173982E+03    0.11198E-04   -0.17452E-05  2320   0.126E-02    0.118E-02
RMM:   4    -0.133603176897E+03   -0.29145E-05   -0.87757E-06  2274   0.128E-02
 111 F= -.13360318E+03 E0= -.13360342E+03  d E =0.656601E-04
quench:  g(F)=  0.000E+00 g(S)=  0.000E+00 dE (1.order)= 0.000E+00
 bond charge predicted
       N       E                     dE             d eps       ncg     rms          rms(c)
DAV:   1    -0.133603100887E+03    0.73095E-04   -0.84272E-03  4356   0.194E-01    0.243E-02
RMM:   2    -0.133603145174E+03   -0.44287E-04   -0.45334E-04  5196   0.443E-02    0.190E-02
RMM:   3    -0.133603138802E+03    0.63721E-05   -0.22782E-05  2422   0.170E-02
 112 F= -.13360314E+03 E0= -.13360339E+03  d E =0.380946E-04
quench:  g(F)=  0.000E+00 g(S)=  0.000E+00 dE (1.order)= 0.000E+00
 bond charge predicted
       N       E                     dE             d eps       ncg     rms          rms(c)
DAV:   1    -0.133603105034E+03    0.40140E-04   -0.30383E-03  5481   0.159E-01    0.173E-02
RMM:   2    -0.133603127685E+03   -0.22651E-04   -0.21890E-04  3601   0.306E-02    0.156E-02
RMM:   3    -0.133603123158E+03    0.45265E-05   -0.16290E-05  2300   0.164E-02
 113 F= -.13360312E+03 E0= -.13360336E+03  d E =0.156441E-04
quench:  g(F)=  0.000E+00 g(S)=  0.000E+00 dE (1.order)= 0.000E+00
 bond charge predicted
       N       E                     dE             d eps       ncg     rms          rms(c)
DAV:   1    -0.133603067864E+03    0.59821E-04   -0.40699E-03  4329   0.143E-01    0.167E-02
RMM:   2    -0.133603086587E+03   -0.18723E-04   -0.19103E-04  4191   0.299E-02    0.103E-02
RMM:   3    -0.133603084882E+03    0.17045E-05   -0.10343E-05  2220   0.122E-02
 114 F= -.13360308E+03 E0= -.13360333E+03  d E =0.382760E-04
quench:  g(F)=  0.000E+00 g(S)=  0.000E+00 dE (1.order)= 0.000E+00
 bond charge predicted
       N       E                     dE             d eps       ncg     rms          rms(c)
DAV:   1    -0.133603000098E+03    0.86488E-04   -0.70933E-03  4176   0.164E-01    0.252E-02
RMM:   2    -0.133603044977E+03   -0.44879E-04   -0.42316E-04  4727   0.401E-02    0.215E-02
RMM:   3    -0.133603032041E+03    0.12936E-04   -0.23584E-05  2390   0.181E-02    0.181E-02
RMM:   4    -0.133603026242E+03    0.57991E-05   -0.11365E-05  2201   0.183E-02
 115 F= -.13360303E+03 E0= -.13360327E+03  d E =0.586401E-04
quench:  g(F)=  0.000E+00 g(S)=  0.000E+00 dE (1.order)= 0.000E+00
 bond charge predicted
       N       E                     dE             d eps       ncg     rms          rms(c)
DAV:   1    -0.133602937368E+03    0.94673E-04   -0.10032E-02  4059   0.179E-01    0.255E-02
RMM:   2    -0.133602977777E+03   -0.40409E-04   -0.42842E-04  5287   0.434E-02    0.178E-02
RMM:   3    -0.133602974094E+03    0.36832E-05   -0.20775E-05  2399   0.156E-02
 116 F= -.13360297E+03 E0= -.13360322E+03  d E =0.521479E-04
quench:  g(F)=  0.000E+00 g(S)=  0.000E+00 dE (1.order)= 0.000E+00
 bond charge predicted
       N       E                     dE             d eps       ncg     rms          rms(c)
DAV:   1    -0.133602929329E+03    0.48448E-04   -0.45307E-03  5310   0.182E-01    0.217E-02
RMM:   2    -0.133602970352E+03   -0.41023E-04   -0.33853E-04  4136   0.386E-02    0.238E-02
RMM:   3    -0.133602952898E+03    0.17454E-04   -0.25956E-05  2372   0.194E-02    0.157E-02
RMM:   4    -0.133602949697E+03    0.32010E-05   -0.92963E-06  2176   0.150E-02
 117 F= -.13360295E+03 E0= -.13360319E+03  d E =0.243973E-04
quench:  g(F)=  0.000E+00 g(S)=  0.000E+00 dE (1.order)= 0.000E+00
 bond charge predicted
       N       E                     dE             d eps       ncg     rms          rms(c)
DAV:   1    -0.133602907756E+03    0.45142E-04   -0.40024E-03  4149   0.114E-01    0.160E-02
RMM:   2    -0.133602923407E+03   -0.15650E-04   -0.16186E-04  3774   0.278E-02    0.107E-02
RMM:   3    -0.133602923555E+03   -0.14791E-06   -0.11620E-05  2245   0.144E-02
 118 F= -.13360292E+03 E0= -.13360317E+03  d E =0.261423E-04
quench:  g(F)=  0.000E+00 g(S)=  0.000E+00 dE (1.order)= 0.000E+00
 bond charge predicted
       N       E                     dE             d eps       ncg     rms          rms(c)
DAV:   1    -0.133602843374E+03    0.80032E-04   -0.59783E-03  4410   0.167E-01    0.219E-02
RMM:   2    -0.133602878143E+03   -0.34769E-04   -0.37147E-04  4523   0.372E-02    0.151E-02
RMM:   3    -0.133602870971E+03    0.71719E-05   -0.14813E-05  2302   0.136E-02
 119 F= -.13360287E+03 E0= -.13360311E+03  d E =0.525833E-04
quench:  g(F)=  0.000E+00 g(S)=  0.000E+00 dE (1.order)= 0.000E+00
 bond charge predicted
       N       E                     dE             d eps       ncg     rms          rms(c)
DAV:   1    -0.133602766605E+03    0.11154E-03   -0.99201E-03  4185   0.210E-01    0.255E-02
RMM:   2    -0.133602814976E+03   -0.48371E-04   -0.47397E-04  5534   0.456E-02    0.179E-02
RMM:   3    -0.133602812305E+03    0.26705E-05   -0.25233E-05  2422   0.157E-02
 120 F= -.13360281E+03 E0= -.13360306E+03  d E =0.586662E-04
quench:  g(F)=  0.000E+00 g(S)=  0.000E+00 dE (1.order)= 0.000E+00
 bond charge predicted
       N       E                     dE             d eps       ncg     rms          rms(c)
DAV:   1    -0.133602735737E+03    0.79239E-04   -0.63119E-03  5139   0.196E-01    0.258E-02
RMM:   2    -0.133602775613E+03   -0.39877E-04   -0.44779E-04  4217   0.391E-02    0.200E-02
RMM:   3    -0.133602767761E+03    0.78519E-05   -0.23101E-05  2436   0.171E-02
 121 F= -.13360277E+03 E0= -.13360301E+03  d E =0.445436E-04
quench:  g(F)=  0.000E+00 g(S)=  0.000E+00 dE (1.order)= 0.000E+00
 bond charge predicted
       N       E                     dE             d eps       ncg     rms          rms(c)
DAV:   1    -0.133602731125E+03    0.44488E-04   -0.41139E-03  5040   0.174E-01    0.185E-02
RMM:   2    -0.133602775737E+03   -0.44612E-04   -0.24920E-04  4255   0.375E-02    0.253E-02
RMM:   3    -0.133602750151E+03    0.25587E-04   -0.21115E-05  2321   0.194E-02    0.121E-02
RMM:   4    -0.133602748216E+03    0.19343E-05   -0.78464E-06  2229   0.139E-02
 122 F= -.13360275E+03 E0= -.13360299E+03  d E =0.195451E-04
quench:  g(F)=  0.000E+00 g(S)=  0.000E+00 dE (1.order)= 0.000E+00
 bond charge predicted
       N       E                     dE             d eps       ncg     rms          rms(c)
DAV:   1    -0.133602686993E+03    0.63158E-04   -0.50375E-03  4113   0.123E-01    0.194E-02
RMM:   2    -0.133602709642E+03   -0.22649E-04   -0.24489E-04  3956   0.317E-02    0.138E-02
RMM:   3    -0.133602706258E+03    0.33844E-05   -0.13622E-05  2260   0.135E-02
 123 F= -.13360271E+03 E0= -.13360294E+03  d E =0.419586E-04
quench:  g(F)=  0.000E+00 g(S)=  0.000E+00 dE (1.order)= 0.000E+00
 bond charge predicted
       N       E                     dE             d eps       ncg     rms          rms(c)
DAV:   1    -0.133602596890E+03    0.11275E-03   -0.10844E-02  4077   0.215E-01    0.263E-02
RMM:   2    -0.133602646963E+03   -0.50073E-04   -0.48360E-04  5767   0.472E-02    0.170E-02
RMM:   3    -0.133602645665E+03    0.12980E-05   -0.21579E-05  2401   0.154E-02
 124 F= -.13360265E+03 E0= -.13360289E+03  d E =0.605925E-04
quench:  g(F)=  0.000E+00 g(S)=  0.000E+00 dE (1.order)= 0.000E+00
 bond charge predicted
       N       E                     dE             d eps       ncg     rms          rms(c)
DAV:   1    -0.133602515403E+03    0.13156E-03   -0.10986E-02  4761   0.234E-01    0.331E-02
RMM:   2    -0.133602580914E+03   -0.65510E-04   -0.75119E-04  4876   0.499E-02    0.249E-02
RMM:   3    -0.133602564026E+03    0.16888E-04   -0.31802E-05  2521   0.158E-02    0.147E-02
RMM:   4    -0.133602563218E+03    0.80797E-06   -0.11349E-05  2337   0.112E-02
 125 F= -.13360256E+03 E0= -.13360280E+03  d E =0.824475E-04
quench:  g(F)=  0.000E+00 g(S)=  0.000E+00 dE (1.order)= 0.000E+00
 bond charge predicted
       N       E                     dE             d eps       ncg     rms          rms(c)
DAV:   1    -0.133602525846E+03    0.38180E-04   -0.66345E-03  4788   0.184E-01    0.232E-02
RMM:   2    -0.133602567574E+03   -0.41729E-04   -0.36740E-04  4795   0.406E-02    0.217E-02
RMM:   3    -0.133602555119E+03    0.12455E-04   -0.25618E-05  2373   0.187E-02    0.163E-02
RMM:   4    -0.133602551035E+03    0.40844E-05   -0.14085E-05  2208   0.187E-02
 126 F= -.13360255E+03 E0= -.13360279E+03  d E =0.121832E-04
quench:  g(F)=  0.000E+00 g(S)=  0.000E+00 dE (1.order)= 0.000E+00
 bond charge predicted
       N       E                     dE             d eps       ncg     rms          rms(c)
DAV:   1    -0.133602501237E+03    0.53882E-04   -0.41314E-03  4104   0.112E-01    0.178E-02
RMM:   2    -0.133602521777E+03   -0.20540E-04   -0.22267E-04  3823   0.314E-02    0.136E-02
RMM:   3    -0.133602519467E+03    0.23096E-05   -0.20580E-05  2270   0.148E-02
 127 F= -.13360252E+03 E0= -.13360276E+03  d E =0.315674E-04
quench:  g(F)=  0.000E+00 g(S)=  0.000E+00 dE (1.order)= 0.000E+00
 bond charge predicted
       N       E                     dE             d eps       ncg     rms          rms(c)
DAV:   1    -0.133602423084E+03    0.98693E-04   -0.90446E-03  4041   0.195E-01    0.237E-02
RMM:   2    -0.133602462591E+03   -0.39507E-04   -0.39784E-04  5470   0.440E-02    0.144E-02
RMM:   3    -0.133602460205E+03    0.23859E-05   -0.15414E-05  2335   0.128E-02
 128 F= -.13360246E+03 E0= -.13360270E+03  d E =0.592619E-04
quench:  g(F)=  0.000E+00 g(S)=  0.000E+00 dE (1.order)= 0.000E+00
 bond charge predicted
       N       E                     dE             d eps       ncg     rms          rms(c)
DAV:   1    -0.133602330768E+03    0.13182E-03   -0.12120E-02  4365   0.228E-01    0.333E-02
RMM:   2    -0.133602402040E+03   -0.71271E-04   -0.76242E-04  5141   0.524E-02    0.255E-02
RMM:   3    -0.133602385905E+03    0.16135E-04   -0.33499E-05  2531   0.170E-02    0.209E-02
RMM:   4    -0.133602379869E+03    0.60361E-05   -0.17626E-05  2255   0.215E-02
 129 F= -.13360238E+03 E0= -.13360262E+03  d E =0.803364E-04
quench:  g(F)=  0.000E+00 g(S)=  0.000E+00 dE (1.order)= 0.000E+00
 bond charge predicted
       N       E                     dE             d eps       ncg     rms          rms(c)
DAV:   1    -0.133602303751E+03    0.82154E-04   -0.10628E-02  4068   0.187E-01    0.273E-02
RMM:   2    -0.133602353430E+03   -0.49678E-04   -0.53074E-04  5340   0.470E-02    0.213E-02
RMM:   3    -0.133602345315E+03    0.81146E-05   -0.25969E-05  2497   0.175E-02
 130 F= -.13360235E+03 E0= -.13360258E+03  d E =0.345540E-04
quench:  g(F)=  0.000E+00 g(S)=  0.000E+00 dE (1.order)= 0.000E+00
 bond charge predicted
       N       E                     dE             d eps       ncg     rms          rms(c)
DAV:   1    -0.133602301172E+03    0.52258E-04   -0.43763E-03  5283   0.195E-01    0.207E-02
RMM:   2    -0.133602350919E+03   -0.49748E-04   -0.31827E-04  4263   0.396E-02    0.264E-02
RMM:   3    -0.133602324558E+03    0.26362E-04   -0.25827E-05  2366   0.200E-02    0.141E-02
RMM:   4    -0.133602321363E+03    0.31946E-05   -0.80210E-06  2229   0.146E-02
 131 F= -.13360232E+03 E0= -.13360256E+03  d E =0.239517E-04
quench:  g(F)=  0.000E+00 g(S)=  0.000E+00 dE (1.order)= 0.000E+00
 bond charge predicted
       N       E                     dE             d eps       ncg     rms          rms(c)
DAV:   1    -0.133602252090E+03    0.72468E-04   -0.71713E-03  4050   0.153E-01    0.205E-02
RMM:   2    -0.133602277077E+03   -0.24987E-04   -0.25312E-04  4525   0.332E-02    0.127E-02
RMM:   3    -0.133602277059E+03    0.18357E-07   -0.15593E-05  2286   0.156E-02
 132 F= -.13360228E+03 E0= -.13360251E+03  d E =0.443046E-04
quench:  g(F)=  0.000E+00 g(S)=  0.000E+00 dE (1.order)= 0.000E+00
 bond charge predicted
       N       E                     dE             d eps       ncg     rms          rms(c)
DAV:   1    -0.133602161721E+03    0.11536E-03   -0.11294E-02  4266   0.222E-01    0.304E-02
RMM:   2    -0.133602224403E+03   -0.62682E-04   -0.67750E-04  5218   0.496E-02    0.212E-02
RMM:   3    -0.133602209819E+03    0.14584E-04   -0.23740E-05  2432   0.142E-02    0.169E-02
RMM:   4    -0.133602207314E+03    0.25052E-05   -0.13218E-05  2235   0.191E-02
 133 F= -.13360221E+03 E0= -.13360244E+03  d E =0.697446E-04
quench:  g(F)=  0.000E+00 g(S)=  0.000E+00 dE (1.order)= 0.000E+00
 bond charge predicted
       N       E                     dE             d eps       ncg     rms          rms(c)
DAV:   1    -0.133602102758E+03    0.10706E-03   -0.13012E-02  4050   0.209E-01    0.292E-02
RMM:   2    -0.133602160260E+03   -0.57502E-04   -0.61759E-04  5479   0.522E-02    0.219E-02
RMM:   3    -0.133602150985E+03    0.92742E-05   -0.29118E-05  2521   0.190E-02
 134 F= -.13360215E+03 E0= -.13360238E+03  d E =0.563286E-04
quench:  g(F)=  0.000E+00 g(S)=  0.000E+00 dE (1.order)= 0.000E+00
 bond charge predicted
       N       E                     dE             d eps       ncg     rms          rms(c)
DAV:   1    -0.133602110835E+03    0.49425E-04   -0.55048E-03  5373   0.210E-01    0.239E-02
RMM:   2    -0.133602173358E+03   -0.62523E-04   -0.41047E-04  4457   0.441E-02    0.308E-02
RMM:   3    -0.133602138200E+03    0.35158E-04   -0.32831E-05  2477   0.220E-02    0.164E-02
RMM:   4    -0.133602134119E+03    0.40809E-05   -0.99206E-06  2265   0.156E-02
 135 F= -.13360213E+03 E0= -.13360237E+03  d E =0.168662E-04
quench:  g(F)=  0.000E+00 g(S)=  0.000E+00 dE (1.order)= 0.000E+00
 bond charge predicted
       N       E                     dE             d eps       ncg     rms          rms(c)
DAV:   1    -0.133602070620E+03    0.67580E-04   -0.65453E-03  4086   0.146E-01    0.197E-02
RMM:   2    -0.133602094704E+03   -0.24084E-04   -0.24102E-04  4440   0.335E-02    0.128E-02
RMM:   3    -0.133602094682E+03    0.22665E-07   -0.17656E-05  2292   0.157E-02
 136 F= -.13360209E+03 E0= -.13360233E+03  d E =0.394376E-04
quench:  g(F)=  0.000E+00 g(S)=  0.000E+00 dE (1.order)= 0.000E+00
 bond charge predicted
       N       E                     dE             d eps       ncg     rms          rms(c)
DAV:   1    -0.133601983724E+03    0.11098E-03   -0.10475E-02  4275   0.215E-01    0.288E-02
RMM:   2    -0.133602041867E+03   -0.58142E-04   -0.62450E-04  5151   0.480E-02    0.202E-02
RMM:   3    -0.133602028544E+03    0.13322E-04   -0.21129E-05  2402   0.141E-02    0.162E-02
RMM:   4    -0.133602026243E+03    0.23016E-05   -0.12678E-05  2236   0.188E-02
 137 F= -.13360203E+03 E0= -.13360226E+03  d E =0.684390E-04
quench:  g(F)=  0.000E+00 g(S)=  0.000E+00 dE (1.order)= 0.000E+00
 bond charge predicted
       N       E                     dE             d eps       ncg     rms          rms(c)
DAV:   1    -0.133601920553E+03    0.10799E-03   -0.12954E-02  4041   0.208E-01    0.286E-02
RMM:   2    -0.133601976155E+03   -0.55602E-04   -0.59583E-04  5433   0.517E-02    0.213E-02
RMM:   3    -0.133601967119E+03    0.90362E-05   -0.27757E-05  2499   0.189E-02
 138 F= -.13360197E+03 E0= -.13360220E+03  d E =0.591236E-04
quench:  g(F)=  0.000E+00 g(S)=  0.000E+00 dE (1.order)= 0.000E+00
 bond charge predicted
       N       E                     dE             d eps       ncg     rms          rms(c)
DAV:   1    -0.133601918856E+03    0.57299E-04   -0.60544E-03  5310   0.209E-01    0.249E-02
RMM:   2    -0.133601984508E+03   -0.65652E-04   -0.45116E-04  4558   0.453E-02    0.313E-02
RMM:   3    -0.133601949156E+03    0.35352E-04   -0.35055E-05  2525   0.222E-02    0.173E-02
RMM:   4    -0.133601944560E+03    0.45959E-05   -0.11008E-05  2270   0.161E-02
 139 F= -.13360194E+03 E0= -.13360218E+03  d E =0.225585E-04
quench:  g(F)=  0.000E+00 g(S)=  0.000E+00 dE (1.order)= 0.000E+00
 bond charge predicted
       N       E                     dE             d eps       ncg     rms          rms(c)
DAV:   1    -0.133601878025E+03    0.71131E-04   -0.70159E-03  4086   0.151E-01    0.204E-02
RMM:   2    -0.133601904588E+03   -0.26563E-04   -0.26705E-04  4584   0.350E-02    0.135E-02
RMM:   3    -0.133601904007E+03    0.58154E-06   -0.18303E-05  2301   0.155E-02
 140 F= -.13360190E+03 E0= -.13360214E+03  d E =0.405538E-04
quench:  g(F)=  0.000E+00 g(S)=  0.000E+00 dE (1.order)= 0.000E+00
 bond charge predicted
       N       E                     dE             d eps       ncg     rms          rms(c)
DAV:   1    -0.133601789496E+03    0.11509E-03   -0.10876E-02  4302   0.220E-01    0.291E-02
RMM:   2    -0.133601850006E+03   -0.60511E-04   -0.63898E-04  5176   0.485E-02    0.208E-02
RMM:   3    -0.133601836808E+03    0.13198E-04   -0.22745E-05  2407   0.152E-02    0.178E-02
RMM:   4    -0.133601832563E+03    0.42451E-05   -0.13362E-05  2236   0.195E-02
 141 F= -.13360183E+03 E0= -.13360207E+03  d E =0.714439E-04
quench:  g(F)=  0.000E+00 g(S)=  0.000E+00 dE (1.order)= 0.000E+00
 bond charge predicted
       N       E                     dE             d eps       ncg     rms          rms(c)
DAV:   1    -0.133601724667E+03    0.11214E-03   -0.13743E-02  4032   0.210E-01    0.293E-02
RMM:   2    -0.133601781572E+03   -0.56905E-04   -0.60543E-04  5439   0.520E-02    0.219E-02
RMM:   3    -0.133601773318E+03    0.82536E-05   -0.29043E-05  2511   0.195E-02
 142 F= -.13360177E+03 E0= -.13360200E+03  d E =0.592447E-04
quench:  g(F)=  0.000E+00 g(S)=  0.000E+00 dE (1.order)= 0.000E+00
 bond charge predicted
       N       E                     dE             d eps       ncg     rms          rms(c)
DAV:   1    -0.133601729427E+03    0.52144E-04   -0.58766E-03  5373   0.213E-01    0.245E-02
RMM:   2    -0.133601791497E+03   -0.62070E-04   -0.43577E-04  4492   0.438E-02    0.298E-02
RMM:   3    -0.133601759577E+03    0.31920E-04   -0.32713E-05  2491   0.215E-02    0.171E-02
RMM:   4    -0.133601754960E+03    0.46171E-05   -0.10423E-05  2267   0.161E-02
 143 F= -.13360175E+03 E0= -.13360199E+03  d E =0.183581E-04
quench:  g(F)=  0.000E+00 g(S)=  0.000E+00 dE (1.order)= 0.000E+00
 bond charge predicted
       N       E                     dE             d eps       ncg     rms          rms(c)
DAV:   1    -0.133601693132E+03    0.66445E-04   -0.65764E-03  4086   0.146E-01    0.197E-02
RMM:   2    -0.133601718044E+03   -0.24912E-04   -0.24974E-04  4478   0.343E-02    0.131E-02
RMM:   3    -0.133601717646E+03    0.39728E-06   -0.18059E-05  2296   0.157E-02
 144 F= -.13360172E+03 E0= -.13360195E+03  d E =0.373134E-04
quench:  g(F)=  0.000E+00 g(S)=  0.000E+00 dE (1.order)= 0.000E+00
 bond charge predicted
       N       E                     dE             d eps       ncg     rms          rms(c)
DAV:   1    -0.133601596998E+03    0.12105E-03   -0.12011E-02  4194   0.227E-01    0.302E-02
RMM:   2    -0.133601660798E+03   -0.63800E-04   -0.67729E-04  5389   0.511E-02    0.208E-02
RMM:   3    -0.133601647244E+03    0.13555E-04   -0.22213E-05  2405   0.145E-02    0.175E-02
RMM:   4    -0.133601643726E+03    0.35181E-05   -0.13847E-05  2242   0.199E-02
 145 F= -.13360164E+03 E0= -.13360188E+03  d E =0.739209E-04
quench:  g(F)=  0.000E+00 g(S)=  0.000E+00 dE (1.order)= 0.000E+00
 bond charge predicted
       N       E                     dE             d eps       ncg     rms          rms(c)
DAV:   1    -0.133601507757E+03    0.13949E-03   -0.17476E-02  4032   0.239E-01    0.324E-02
RMM:   2    -0.133601577166E+03   -0.69409E-04   -0.73576E-04  5639   0.581E-02    0.233E-02
RMM:   3    -0.133601567756E+03    0.94096E-05   -0.36064E-05  2606   0.216E-02
 146 F= -.13360157E+03 E0= -.13360180E+03  d E =0.759695E-04
quench:  g(F)=  0.000E+00 g(S)=  0.000E+00 dE (1.order)= 0.000E+00
 bond charge predicted
       N       E                     dE             d eps       ncg     rms          rms(c)
DAV:   1    -0.133601523389E+03    0.53777E-04   -0.70977E-03  5400   0.231E-01    0.271E-02
RMM:   2    -0.133601599039E+03   -0.75651E-04   -0.53141E-04  4650   0.482E-02    0.337E-02
RMM:   3    -0.133601558940E+03    0.40100E-04   -0.40449E-05  2649   0.233E-02    0.190E-02
RMM:   4    -0.133601553576E+03    0.53638E-05   -0.11961E-05  2286   0.165E-02
 147 F= -.13360155E+03 E0= -.13360179E+03  d E =0.141803E-04
quench:  g(F)=  0.000E+00 g(S)=  0.000E+00 dE (1.order)= 0.000E+00
 bond charge predicted
       N       E                     dE             d eps       ncg     rms          rms(c)
DAV:   1    -0.133601506930E+03    0.52009E-04   -0.51989E-03  4086   0.130E-01    0.180E-02
RMM:   2    -0.133601527775E+03   -0.20845E-04   -0.20926E-04  4176   0.317E-02    0.125E-02
RMM:   3    -0.133601527109E+03    0.66576E-06   -0.16947E-05  2291   0.151E-02
 148 F= -.13360153E+03 E0= -.13360176E+03  d E =0.264663E-04
quench:  g(F)=  0.000E+00 g(S)=  0.000E+00 dE (1.order)= 0.000E+00
 bond charge predicted
       N       E                     dE             d eps       ncg     rms          rms(c)
DAV:   1    -0.133601423074E+03    0.10470E-03   -0.10017E-02  4167   0.208E-01    0.269E-02
RMM:   2    -0.133601474978E+03   -0.51904E-04   -0.54237E-04  5199   0.469E-02    0.182E-02
RMM:   3    -0.133601465023E+03    0.99557E-05   -0.18459E-05  2358   0.145E-02
 149 F= -.13360147E+03 E0= -.13360170E+03  d E =0.620867E-04
quench:  g(F)=  0.000E+00 g(S)=  0.000E+00 dE (1.order)= 0.000E+00
 bond charge predicted
       N       E                     dE             d eps       ncg     rms          rms(c)
DAV:   1    -0.133601300831E+03    0.17415E-03   -0.18513E-02  4158   0.283E-01    0.346E-02
RMM:   2    -0.133601383590E+03   -0.82759E-04   -0.83748E-04  6040   0.618E-02    0.228E-02
RMM:   3    -0.133601378594E+03    0.49955E-05   -0.46927E-05  2712   0.170E-02
 150 F= -.13360138E+03 E0= -.13360161E+03  d E =0.864288E-04
quench:  g(F)=  0.000E+00 g(S)=  0.000E+00 dE (1.order)= 0.000E+00
 bond charge predicted
       N       E                     dE             d eps       ncg     rms          rms(c)
DAV:   1    -0.133601281387E+03    0.10220E-03   -0.10877E-02  5103   0.260E-01    0.340E-02
RMM:   2    -0.133601358986E+03   -0.77599E-04   -0.74638E-04  4945   0.541E-02    0.316E-02
RMM:   3    -0.133601336029E+03    0.22957E-04   -0.45117E-05  2728   0.229E-02    0.238E-02
RMM:   4    -0.133601327094E+03    0.89347E-05   -0.18296E-05  2284   0.216E-02
 151 F= -.13360133E+03 E0= -.13360156E+03  d E =0.515001E-04
[...]
RMM:   3    -0.133596436210E+03    0.46295E-04   -0.72590E-05  3385   0.266E-02    0.280E-02
RMM:   4    -0.133596423328E+03    0.12882E-04   -0.17937E-05  2313   0.197E-02    0.154E-02
RMM:   5    -0.133596422189E+03    0.11395E-05   -0.16267E-05  2331   0.144E-02
 235 F= -.13359642E+03 E0= -.13359662E+03  d E =0.100783E-03
quench:  g(F)=  0.000E+00 g(S)=  0.000E+00 dE (1.order)= 0.000E+00
 bond charge predicted
       N       E                     dE             d eps       ncg     rms          rms(c)
DAV:   1    -0.133596395874E+03    0.27454E-04   -0.83928E-03  4131   0.157E-01    0.258E-02
RMM:   2    -0.133596435369E+03   -0.39495E-04   -0.44252E-04  4949   0.424E-02    0.201E-02
RMM:   3    -0.133596427488E+03    0.78809E-05   -0.23970E-05  2457   0.151E-02
 236 F= -.13359643E+03 E0= -.13359662E+03  d E =-.529920E-05
quench:  g(F)=  0.000E+00 g(S)=  0.000E+00 dE (1.order)= 0.000E+00
 bond charge predicted
       N       E                     dE             d eps       ncg     rms          rms(c)
DAV:   1    -0.133596365720E+03    0.69649E-04   -0.48623E-03  5004   0.196E-01    0.203E-02
RMM:   2    -0.133596418149E+03   -0.52429E-04   -0.29787E-04  4408   0.429E-02    0.285E-02
RMM:   3    -0.133596385729E+03    0.32420E-04   -0.36847E-05  2397   0.216E-02    0.126E-02
RMM:   4    -0.133596384086E+03    0.16429E-05   -0.78394E-06  2171   0.148E-02
 237 F= -.13359638E+03 E0= -.13359658E+03  d E =0.434020E-04
quench:  g(F)=  0.000E+00 g(S)=  0.000E+00 dE (1.order)= 0.000E+00
 bond charge predicted
       N       E                     dE             d eps       ncg     rms          rms(c)
DAV:   1    -0.133596274282E+03    0.11145E-03   -0.12350E-02  4122   0.197E-01    0.255E-02
RMM:   2    -0.133596312635E+03   -0.38353E-04   -0.39471E-04  5118   0.401E-02    0.152E-02
RMM:   3    -0.133596310096E+03    0.25391E-05   -0.16375E-05  2321   0.148E-02
 238 F= -.13359631E+03 E0= -.13359650E+03  d E =0.739899E-04
quench:  g(F)=  0.000E+00 g(S)=  0.000E+00 dE (1.order)= 0.000E+00
 bond charge predicted
       N       E                     dE             d eps       ncg     rms          rms(c)
DAV:   1    -0.133596135828E+03    0.17681E-03   -0.18104E-02  4212   0.267E-01    0.379E-02
RMM:   2    -0.133596237103E+03   -0.10127E-03   -0.10451E-03  5495   0.610E-02    0.295E-02
RMM:   3    -0.133596213670E+03    0.23432E-04   -0.46980E-05  2762   0.203E-02    0.255E-02
RMM:   4    -0.133596202299E+03    0.11371E-04   -0.20817E-05  2273   0.238E-02    0.149E-02
RMM:   5    -0.133596200854E+03    0.14449E-05   -0.10062E-05  2268   0.116E-02
 239 F= -.13359620E+03 E0= -.13359640E+03  d E =0.109242E-03
quench:  g(F)=  0.000E+00 g(S)=  0.000E+00 dE (1.order)= 0.000E+00
 bond charge predicted
       N       E                     dE             d eps       ncg     rms          rms(c)
DAV:   1    -0.133596104455E+03    0.97844E-04   -0.14335E-02  4068   0.205E-01    0.320E-02
RMM:   2    -0.133596167458E+03   -0.63003E-04   -0.70824E-04  5483   0.531E-02    0.245E-02
RMM:   3    -0.133596155026E+03    0.12432E-04   -0.34515E-05  2635   0.153E-02    0.154E-02
RMM:   4    -0.133596160294E+03   -0.52671E-05   -0.22998E-05  2378   0.226E-02
 240 F= -.13359616E+03 E0= -.13359635E+03  d E =0.405605E-04
quench:  g(F)=  0.000E+00 g(S)=  0.000E+00 dE (1.order)= 0.000E+00
 bond charge predicted
       N       E                     dE             d eps       ncg     rms          rms(c)
DAV:   1    -0.133596122800E+03    0.32227E-04   -0.50573E-03  5535   0.189E-01    0.215E-02
RMM:   2    -0.133596150887E+03   -0.28087E-04   -0.32319E-04  3931   0.325E-02    0.177E-02
RMM:   3    -0.133596145475E+03    0.54120E-05   -0.17118E-05  2356   0.166E-02
 241 F= -.13359615E+03 E0= -.13359634E+03  d E =0.148184E-04
quench:  g(F)=  0.000E+00 g(S)=  0.000E+00 dE (1.order)= 0.000E+00
 bond charge predicted
       N       E                     dE             d eps       ncg     rms          rms(c)
DAV:   1    -0.133596061282E+03    0.89605E-04   -0.71852E-03  4311   0.191E-01    0.207E-02
RMM:   2    -0.133596101717E+03   -0.40435E-04   -0.30784E-04  4891   0.398E-02    0.186E-02
RMM:   3    -0.133596090219E+03    0.11497E-04   -0.27099E-05  2361   0.188E-02    0.145E-02
RMM:   4    -0.133596087160E+03    0.30596E-05   -0.96914E-06  2154   0.173E-02
 242 F= -.13359609E+03 E0= -.13359628E+03  d E =0.583154E-04
quench:  g(F)=  0.000E+00 g(S)=  0.000E+00 dE (1.order)= 0.000E+00
 bond charge predicted
       N       E                     dE             d eps       ncg     rms          rms(c)
DAV:   1    -0.133595951084E+03    0.13914E-03   -0.14894E-02  4032   0.209E-01    0.314E-02
RMM:   2    -0.133596005794E+03   -0.54711E-04   -0.61267E-04  5369   0.471E-02    0.216E-02
RMM:   3    -0.133595996719E+03    0.90755E-05   -0.25250E-05  2396   0.155E-02
 243 F= -.13359600E+03 E0= -.13359620E+03  d E =0.904409E-04
quench:  g(F)=  0.000E+00 g(S)=  0.000E+00 dE (1.order)= 0.000E+00
 bond charge predicted
       N       E                     dE             d eps       ncg     rms          rms(c)
DAV:   1    -0.133595799483E+03    0.20631E-03   -0.22654E-02  4194   0.313E-01    0.375E-02
RMM:   2    -0.133595913745E+03   -0.11426E-03   -0.10588E-03  6168   0.683E-02    0.303E-02
RMM:   3    -0.133595895178E+03    0.18567E-04   -0.65186E-05  3061   0.236E-02    0.268E-02
RMM:   4    -0.133595882159E+03    0.13019E-04   -0.27435E-05  2334   0.256E-02    0.135E-02
RMM:   5    -0.133595881225E+03    0.93374E-06   -0.13967E-05  2260   0.168E-02
 244 F= -.13359588E+03 E0= -.13359607E+03  d E =0.115494E-03
quench:  g(F)=  0.000E+00 g(S)=  0.000E+00 dE (1.order)= 0.000E+00
 bond charge predicted
       N       E                     dE             d eps       ncg     rms          rms(c)
DAV:   1    -0.133595839078E+03    0.43081E-04   -0.86574E-03  4095   0.146E-01    0.300E-02
RMM:   2    -0.133595886587E+03   -0.47509E-04   -0.58821E-04  4589   0.435E-02    0.255E-02
RMM:   3    -0.133595872741E+03    0.13847E-04   -0.25742E-05  2423   0.146E-02    0.147E-02
RMM:   4    -0.133595872131E+03    0.60953E-06   -0.19343E-05  2346   0.162E-02
 245 F= -.13359587E+03 E0= -.13359606E+03  d E =0.909400E-05
quench:  g(F)=  0.000E+00 g(S)=  0.000E+00 dE (1.order)= 0.000E+00
 bond charge predicted
       N       E                     dE             d eps       ncg     rms          rms(c)
DAV:   1    -0.133595827965E+03    0.44775E-04   -0.47266E-03  4635   0.159E-01    0.176E-02
RMM:   2    -0.133595851073E+03   -0.23108E-04   -0.21441E-04  4127   0.313E-02    0.131E-02
RMM:   3    -0.133595848493E+03    0.25796E-05   -0.14775E-05  2291   0.156E-02
 246 F= -.13359585E+03 E0= -.13359605E+03  d E =0.236378E-04
quench:  g(F)=  0.000E+00 g(S)=  0.000E+00 dE (1.order)= 0.000E+00
 bond charge predicted
       N       E                     dE             d eps       ncg     rms          rms(c)
DAV:   1    -0.133595748871E+03    0.10220E-03   -0.84783E-03  4203   0.189E-01    0.236E-02
RMM:   2    -0.133595789104E+03   -0.40233E-04   -0.43687E-04  4819   0.424E-02    0.156E-02
RMM:   3    -0.133595780626E+03    0.84778E-05   -0.14491E-05  2260   0.130E-02
 247 F= -.13359578E+03 E0= -.13359598E+03  d E =0.678673E-04
quench:  g(F)=  0.000E+00 g(S)=  0.000E+00 dE (1.order)= 0.000E+00
 bond charge predicted
       N       E                     dE             d eps       ncg     rms          rms(c)
DAV:   1    -0.133595629811E+03    0.15929E-03   -0.17560E-02  4041   0.263E-01    0.321E-02
RMM:   2    -0.133595708119E+03   -0.78308E-04   -0.71066E-04  6001   0.572E-02    0.244E-02
RMM:   3    -0.133595697479E+03    0.10640E-04   -0.42934E-05  2673   0.208E-02    0.235E-02
RMM:   4    -0.133595686684E+03    0.10794E-04   -0.22478E-05  2249   0.250E-02    0.107E-02
RMM:   5    -0.133595686817E+03   -0.13304E-06   -0.10143E-05  2231   0.143E-02
 248 F= -.13359569E+03 E0= -.13359588E+03  d E =0.938088E-04
quench:  g(F)=  0.000E+00 g(S)=  0.000E+00 dE (1.order)= 0.000E+00
 bond charge predicted
       N       E                     dE             d eps       ncg     rms          rms(c)
DAV:   1    -0.133595554841E+03    0.13184E-03   -0.15046E-02  4077   0.195E-01    0.365E-02
RMM:   2    -0.133595629391E+03   -0.74550E-04   -0.90726E-04  5160   0.541E-02    0.296E-02
RMM:   3    -0.133595608045E+03    0.21346E-04   -0.35763E-05  2542   0.131E-02    0.170E-02
RMM:   4    -0.133595611659E+03   -0.36140E-05   -0.21750E-05  2374   0.184E-02
 249 F= -.13359561E+03 E0= -.13359580E+03  d E =0.751583E-04
quench:  g(F)=  0.000E+00 g(S)=  0.000E+00 dE (1.order)= 0.000E+00
 bond charge predicted
       N       E                     dE             d eps       ncg     rms          rms(c)
DAV:   1    -0.133595570538E+03    0.37507E-04   -0.76454E-03  4833   0.214E-01    0.238E-02
RMM:   2    -0.133595615112E+03   -0.44573E-04   -0.43813E-04  4801   0.418E-02    0.203E-02
RMM:   3    -0.133595605107E+03    0.10005E-04   -0.21331E-05  2395   0.168E-02    0.169E-02
RMM:   4    -0.133595601009E+03    0.40976E-05   -0.14392E-05  2242   0.190E-02
 250 F= -.13359560E+03 E0= -.13359579E+03  d E =0.106499E-04
quench:  g(F)=  0.000E+00 g(S)=  0.000E+00 dE (1.order)= 0.000E+00
 bond charge predicted
       N       E                     dE             d eps       ncg     rms          rms(c)
DAV:   1    -0.133595528764E+03    0.76343E-04   -0.59804E-03  4077   0.140E-01    0.194E-02
RMM:   2    -0.133595555063E+03   -0.26299E-04   -0.28551E-04  4193   0.356E-02    0.136E-02
RMM:   3    -0.133595550441E+03    0.46217E-05   -0.12963E-05  2225   0.135E-02
 251 F= -.13359555E+03 E0= -.13359574E+03  d E =0.505678E-04
quench:  g(F)=  0.000E+00 g(S)=  0.000E+00 dE (1.order)= 0.000E+00
 bond charge predicted
       N       E                     dE             d eps       ncg     rms          rms(c)
DAV:   1    -0.133595422541E+03    0.13252E-03   -0.13711E-02  4041   0.228E-01    0.278E-02
RMM:   2    -0.133595478796E+03   -0.56255E-04   -0.53330E-04  5799   0.506E-02    0.183E-02
RMM:   3    -0.133595477912E+03    0.88343E-06   -0.30481E-05  2447   0.177E-02
 252 F= -.13359548E+03 E0= -.13359568E+03  d E =0.725288E-04
quench:  g(F)=  0.000E+00 g(S)=  0.000E+00 dE (1.order)= 0.000E+00
 bond charge predicted
       N       E                     dE             d eps       ncg     rms          rms(c)
DAV:   1    -0.133595302472E+03    0.17632E-03   -0.15894E-02  4500   0.268E-01    0.377E-02
RMM:   2    -0.133595389545E+03   -0.87074E-04   -0.99319E-04  5217   0.581E-02    0.284E-02
RMM:   3    -0.133595366551E+03    0.22994E-04   -0.37317E-05  2593   0.162E-02    0.171E-02
RMM:   4    -0.133595374659E+03   -0.81075E-05   -0.20568E-05  2345   0.202E-02
 253 F= -.13359537E+03 E0= -.13359556E+03  d E =0.103254E-03
quench:  g(F)=  0.000E+00 g(S)=  0.000E+00 dE (1.order)= 0.000E+00
 bond charge predicted
       N       E                     dE             d eps       ncg     rms          rms(c)
DAV:   1    -0.133595315810E+03    0.50741E-04   -0.96671E-03  4932   0.245E-01    0.269E-02
RMM:   2    -0.133595369324E+03   -0.53514E-04   -0.55870E-04  5087   0.443E-02    0.216E-02
RMM:   3    -0.133595358707E+03    0.10617E-04   -0.26426E-05  2532   0.168E-02    0.174E-02
RMM:   4    -0.133595355205E+03    0.35022E-05   -0.16440E-05  2259   0.199E-02
 254 F= -.13359536E+03 E0= -.13359554E+03  d E =0.194539E-04
quench:  g(F)=  0.000E+00 g(S)=  0.000E+00 dE (1.order)= 0.000E+00
 bond charge predicted
       N       E                     dE             d eps       ncg     rms          rms(c)
DAV:   1    -0.133595297997E+03    0.60710E-04   -0.49155E-03  4293   0.137E-01    0.189E-02
RMM:   2    -0.133595322954E+03   -0.24957E-04   -0.27313E-04  4039   0.326E-02    0.143E-02
RMM:   3    -0.133595318912E+03    0.40421E-05   -0.11764E-05  2289   0.131E-02
 255 F= -.13359532E+03 E0= -.13359551E+03  d E =0.362929E-04
quench:  g(F)=  0.000E+00 g(S)=  0.000E+00 dE (1.order)= 0.000E+00
 bond charge predicted
       N       E                     dE             d eps       ncg     rms          rms(c)
DAV:   1    -0.133595208752E+03    0.11420E-03   -0.11311E-02  4140   0.212E-01    0.252E-02
RMM:   2    -0.133595257791E+03   -0.49039E-04   -0.43880E-04  5582   0.460E-02    0.179E-02
RMM:   3    -0.133595253603E+03    0.41879E-05   -0.27891E-05  2406   0.181E-02
 256 F= -.13359525E+03 E0= -.13359545E+03  d E =0.653089E-04
quench:  g(F)=  0.000E+00 g(S)=  0.000E+00 dE (1.order)= 0.000E+00
 bond charge predicted
       N       E                     dE             d eps       ncg     rms          rms(c)
DAV:   1    -0.133595082087E+03    0.17570E-03   -0.16286E-02  4257   0.258E-01    0.370E-02
RMM:   2    -0.133595166416E+03   -0.84329E-04   -0.94801E-04  5342   0.589E-02    0.275E-02
RMM:   3    -0.133595145115E+03    0.21301E-04   -0.32292E-05  2532   0.165E-02    0.181E-02
RMM:   4    -0.133595149520E+03   -0.44043E-05   -0.19186E-05  2307   0.217E-02
 257 F= -.13359515E+03 E0= -.13359533E+03  d E =0.104083E-03
quench:  g(F)=  0.000E+00 g(S)=  0.000E+00 dE (1.order)= 0.000E+00
 bond charge predicted
       N       E                     dE             d eps       ncg     rms          rms(c)
DAV:   1    -0.133595061008E+03    0.84107E-04   -0.12342E-02  4617   0.243E-01    0.296E-02
RMM:   2    -0.133595123779E+03   -0.62771E-04   -0.68758E-04  5421   0.495E-02    0.227E-02
RMM:   3    -0.133595109998E+03    0.13781E-04   -0.31419E-05  2628   0.145E-02    0.133E-02
RMM:   4    -0.133595115281E+03   -0.52828E-05   -0.15378E-05  2304   0.176E-02
 258 F= -.13359512E+03 E0= -.13359530E+03  d E =0.342392E-04
quench:  g(F)=  0.000E+00 g(S)=  0.000E+00 dE (1.order)= 0.000E+00
 bond charge predicted
       N       E                     dE             d eps       ncg     rms          rms(c)
DAV:   1    -0.133595075890E+03    0.34108E-04   -0.43400E-03  5409   0.177E-01    0.197E-02
RMM:   2    -0.133595100452E+03   -0.24563E-04   -0.27925E-04  3882   0.318E-02    0.158E-02
RMM:   3    -0.133595095769E+03    0.46831E-05   -0.13706E-05  2311   0.142E-02
 259 F= -.13359510E+03 E0= -.13359529E+03  d E =0.195115E-04
quench:  g(F)=  0.000E+00 g(S)=  0.000E+00 dE (1.order)= 0.000E+00
 bond charge predicted
       N       E                     dE             d eps       ncg     rms          rms(c)
DAV:   1    -0.133595008753E+03    0.91699E-04   -0.79670E-03  4167   0.190E-01    0.215E-02
RMM:   2    -0.133595047442E+03   -0.38689E-04   -0.32905E-04  5029   0.405E-02    0.162E-02
RMM:   3    -0.133595041718E+03    0.57242E-05   -0.25544E-05  2361   0.176E-02
 260 F= -.13359504E+03 E0= -.13359523E+03  d E =0.540511E-04
quench:  g(F)=  0.000E+00 g(S)=  0.000E+00 dE (1.order)= 0.000E+00
 bond charge predicted
       N       E                     dE             d eps       ncg     rms          rms(c)
DAV:   1    -0.133594900483E+03    0.14696E-03   -0.14374E-02  4149   0.234E-01    0.337E-02
RMM:   2    -0.133594967570E+03   -0.67087E-04   -0.74647E-04  5281   0.538E-02    0.240E-02
RMM:   3    -0.133594951182E+03    0.16387E-04   -0.23809E-05  2413   0.152E-02    0.161E-02
RMM:   4    -0.133594954383E+03   -0.32007E-05   -0.15522E-05  2288   0.200E-02
 261 F= -.13359495E+03 E0= -.13359515E+03  d E =0.873350E-04
quench:  g(F)=  0.000E+00 g(S)=  0.000E+00 dE (1.order)= 0.000E+00
 bond charge predicted
       N       E                     dE             d eps       ncg     rms          rms(c)
DAV:   1    -0.133594825978E+03    0.12520E-03   -0.15355E-02  4266   0.255E-01    0.320E-02
RMM:   2    -0.133594897261E+03   -0.71283E-04   -0.77758E-04  5674   0.552E-02    0.231E-02
RMM:   3    -0.133594882992E+03    0.14269E-04   -0.34951E-05  2671   0.150E-02    0.135E-02
RMM:   4    -0.133594886659E+03   -0.36668E-05   -0.17336E-05  2302   0.194E-02
 262 F= -.13359489E+03 E0= -.13359508E+03  d E =0.677243E-04
quench:  g(F)=  0.000E+00 g(S)=  0.000E+00 dE (1.order)= 0.000E+00
 bond charge predicted
       N       E                     dE             d eps       ncg     rms          rms(c)
DAV:   1    -0.133594855815E+03    0.27177E-04   -0.55784E-03  5166   0.180E-01    0.240E-02
RMM:   2    -0.133594891438E+03   -0.35624E-04   -0.40143E-04  4293   0.402E-02    0.216E-02
RMM:   3    -0.133594882517E+03    0.89217E-05   -0.20662E-05  2366   0.166E-02
 263 F= -.13359488E+03 E0= -.13359507E+03  d E =0.414190E-05
quench:  g(F)=  0.000E+00 g(S)=  0.000E+00 dE (1.order)= 0.000E+00
 bond charge predicted
       N       E                     dE             d eps       ncg     rms          rms(c)
DAV:   1    -0.133594813353E+03    0.78086E-04   -0.59454E-03  4473   0.177E-01    0.185E-02
RMM:   2    -0.133594842437E+03   -0.29084E-04   -0.26073E-04  4502   0.353E-02    0.136E-02
RMM:   3    -0.133594840084E+03    0.23533E-05   -0.20617E-05  2310   0.165E-02
 264 F= -.13359484E+03 E0= -.13359503E+03  d E =0.424328E-04
quench:  g(F)=  0.000E+00 g(S)=  0.000E+00 dE (1.order)= 0.000E+00
 bond charge predicted
       N       E                     dE             d eps       ncg     rms          rms(c)
DAV:   1    -0.133594726383E+03    0.11605E-03   -0.10642E-02  4167   0.203E-01    0.295E-02
RMM:   2    -0.133594778747E+03   -0.52364E-04   -0.58690E-04  5038   0.476E-02    0.214E-02
RMM:   3    -0.133594765943E+03    0.12804E-04   -0.18809E-05  2343   0.140E-02    0.142E-02
RMM:   4    -0.133594768727E+03   -0.27840E-05   -0.12772E-05  2261   0.182E-02
 265 F= -.13359477E+03 E0= -.13359495E+03  d E =0.713565E-04
quench:  g(F)=  0.000E+00 g(S)=  0.000E+00 dE (1.order)= 0.000E+00
 bond charge predicted
       N       E                     dE             d eps       ncg     rms          rms(c)
DAV:   1    -0.133594654769E+03    0.11117E-03   -0.13806E-02  4203   0.238E-01    0.295E-02
RMM:   2    -0.133594717095E+03   -0.62326E-04   -0.67326E-04  5611   0.528E-02    0.207E-02
RMM:   3    -0.133594705277E+03    0.11818E-04   -0.29550E-05  2557   0.150E-02    0.118E-02
RMM:   4    -0.133594704586E+03    0.69089E-06   -0.12524E-05  2264   0.164E-02
 266 F= -.13359470E+03 E0= -.13359489E+03  d E =0.641411E-04
quench:  g(F)=  0.000E+00 g(S)=  0.000E+00 dE (1.order)= 0.000E+00
 bond charge predicted
       N       E                     dE             d eps       ncg     rms          rms(c)
DAV:   1    -0.133594673108E+03    0.32169E-04   -0.53923E-03  4554   0.140E-01    0.233E-02
RMM:   2    -0.133594708103E+03   -0.34995E-04   -0.37241E-04  4274   0.392E-02    0.219E-02
RMM:   3    -0.133594698695E+03    0.94075E-05   -0.19801E-05  2354   0.165E-02
 267 F= -.13359470E+03 E0= -.13359489E+03  d E =0.589134E-05
quench:  g(F)=  0.000E+00 g(S)=  0.000E+00 dE (1.order)= 0.000E+00
 bond charge predicted
       N       E                     dE             d eps       ncg     rms          rms(c)
DAV:   1    -0.133594626549E+03    0.81554E-04   -0.57582E-03  4545   0.179E-01    0.180E-02
RMM:   2    -0.133594654648E+03   -0.28099E-04   -0.27073E-04  4512   0.346E-02    0.119E-02
RMM:   3    -0.133594653097E+03    0.15512E-05   -0.15513E-05  2292   0.138E-02
 268 F= -.13359465E+03 E0= -.13359484E+03  d E =0.455983E-04
quench:  g(F)=  0.000E+00 g(S)=  0.000E+00 dE (1.order)= 0.000E+00
 bond charge predicted
       N       E                     dE             d eps       ncg     rms          rms(c)
DAV:   1    -0.133594547096E+03    0.10755E-03   -0.96401E-03  4221   0.198E-01    0.280E-02
RMM:   2    -0.133594594547E+03   -0.47451E-04   -0.53131E-04  4922   0.441E-02    0.197E-02
RMM:   3    -0.133594582690E+03    0.11857E-04   -0.17391E-05  2345   0.120E-02    0.124E-02
RMM:   4    -0.133594587596E+03   -0.49057E-05   -0.10039E-05  2259   0.148E-02
 269 F= -.13359459E+03 E0= -.13359477E+03  d E =0.655012E-04
quench:  g(F)=  0.000E+00 g(S)=  0.000E+00 dE (1.order)= 0.000E+00
 bond charge predicted
       N       E                     dE             d eps       ncg     rms          rms(c)
DAV:   1    -0.133594475648E+03    0.10704E-03   -0.12618E-02  4248   0.233E-01    0.281E-02
RMM:   2    -0.133594533682E+03   -0.58035E-04   -0.62658E-04  5516   0.508E-02    0.198E-02
