 vasp.5.4.4.18Apr17-6-g9f103f2a35 (build Feb 06 2024 13:54:16) complex          
  
 POSCAR found type information on POSCAR  Rh N  O 
 05/POSCAR found :  3 types and      40 ions
 scaLAPACK will be used

 ----------------------------------------------------------------------------- 
|                                                                             |
|  ADVICE TO THIS USER RUNNING 'VASP/VAMP'   (HEAR YOUR MASTER'S VOICE ...):  |
|                                                                             |
|      You enforced a specific xc-type in the INCAR file,                     |
|      a different type was found on the POTCAR file                          |
|          I HOPE YOU KNOW, WHAT YOU ARE  DOING                               |
|                                                                             |
 ----------------------------------------------------------------------------- 

 LDA part: xc-table for Pade appr. of Perdew
 POSCAR found type information on POSCAR  Rh N  O 
 00/POSCAR found :  3 types and      40 ions
 POSCAR found type information on POSCAR  Rh N  O 
 06/POSCAR found :  3 types and      40 ions
 Jacobian:    20.6739712607859     
 POSCAR, INCAR and KPOINTS ok, starting setup
 FFT: planning ...
 WAVECAR not read
 entering main loop
       N       E                     dE             d eps       ncg     rms          rms(c)
  Solvation turned off during non-self-consistent phase (first NELMDL steps)
DAV:   1     0.639912872217E+04    0.63991E+04   -0.35974E+05 19665   0.166E+03
DAV:   2    -0.128266715506E+02   -0.64120E+04   -0.62196E+04 17586   0.493E+02
DAV:   3    -0.260265846011E+03   -0.24744E+03   -0.22936E+03 18000   0.953E+01
DAV:   4    -0.267389208023E+03   -0.71234E+01   -0.69919E+01 18126   0.147E+01
DAV:   5    -0.267622627356E+03   -0.23342E+00   -0.23309E+00 19791   0.245E+00    0.510E+01
 Begin Solvation calculations
  rms_SCF =    2.48852506512894      tol =   0.248852506512894     
 Begin minimization
 Creating dielectric and ionic cavities
  area:      149.750909528645     
  volume:    744.430060845959     
  Acav:     7.861922750253840E-002
  Solving linear dielectric/ionic screening model
        iter                  A_solv                     rms
   LPB:       -0.726680116727066E+03   0.379602523491878E+03
   LPB:    0  -0.158974434664670E+01   0.549934765643050E+01  -0.688411E+01   0.000000E+00   0.306004E+02  -0.210656E+03
   LPB:    1  -0.449630957310433E+00   0.288115138043538E+01   0.170355E-01   0.000000E+00   0.145714E+03   0.488708E-14
   LPB:    2  -0.285867362601039E+00   0.260345705741642E+01   0.168546E-01   0.145180E+00   0.114966E+03   0.360347E-13
   LPB:    3  -0.197236017358250E+00   0.744923498870951E+00   0.191276E-01   0.476900E+00   0.104184E+03   0.415349E-13
   LPB:    4  -0.152969020555474E+00   0.214578186705088E+00   0.313316E-01   0.304909E+00   0.891404E+02   0.455222E-13
  Finished solving LPB equations
  A_corr:   -7.434979305293594E-002
 End minimization
 Ecorr=   3709.40995982945     
 A_corr= -7.434979305293594E-002
 Ecorr_band=  -3709.48430962251     
 End Solvation calculations
RMM:   6    -0.256500414496E+03    0.11122E+02   -0.72459E+01 16287   0.171E+01    0.311E+01
 Begin Solvation calculations
  rms_SCF =    2.48852506512894      tol =   0.248852506512894     
 Begin minimization
 Creating dielectric and ionic cavities
  area:      149.309364258386     
  volume:    755.297213373264     
  Acav:     7.838741623565282E-002
  Solving linear dielectric/ionic screening model
        iter                  A_solv                     rms
   LPB:       -0.515053334796286E+02   0.132772761651871E+03
   LPB:    0  -0.501248482067332E+02   0.131154238540485E+03   0.302910E+00   0.000000E+00   0.300909E+02   0.911483E+01
   LPB:    1  -0.479607562659974E+01   0.120757138535998E+02   0.884009E-02   0.000000E+00   0.673536E+02   0.642966E-15
   LPB:    2  -0.140239173138737E+01   0.198850016562175E+01   0.155981E-01   0.424309E-01   0.126931E+03   0.936566E-14
   LPB:    3  -0.939974923936894E+00   0.748086170010359E+00   0.226590E-01   0.937979E-01   0.233582E+03   0.101620E-13
   LPB:    4  -0.819188480350448E+00   0.882062971087417E+00   0.267301E-01   0.221425E+00   0.279771E+03   0.916711E-14
   LPB:    5  -0.773487781259867E+00   0.643445740268375E+00   0.266225E-01   0.379888E+00   0.965970E+02   0.949390E-14
   LPB:    6  -0.750882225398222E+00   0.603740167958563E+00   0.262914E-01   0.500873E+00   0.229075E+03   0.145381E-13
   LPB:    7  -0.736956856531599E+00   0.216628548170312E+00   0.271067E-01   0.597488E+00   0.748595E+02   0.200043E-13
  Finished solving LPB equations
  A_corr:   -0.658569440295946     
 End minimization
 Ecorr=   3576.76490320887     
 A_corr= -0.658569440295946     
 Ecorr_band=  -3577.42347264916     
 End Solvation calculations
RMM:   7    -0.427600726720E+03   -0.17110E+03   -0.64694E+01 16541   0.109E+01    0.965E+01
 Begin Solvation calculations
  rms_SCF =    2.48852506512894      tol =   0.248852506512894     
 Begin minimization
 Creating dielectric and ionic cavities
  area:      148.468146973823     
  volume:    761.674622115719     
  Acav:     7.794577716125686E-002
  Solving linear dielectric/ionic screening model
        iter                  A_solv                     rms
   LPB:       -0.402810009509478E+02   0.117429319350346E+03
   LPB:    0  -0.398191272388034E+02   0.116872817836724E+03   0.176087E+00   0.000000E+00   0.297919E+02   0.524597E+01
   LPB:    1  -0.347027051821467E+01   0.107847647988524E+02   0.891165E-02   0.000000E+00   0.669999E+02   0.254811E-15
   LPB:    2  -0.725234872372802E+00   0.209463308856711E+01   0.157100E-01   0.428389E-01   0.126622E+03   0.695320E-14
   LPB:    3  -0.315433327353226E+00   0.793729064980757E+00   0.233286E-01   0.100534E+00   0.170839E+03   0.958892E-14
   LPB:    4  -0.203759830058949E+00   0.776022619425460E+00   0.266702E-01   0.238363E+00   0.278360E+03   0.145342E-13
   LPB:    5  -0.161309849410728E+00   0.599989227809253E+00   0.257261E-01   0.394075E+00   0.119489E+03   0.178583E-13
   LPB:    6  -0.143242895221618E+00   0.500577510874103E+00   0.239088E-01   0.457956E+00   0.257384E+03   0.132105E-13
   LPB:    7  -0.133723491265599E+00   0.156142379506218E+00   0.263810E-01   0.477521E+00   0.871800E+02   0.989472E-14
  Finished solving LPB equations
  A_corr:   -5.577771410434182E-002
 End minimization
 Ecorr=   3448.36729520266     
 A_corr= -5.577771410434182E-002
 Ecorr_band=  -3448.42307291676     
 End Solvation calculations
RMM:   8    -0.278262831703E+03    0.14934E+03   -0.25824E+01 16279   0.714E+00    0.463E+01
 Begin Solvation calculations
  rms_SCF =    2.48852506512894      tol =   0.248852506512894     
 Begin minimization
 Creating dielectric and ionic cavities
  area:      149.834009819703     
  volume:    751.363053842393     
  Acav:     7.866285515534398E-002
  Solving linear dielectric/ionic screening model
        iter                  A_solv                     rms
   LPB:       -0.210492578702368E+01   0.255250732366957E+02
   LPB:    0  -0.610979803230550E+00   0.100702513998891E+02  -0.314150E+00   0.000000E+00   0.302754E+02  -0.951102E+01
   LPB:    1  -0.191577960753347E+00   0.111528618501556E+01   0.993267E-02   0.000000E+00   0.545933E+02  -0.140779E-15
   LPB:    2  -0.166529928250338E+00   0.762087917227165E+00   0.151000E-01   0.392854E-01   0.911094E+02  -0.278980E-13
   LPB:    3  -0.158719912789709E+00   0.410087789661980E+00   0.186997E-01   0.251780E+00   0.757936E+02  -0.225466E-13
   LPB:    4  -0.151903004841215E+00   0.211806375041363E+00   0.337104E-01   0.484180E+00   0.669842E+02  -0.212931E-13
  Finished solving LPB equations
  A_corr:   -7.324014968587135E-002
 End minimization
 Ecorr=   3518.12811255520     
 A_corr= -7.324014968587135E-002
 Ecorr_band=  -3518.20135270488     
 End Solvation calculations
RMM:   9    -0.256054443455E+03    0.22208E+02   -0.22617E+01 16278   0.758E+00    0.265E+01
 Begin Solvation calculations
  rms_SCF =    2.48852506512894      tol =   0.248852506512894     
 Begin minimization
 Creating dielectric and ionic cavities
  area:      139.125377341627     
  volume:    750.000690556722     
  Acav:     7.304082310435432E-002
  Solving linear dielectric/ionic screening model
        iter                  A_solv                     rms
   LPB:       -0.966399602270943E+00   0.150731265316204E+02
   LPB:    0  -0.729850007862477E+00   0.128853726663298E+02   0.124875E+00   0.000000E+00   0.303392E+02   0.378860E+01
   LPB:    1  -0.253822558044217E+00   0.127582247885174E+01   0.925805E-02   0.000000E+00   0.664417E+02   0.129996E-15
   LPB:    2  -0.198094297066086E+00   0.362937081840503E+00   0.161819E-01   0.669784E-01   0.185797E+03   0.296330E-14
   LPB:    3  -0.184892077833204E+00   0.269004175378286E+00   0.256850E-01   0.149252E+00   0.190535E+03   0.283154E-14
   LPB:    4  -0.179237186982224E+00   0.390304378094956E+00   0.268797E-01   0.409292E+00   0.367351E+03   0.278487E-14
   LPB:    5  -0.175334099886735E+00   0.162076198309749E+00   0.276499E-01   0.670986E+00   0.452814E+02   0.265730E-14
  Finished solving LPB equations
  A_corr:   -0.102293276782380     
 End minimization
 Ecorr=   3439.90380970701     
 A_corr= -0.102293276782380     
 Ecorr_band=  -3440.00610298379     
 End Solvation calculations
RMM:  10    -0.256721673109E+03   -0.66723E+00   -0.15916E+01 16285   0.603E+00    0.236E+01
 Begin Solvation calculations
  rms_SCF =    2.48852506512894      tol =   0.248852506512894     
 Begin minimization
 Creating dielectric and ionic cavities
  area:      135.745073199538     
  volume:    746.307303098280     
  Acav:     7.126616342975750E-002
  Solving linear dielectric/ionic screening model
        iter                  A_solv                     rms
   LPB:       -0.271555257852958E+00   0.402981952981573E+01
   LPB:    0  -0.262719476296171E+00   0.321218667503336E+01  -0.240657E-01   0.000000E+00   0.305124E+02  -0.734303E+00
   LPB:    1  -0.213196502621051E+00   0.789242338825613E+00   0.110059E-01   0.000000E+00   0.644295E+02   0.185990E-16
   LPB:    2  -0.198637566078266E+00   0.352898550126187E+00   0.191611E-01   0.168861E+00   0.122193E+03   0.357368E-15
   LPB:    3  -0.193385070268204E+00   0.335162566826919E+00   0.235304E-01   0.293783E+00   0.231157E+03   0.108684E-14
   LPB:    4  -0.190260644543260E+00   0.157619551321997E+00   0.260274E-01   0.537778E+00   0.718456E+02   0.266542E-15
  Finished solving LPB equations
  A_corr:   -0.118994481113503     
 End minimization
 Ecorr=   3419.34770991773     
 A_corr= -0.118994481113503     
 Ecorr_band=  -3419.46670439884     
 End Solvation calculations
RMM:  11    -0.251740475326E+03    0.49812E+01   -0.50455E+00 16300   0.365E+00    0.122E+01
 Begin Solvation calculations
  rms_SCF =    2.48852506512894      tol =   0.248852506512894     
 Begin minimization
 Creating dielectric and ionic cavities
  area:      133.646417817121     
  volume:    744.737164619691     
  Acav:     7.016436935398863E-002
  Solving linear dielectric/ionic screening model
        iter                  A_solv                     rms
   LPB:       -0.200923908896761E+00   0.113345043575269E+01
   LPB:    0  -0.200050588932546E+00   0.111999206701409E+01   0.755684E-02   0.000000E+00   0.305860E+02   0.231134E+00
   LPB:    1  -0.193671492594606E+00   0.329116226936413E+00   0.113265E-01   0.000000E+00   0.775716E+02   0.130336E-16
   LPB:    2  -0.190735777816488E+00   0.103419393343450E+00   0.225610E-01   0.231042E+00   0.182009E+03   0.966927E-15
   LPB:    3  -0.188474451950067E+00   0.989068083522189E-01   0.390333E-01   0.445218E+00   0.210077E+03   0.345630E-15
   LPB:    4  -0.186514193661086E+00   0.909500316111839E-01   0.420810E-01   0.804081E+00   0.678825E+02  -0.664609E-16
  Finished solving LPB equations
  A_corr:   -0.116349824307097     
 End minimization
 Ecorr=   3401.05456916411     
 A_corr= -0.116349824307097     
 Ecorr_band=  -3401.17091898842     
 End Solvation calculations
RMM:  12    -0.250397187218E+03    0.13433E+01   -0.16527E+00 16294   0.205E+00    0.573E+00
 Begin Solvation calculations
  rms_SCF =    2.48852506512894      tol =   0.248852506512894     
 Begin minimization
 Creating dielectric and ionic cavities
  area:      133.078429118611     
  volume:    741.768024729810     
  Acav:     6.986617528727086E-002
  Solving linear dielectric/ionic screening model
        iter                  A_solv                     rms
   LPB:       -0.220756747929521E+00   0.251510628009389E+01
   LPB:    0  -0.217825748917306E+00   0.256864941157294E+01   0.138126E-01   0.000000E+00   0.307252E+02   0.424395E+00
   LPB:    1  -0.195895749139569E+00   0.388555269274321E+00   0.986604E-02   0.000000E+00   0.657753E+02  -0.120356E-16
   LPB:    2  -0.191010472289389E+00   0.991314246811390E-01   0.182373E-01   0.120513E+00   0.151440E+03   0.119820E-14
   LPB:    3  -0.189674174831902E+00   0.175005609244459E+00   0.295980E-01   0.168543E+00   0.281087E+03   0.103238E-14
   LPB:    4  -0.188793417330532E+00   0.110788810916735E+00   0.266817E-01   0.731142E+00   0.580952E+02   0.153130E-14
  Finished solving LPB equations
  A_corr:   -0.118927242043261     
 End minimization
 Ecorr=   3380.91852201504     
 A_corr= -0.118927242043261     
 Ecorr_band=  -3381.03744925708     
 End Solvation calculations
RMM:  13    -0.250538781122E+03   -0.14159E+00   -0.53679E-01 16290   0.118E+00    0.701E+00
 Begin Solvation calculations
  rms_SCF =    2.48852506512894      tol =   0.248852506512894     
 Begin minimization
 Creating dielectric and ionic cavities
  area:      133.159656902986     
  volume:    740.097728038017     
  Acav:     6.990881987406788E-002
  Solving linear dielectric/ionic screening model
        iter                  A_solv                     rms
   LPB:       -0.202223226497865E+00   0.907511883771174E+00
   LPB:    0  -0.199878865493613E+00   0.738037063116024E+00   0.123375E-01   0.000000E+00   0.308035E+02   0.380038E+00
   LPB:    1  -0.195956217054291E+00   0.295805571991877E+00   0.119368E-01   0.000000E+00   0.990480E+02   0.257389E-17
   LPB:    2  -0.194687477836800E+00   0.821912980559561E-01   0.181202E-01   0.213069E+00   0.204323E+03   0.247679E-15
   LPB:    3  -0.193711073170685E+00   0.679381487677309E-01   0.355320E-01   0.392465E+00   0.221674E+03  -0.966302E-16
   LPB:    4  -0.192794116967941E+00   0.683260519814931E-01   0.461193E-01   0.723528E+00   0.705542E+02  -0.302610E-15
  Finished solving LPB equations
  A_corr:   -0.122885297093873     
 End minimization
 Ecorr=   3365.67404990037     
 A_corr= -0.122885297093873     
 Ecorr_band=  -3365.79693519746     
 End Solvation calculations
RMM:  14    -0.250246976637E+03    0.29180E+00   -0.33914E-01 16291   0.956E-01    0.373E+00
 Begin Solvation calculations
  rms_SCF =    2.20902387430482      tol =   0.220902387430482     
 Begin minimization
 Creating dielectric and ionic cavities
  area:      133.470128948821     
  volume:    736.796687024907     
  Acav:     7.007181769813128E-002
  Solving linear dielectric/ionic screening model
        iter                  A_solv                     rms
   LPB:       -0.230271787689101E+00   0.209296211863785E+01
   LPB:    0  -0.223941290425104E+00   0.198494252760163E+01   0.202230E-01   0.000000E+00   0.309583E+02   0.626069E+00
   LPB:    1  -0.206752027859893E+00   0.371808048813748E+00   0.986739E-02   0.000000E+00   0.878911E+02   0.302781E-16
   LPB:    2  -0.204026929469504E+00   0.865168242369989E-01   0.155463E-01   0.100624E+00   0.342220E+03  -0.195598E-14
   LPB:    3  -0.203065287684030E+00   0.103091730017248E+00   0.305842E-01   0.179374E+00   0.281711E+03  -0.194096E-14
   LPB:    4  -0.202425593615400E+00   0.113895041991256E+00   0.324770E-01   0.626443E+00   0.727559E+02  -0.179772E-14
  Finished solving LPB equations
  A_corr:   -0.132353775917269     
 End minimization
 Ecorr=   3346.52670873178     
 A_corr= -0.132353775917269     
 Ecorr_band=  -3346.65906250769     
 End Solvation calculations
RMM:  15    -0.250255608320E+03   -0.86317E-02   -0.20879E-01 16292   0.742E-01    0.372E+00
 Begin Solvation calculations
  rms_SCF =    2.20902387430482      tol =   0.220902387430482     
 Begin minimization
 Creating dielectric and ionic cavities
  area:      134.082375821887     
  volume:    732.699719834211     
  Acav:     7.039324730649089E-002
  Solving linear dielectric/ionic screening model
        iter                  A_solv                     rms
   LPB:       -0.234905992739679E+00   0.969564338296260E+00
   LPB:    0  -0.228913598230022E+00   0.871935412278618E+00   0.196148E-01   0.000000E+00   0.311503E+02   0.611008E+00
   LPB:    1  -0.216258047266474E+00   0.528556645109301E+00   0.133018E-01   0.000000E+00   0.161699E+03   0.145986E-16
   LPB:    2  -0.214090446628954E+00   0.143688069364436E+00   0.144862E-01   0.157272E+00   0.105343E+03   0.113634E-14
   LPB:    3  -0.212967678475708E+00   0.132540998751067E+00   0.261029E-01   0.287459E+00   0.244061E+03   0.488628E-15
   LPB:    4  -0.212120275250061E+00   0.149802745386262E+00   0.294289E-01   0.669445E+00   0.745881E+02   0.142699E-15
  Finished solving LPB equations
  A_corr:   -0.141727027943571     
 End minimization
 Ecorr=   3326.88446727539     
 A_corr= -0.141727027943571     
 Ecorr_band=  -3327.02619430334     
 End Solvation calculations
RMM:  16    -0.250210366600E+03    0.45242E-01   -0.13398E-01 16296   0.613E-01    0.311E+00
 Begin Solvation calculations
  rms_SCF =    2.20902387430482      tol =   0.220902387430482     
 Begin minimization
 Creating dielectric and ionic cavities
  area:      134.537013154842     
  volume:    730.192994907404     
  Acav:     7.063193190629194E-002
  Solving linear dielectric/ionic screening model
        iter                  A_solv                     rms
   LPB:       -0.226604252028030E+00   0.507611703688557E+00
   LPB:    0  -0.224958255674556E+00   0.508092216672821E+00   0.102608E-01   0.000000E+00   0.312679E+02   0.320833E+00
   LPB:    1  -0.219051218401052E+00   0.174949794006239E+00   0.153249E-01   0.000000E+00   0.165726E+03  -0.540868E-17
   LPB:    2  -0.218159028018201E+00   0.150760717111360E+00   0.181386E-01   0.127609E+00   0.182216E+03  -0.477285E-15
   LPB:    3  -0.217357853669563E+00   0.187666064141394E+00   0.333638E-01   0.488200E+00   0.626907E+02  -0.581831E-15
   LPB:    4  -0.216533612159455E+00   0.176115390005315E+00   0.302571E-01   0.113443E+01   0.960763E+02  -0.720520E-15
  Finished solving LPB equations
  A_corr:   -0.145901680253163     
 End minimization
 Ecorr=   3313.66775890412     
 A_corr= -0.145901680253163     
 Ecorr_band=  -3313.81366058437     
 End Solvation calculations
RMM:  17    -0.250142762752E+03    0.67604E-01   -0.43211E-02 16296   0.346E-01    0.146E+00
 Begin Solvation calculations
  rms_SCF =    1.60074681169338      tol =   0.160074681169338     
 Begin minimization
 Creating dielectric and ionic cavities
  area:      134.800165890420     
  volume:    728.744088019366     
  Acav:     7.077008709247057E-002
  Solving linear dielectric/ionic screening model
        iter                  A_solv                     rms
   LPB:       -0.222624427520822E+00   0.395418678047237E+00
   LPB:    0  -0.221790994880533E+00   0.299998341585016E+00   0.729340E-02   0.000000E+00   0.313358E+02   0.228544E+00
   LPB:    1  -0.219513294097610E+00   0.104395212329862E+00   0.150472E-01   0.000000E+00   0.210488E+03   0.111401E-16
   LPB:    2  -0.219211630160883E+00   0.103810584899022E+00   0.171766E-01   0.116024E+00   0.224381E+03  -0.624065E-15
   LPB:    3  -0.218821767235355E+00   0.146356464555781E+00   0.388472E-01   0.571434E+00   0.653735E+02  -0.110884E-15
   LPB:    4  -0.218224567875490E+00   0.130679395906576E+00   0.360042E-01   0.165277E+01   0.625318E+02   0.148166E-14
  Finished solving LPB equations
  A_corr:   -0.147454480783020     
 End minimization
 Ecorr=   3304.14323781178     
 A_corr= -0.147454480783020     
 Ecorr_band=  -3304.29069229256     
 End Solvation calculations
RMM:  18    -0.250131704311E+03    0.11058E-01   -0.17982E-02 16292   0.224E-01    0.110E+00
 Begin Solvation calculations
  rms_SCF =    1.38151034968710      tol =   0.138151034968710     
 Begin minimization
 Creating dielectric and ionic cavities
  area:      135.305642837294     
  volume:    726.360662675131     
  Acav:     7.103546248957943E-002
  Solving linear dielectric/ionic screening model
        iter                  A_solv                     rms
   LPB:       -0.234659173153985E+00   0.670267915725121E+00
   LPB:    0  -0.233366182879904E+00   0.690249468588716E+00   0.906817E-02   0.000000E+00   0.314475E+02   0.285171E+00
   LPB:    1  -0.224769369710600E+00   0.221775517981165E+00   0.146852E-01   0.000000E+00   0.156306E+03   0.136542E-17
   LPB:    2  -0.223740228624586E+00   0.127440661782945E+00   0.153212E-01   0.114742E+00   0.161336E+03  -0.176291E-14
   LPB:    3  -0.223349358507467E+00   0.101659167083278E+00   0.230450E-01   0.252508E+00   0.880484E+02  -0.150379E-14
   LPB:    4  -0.223107412294436E+00   0.998163743104383E-01   0.248840E-01   0.573247E+00   0.161712E+03  -0.953915E-15
  Finished solving LPB equations
  A_corr:   -0.152071949804856     
 End minimization
 Ecorr=   3295.63725625159     
 A_corr= -0.152071949804856     
 Ecorr_band=  -3295.78932820140     
 End Solvation calculations
RMM:  19    -0.250125867685E+03    0.58366E-02   -0.12209E-02 16286   0.168E-01    0.854E-01
 Begin Solvation calculations
  rms_SCF =   0.399080724380700      tol =   3.990807243807003E-002
 Begin minimization
 Creating dielectric and ionic cavities
  area:      135.471438695646     
  volume:    725.716200563559     
  Acav:     7.112250531521420E-002
  Solving linear dielectric/ionic screening model
        iter                  A_solv                     rms
   LPB:       -0.225792362924981E+00   0.307734704077456E+00
   LPB:    0  -0.225470250139851E+00   0.194601910589011E+00   0.452394E-02   0.000000E+00   0.314777E+02   0.142404E+00
   LPB:    1  -0.224543972442184E+00   0.152321645283855E+00   0.126381E-01   0.000000E+00   0.303324E+03  -0.455297E-17
   LPB:    2  -0.224371327072846E+00   0.557641889494680E-01   0.152017E-01   0.154954E+00   0.811035E+02  -0.272344E-16
   LPB:    3  -0.224118812742652E+00   0.506340993958267E-01   0.494436E-01   0.449690E+00   0.140892E+03  -0.691949E-16
   LPB:    4  -0.223788719764960E+00   0.712522357730291E-01   0.375984E-01   0.171906E+01   0.816168E+02   0.459611E-16
   LPB:    5  -0.223613775063547E+00   0.650760869061190E-01   0.234536E-01   0.849617E+00   0.244264E+03   0.524064E-15
   LPB:    6  -0.223475386912853E+00   0.239540803448443E-01   0.319600E-01   0.580500E+00   0.497101E+02   0.637269E-15
  Finished solving LPB equations
  A_corr:   -0.152352881597639     
 End minimization
 Ecorr=   3289.50689579450     
 A_corr= -0.152352881597639     
 Ecorr_band=  -3289.65924867610     
 End Solvation calculations
RMM:  20    -0.250121537567E+03    0.43301E-02   -0.65554E-03 16264   0.131E-01    0.667E-01
 Begin Solvation calculations
  rms_SCF =   0.399080724380700      tol =   3.990807243807003E-002
 Begin minimization
 Creating dielectric and ionic cavities
  area:      135.603428887443     
  volume:    725.185916712806     
  Acav:     7.119180016590783E-002
  Solving linear dielectric/ionic screening model
        iter                  A_solv                     rms
   LPB:       -0.225844645096836E+00   0.257185672301328E+00
   LPB:    0  -0.225765390163200E+00   0.246562386135563E+00   0.224313E-02   0.000000E+00   0.315026E+02   0.706645E-01
   LPB:    1  -0.224381465263179E+00   0.798924495657885E-01   0.150582E-01   0.000000E+00   0.200674E+03   0.656148E-17
   LPB:    2  -0.224219386173729E+00   0.423382989839278E-01   0.164880E-01   0.106960E+00   0.133678E+03   0.742361E-16
   LPB:    3  -0.224182659032722E+00   0.186264069750922E-01   0.195997E-01   0.190624E+00   0.105226E+03  -0.102066E-15
   LPB:    4  -0.224157778480382E+00   0.176726824479258E-01   0.351067E-01   0.378209E+00   0.345068E+03   0.476841E-16
  Finished solving LPB equations
  A_corr:   -0.152965978314475     
 End minimization
 Ecorr=   3288.20475511908     
 A_corr= -0.152965978314475     
 Ecorr_band=  -3288.35772109739     
 End Solvation calculations
RMM:  21    -0.250119236885E+03    0.23007E-02   -0.18335E-03 14104   0.649E-02    0.480E-01
 Begin Solvation calculations
  rms_SCF =   0.399080724380700      tol =   3.990807243807003E-002
 Begin minimization
 Creating dielectric and ionic cavities
  area:      135.724093548763     
  volume:    724.730196514905     
  Acav:     7.125514911310048E-002
  Solving linear dielectric/ionic screening model
        iter                  A_solv                     rms
   LPB:       -0.226251894753306E+00   0.253009024311135E+00
   LPB:    0  -0.226176021842547E+00   0.245880207615883E+00   0.219401E-02   0.000000E+00   0.315240E+02   0.691638E-01
   LPB:    1  -0.224867935091403E+00   0.988214258541209E-01   0.145177E-01   0.000000E+00   0.204909E+03   0.480755E-17
   LPB:    2  -0.224736337582606E+00   0.426884044412313E-01   0.153588E-01   0.950935E-01   0.850699E+02   0.829820E-16
   LPB:    3  -0.224693865556150E+00   0.290052912196066E-01   0.216476E-01   0.228983E+00   0.152633E+03  -0.146265E-16
   LPB:    4  -0.224665872357499E+00   0.327196538939993E-01   0.268507E-01   0.531379E+00   0.118028E+03   0.168932E-15
  Finished solving LPB equations
  A_corr:   -0.153410723244399     
 End minimization
 Ecorr=   3286.93792354840     
 A_corr= -0.153410723244399     
 Ecorr_band=  -3287.09133427165     
 End Solvation calculations
RMM:  22    -0.250119031922E+03    0.20496E-03   -0.12776E-03 13654   0.578E-02    0.512E-01
 Begin Solvation calculations
  rms_SCF =   0.399080724380700      tol =   3.990807243807003E-002
 Begin minimization
 Creating dielectric and ionic cavities
  area:      136.016852736068     
  volume:    723.724542843467     
  Acav:     7.140884768643581E-002
  Solving linear dielectric/ionic screening model
        iter                  A_solv                     rms
   LPB:       -0.234877572110670E+00   0.706985200063906E+00
   LPB:    0  -0.234569661201270E+00   0.701563889108164E+00   0.441654E-02   0.000000E+00   0.315711E+02   0.139435E+00
   LPB:    1  -0.227526501643379E+00   0.170493344016523E+00   0.146075E-01   0.000000E+00   0.133900E+03  -0.103089E-16
   LPB:    2  -0.226812590855439E+00   0.974583771015081E-01   0.156170E-01   0.948103E-01   0.145638E+03  -0.405973E-15
   LPB:    3  -0.226606190920549E+00   0.607578599910103E-01   0.199702E-01   0.226089E+00   0.998437E+02  -0.223566E-16
   LPB:    4  -0.226506386403607E+00   0.648897637931840E-01   0.233879E-01   0.412888E+00   0.233393E+03   0.200207E-15
   LPB:    5  -0.226444138792857E+00   0.383924786900392E-01   0.213913E-01   0.681910E+00   0.766598E+02   0.273737E-15
  Finished solving LPB equations
  A_corr:   -0.155035291106421     
 End minimization
 Ecorr=   3285.16876467655     
 A_corr= -0.155035291106421     
 Ecorr_band=  -3285.32379996766     
 End Solvation calculations
RMM:  23    -0.250117456713E+03    0.15752E-02   -0.12220E-03 13595   0.498E-02    0.316E-01
 Begin Solvation calculations
  rms_SCF =   0.399080724380700      tol =   3.990807243807003E-002
 Begin minimization
 Creating dielectric and ionic cavities
  area:      136.267189711718     
  volume:    722.985214956702     
  Acav:     7.154027459865200E-002
  Solving linear dielectric/ionic screening model
        iter                  A_solv                     rms
   LPB:       -0.234641541574240E+00   0.573580930108143E+00
   LPB:    0  -0.234365269337407E+00   0.572108853247368E+00   0.418120E-02   0.000000E+00   0.316058E+02   0.132150E+00
   LPB:    1  -0.229120062118648E+00   0.162606166757968E+00   0.145601E-01   0.000000E+00   0.150349E+03  -0.645700E-17
   LPB:    2  -0.228591261313332E+00   0.721361786516541E-01   0.157145E-01   0.934100E-01   0.112343E+03  -0.122815E-16
   LPB:    3  -0.228429455064333E+00   0.444075403473943E-01   0.232353E-01   0.206945E+00   0.108644E+03  -0.288558E-15
   LPB:    4  -0.228314303517089E+00   0.278918824569767E-01   0.350619E-01   0.471616E+00   0.121881E+03  -0.475756E-15
  Finished solving LPB equations
  A_corr:   -0.156774028918437     
 End minimization
 Ecorr=   3283.12539408708     
 A_corr= -0.156774028918437     
 Ecorr_band=  -3283.28216811600     
 End Solvation calculations
RMM:  24    -0.250117047893E+03    0.40882E-03   -0.10017E-03 13530   0.475E-02    0.211E-01
 Begin Solvation calculations
  rms_SCF =   0.276505360366632      tol =   2.765053603666317E-002
 Begin minimization
 Creating dielectric and ionic cavities
  area:      136.391260346915     
  volume:    722.725375090468     
  Acav:     7.160541168213047E-002
  Solving linear dielectric/ionic screening model
        iter                  A_solv                     rms
   LPB:       -0.231474298878416E+00   0.400766205573468E+00
   LPB:    0  -0.231409045520685E+00   0.398052934187520E+00   0.203165E-02   0.000000E+00   0.316179E+02   0.642367E-01
   LPB:    1  -0.229492836632748E+00   0.807874012624594E-01   0.146017E-01   0.000000E+00   0.113366E+03  -0.296565E-17
   LPB:    2  -0.229320717087084E+00   0.538050960124010E-01   0.157430E-01   0.833112E-01   0.157115E+03  -0.182212E-15
   LPB:    3  -0.229240978845249E+00   0.481120597778257E-01   0.252343E-01   0.289022E+00   0.773974E+02  -0.303587E-15
   LPB:    4  -0.229160851621218E+00   0.589944839925271E-01   0.309586E-01   0.819077E+00   0.169081E+03  -0.236621E-15
   LPB:    5  -0.229096950621796E+00   0.419822154800785E-01   0.232053E-01   0.106395E+01   0.636913E+02  -0.299740E-15
   LPB:    6  -0.229043752015764E+00   0.135271302691958E-01   0.298596E-01   0.646989E+00   0.151345E+03  -0.311997E-15
  Finished solving LPB equations
  A_corr:   -0.157438340333634     
 End minimization
 Ecorr=   3282.01311344405     
 A_corr= -0.157438340333634     
 Ecorr_band=  -3282.17055178438     
 End Solvation calculations
RMM:  25    -0.250117897989E+03   -0.85010E-03   -0.37138E-04 11546   0.299E-02    0.349E-01
 Begin Solvation calculations
  rms_SCF =   0.276505360366632      tol =   2.765053603666317E-002
 Begin minimization
 Creating dielectric and ionic cavities
  area:      136.583207707207     
  volume:    722.401585723096     
  Acav:     7.170618404628371E-002
  Solving linear dielectric/ionic screening model
        iter                  A_solv                     rms
   LPB:       -0.237768965875567E+00   0.811330909053949E+00
   LPB:    0  -0.237646233325244E+00   0.802777733196309E+00   0.278563E-02   0.000000E+00   0.316331E+02   0.881183E-01
   LPB:    1  -0.231290223846167E+00   0.151119994004955E+00   0.143117E-01   0.000000E+00   0.962040E+02  -0.969147E-18
   LPB:    2  -0.230745302975657E+00   0.105467941007311E+00   0.141159E-01   0.869227E-01   0.239357E+03  -0.554551E-16
   LPB:    3  -0.230614092424282E+00   0.374257631184297E-01   0.155933E-01   0.217974E+00   0.100358E+03  -0.184398E-15
   LPB:    4  -0.230560815421156E+00   0.393043722426777E-01   0.235245E-01   0.269146E+00   0.270743E+03  -0.110183E-15
   LPB:    5  -0.230525125054647E+00   0.294642472843196E-01   0.266013E-01   0.592418E+00   0.666274E+02  -0.827073E-16
   LPB:    6  -0.230486159903442E+00   0.135584277198372E-01   0.364321E-01   0.797158E+00   0.105313E+03   0.225728E-15
  Finished solving LPB equations
  A_corr:   -0.158779975857158     
 End minimization
 Ecorr=   3281.04150182167     
 A_corr= -0.158779975857158     
 Ecorr_band=  -3281.20028179753     
 End Solvation calculations
RMM:  26    -0.250118357714E+03   -0.45973E-03   -0.43917E-04 11632   0.291E-02    0.319E-01
 Begin Solvation calculations
  rms_SCF =   0.276505360366632      tol =   2.765053603666317E-002
 Begin minimization
 Creating dielectric and ionic cavities
  area:      136.711569168124     
  volume:    722.246799176924     
  Acav:     7.177357381326506E-002
  Solving linear dielectric/ionic screening model
        iter                  A_solv                     rms
   LPB:       -0.235873429009096E+00   0.674271445113205E+00
   LPB:    0  -0.235826161858797E+00   0.668861640080049E+00   0.172852E-02   0.000000E+00   0.316404E+02   0.546910E-01
   LPB:    1  -0.232091864366243E+00   0.132433295952332E+00   0.140388E-01   0.000000E+00   0.845367E+02  -0.120902E-17
   LPB:    2  -0.231770229742572E+00   0.823720826502755E-01   0.131885E-01   0.916832E-01   0.249616E+03  -0.226802E-15
   LPB:    3  -0.231684664152966E+00   0.247478047512730E-01   0.162999E-01   0.215252E+00   0.104506E+03  -0.201025E-15
   LPB:    4  -0.231643464136775E+00   0.322474585073867E-01   0.284068E-01   0.276286E+00   0.241427E+03  -0.339582E-15
   LPB:    5  -0.231610075938349E+00   0.303946930558937E-01   0.301413E-01   0.763758E+00   0.610465E+02  -0.400148E-15
   LPB:    6  -0.231576448616121E+00   0.138222209142869E-01   0.327506E-01   0.926920E+00   0.960800E+02  -0.348901E-15
  Finished solving LPB equations
  A_corr:   -0.159802874802856     
 End minimization
 Ecorr=   3280.60836429669     
 A_corr= -0.159802874802856     
 Ecorr_band=  -3280.76816717149     
 End Solvation calculations
RMM:  27    -0.250118673618E+03   -0.31590E-03   -0.24518E-04 10742   0.230E-02    0.268E-01
 Begin Solvation calculations
  rms_SCF =   0.276505360366632      tol =   2.765053603666317E-002
 Begin minimization
 Creating dielectric and ionic cavities
  area:      136.816584531433     
  volume:    722.156210088066     
  Acav:     7.182870687900221E-002
  Solving linear dielectric/ionic screening model
        iter                  A_solv                     rms
   LPB:       -0.236994415139556E+00   0.759031119961278E+00
   LPB:    0  -0.236982211878593E+00   0.758163120226986E+00   0.878219E-03   0.000000E+00   0.316446E+02   0.277909E-01
   LPB:    1  -0.233246652024374E+00   0.165894133772875E+00   0.134019E-01   0.000000E+00   0.722976E+02  -0.157905E-17
   LPB:    2  -0.232883943284448E+00   0.711655275551976E-01   0.120396E-01   0.108082E+00   0.249764E+03   0.396325E-16
   LPB:    3  -0.232795893789430E+00   0.178405277040652E-01   0.173383E-01   0.168568E+00   0.129188E+03   0.162467E-16
   LPB:    4  -0.232762536143488E+00   0.256063796305971E-01   0.282130E-01   0.232823E+00   0.245118E+03  -0.202461E-15
  Finished solving LPB equations
  A_corr:   -0.160933829264486     
 End minimization
 Ecorr=   3280.31311351828     
 A_corr= -0.160933829264486     
 Ecorr_band=  -3280.47404734754     
 End Solvation calculations
RMM:  28    -0.250118780804E+03   -0.10719E-03   -0.30692E-04 11116   0.200E-02    0.142E-01
 Begin Solvation calculations
  rms_SCF =   9.255873980123434E-002 tol =   9.255873980123435E-003
 Begin minimization
 Creating dielectric and ionic cavities
  area:      136.880349310929     
  volume:    722.179222644978     
  Acav:     7.186218338823766E-002
  Solving linear dielectric/ionic screening model
        iter                  A_solv                     rms
   LPB:       -0.236132725587900E+00   0.616603733985927E+00
   LPB:    0  -0.236131909918553E+00   0.616207847319612E+00   0.227054E-03   0.000000E+00   0.316436E+02   0.718480E-02
   LPB:    1  -0.233891681088829E+00   0.130035650397980E+00   0.132197E-01   0.000000E+00   0.673270E+02   0.152657E-18
   LPB:    2  -0.233681778418039E+00   0.562213616851417E-01   0.118892E-01   0.104182E+00   0.243135E+03   0.323770E-16
   LPB:    3  -0.233610501255113E+00   0.166882488592164E-01   0.213098E-01   0.189455E+00   0.106696E+03   0.655793E-16
   LPB:    4  -0.233564613871302E+00   0.207972439062073E-01   0.349881E-01   0.392104E+00   0.189177E+03   0.635361E-16
   LPB:    5  -0.233532460114741E+00   0.273047030269729E-01   0.318740E-01   0.769170E+00   0.805630E+02   0.403767E-16
   LPB:    6  -0.233507639790281E+00   0.193462719997281E-01   0.289664E-01   0.849413E+00   0.103396E+03  -0.465727E-16
   LPB:    7  -0.233486820851130E+00   0.859204215230555E-02   0.312481E-01   0.777538E+00   0.136652E+03   0.114521E-15
  Finished solving LPB equations
  A_corr:   -0.161624637462893     
 End minimization
 Ecorr=   3280.79888430709     
 A_corr= -0.161624637462893     
 Ecorr_band=  -3280.96050894455     
 End Solvation calculations
RMM:  29    -0.250119156846E+03   -0.37604E-03   -0.12443E-04  9531   0.165E-02    0.133E-01
 Begin Solvation calculations
  rms_SCF =   9.255873980123434E-002 tol =   9.255873980123435E-003
 Begin minimization
 Creating dielectric and ionic cavities
  area:      136.933961770654     
  volume:    722.245939159494     
  Acav:     7.189032992959343E-002
  Solving linear dielectric/ionic screening model
        iter                  A_solv                     rms
   LPB:       -0.236931764501534E+00   0.651889987774947E+00
   LPB:    0  -0.236931759599886E+00   0.651876072278564E+00  -0.176021E-04   0.000000E+00   0.316404E+02  -0.556938E-03
   LPB:    1  -0.234610200685471E+00   0.135479149854846E+00   0.128613E-01   0.000000E+00   0.660411E+02  -0.420964E-20
   LPB:    2  -0.234386117702320E+00   0.491025867053680E-01   0.116220E-01   0.106815E+00   0.257218E+03   0.329449E-17
   LPB:    3  -0.234334168388356E+00   0.106893788812091E-01   0.181718E-01   0.148270E+00   0.140142E+03  -0.126968E-16
   LPB:    4  -0.234320112277936E+00   0.130696076335495E-01   0.252336E-01   0.194852E+00   0.303237E+03   0.572181E-16
   LPB:    5  -0.234311572980625E+00   0.154237197077033E-01   0.313454E-01   0.489060E+00   0.826673E+02   0.682026E-16
   LPB:    6  -0.234301598728026E+00   0.118747923069969E-01   0.363156E-01   0.100818E+01   0.794463E+02   0.803232E-16
   LPB:    7  -0.234289461045442E+00   0.545763895658007E-02   0.384172E-01   0.115033E+01   0.775846E+02   0.153951E-15
  Finished solving LPB equations
  A_corr:   -0.162399131115849     
 End minimization
 Ecorr=   3280.90606564779     
 A_corr= -0.162399131115849     
 Ecorr_band=  -3281.06846477891     
 End Solvation calculations
RMM:  30    -0.250119452398E+03   -0.29555E-03   -0.11925E-04  9653   0.134E-02    0.107E-01
 Begin Solvation calculations
  rms_SCF =   9.255873980123434E-002 tol =   9.255873980123435E-003
 Begin minimization
 Creating dielectric and ionic cavities
  area:      136.951402312665     
  volume:    722.386866837899     
  Acav:     7.189948621414922E-002
  Solving linear dielectric/ionic screening model
        iter                  A_solv                     rms
   LPB:       -0.236359370240923E+00   0.553144724120032E+00
   LPB:    0  -0.236355405803020E+00   0.552679019257396E+00  -0.500645E-03   0.000000E+00   0.316338E+02  -0.158373E-01
   LPB:    1  -0.234923010043185E+00   0.106831710814033E+00   0.121410E-01   0.000000E+00   0.636021E+02  -0.798978E-18
   LPB:    2  -0.234787454206524E+00   0.323825017236994E-01   0.112279E-01   0.102332E+00   0.265080E+03   0.172466E-16
   LPB:    3  -0.234762396970061E+00   0.542859552878747E-02   0.182903E-01   0.113472E+00   0.137546E+03   0.308675E-16
   LPB:    4  -0.234756682785633E+00   0.495959292145637E-02   0.259163E-01   0.160942E+00   0.331122E+03   0.160556E-16
  Finished solving LPB equations
  A_corr:   -0.162857196571484     
 End minimization
 Ecorr=   3281.11202408808     
 A_corr= -0.162857196571484     
 Ecorr_band=  -3281.27488128465     
 End Solvation calculations
RMM:  31    -0.250119674746E+03   -0.22235E-03   -0.89131E-05  9160   0.118E-02    0.845E-02
 Begin Solvation calculations
  rms_SCF =   3.848904895300883E-002 tol =   3.848904895300883E-003
 Begin minimization
 Creating dielectric and ionic cavities
  area:      136.962021116785     
  volume:    722.538228774784     
  Acav:     7.190506108631214E-002
  Solving linear dielectric/ionic screening model
        iter                  A_solv                     rms
   LPB:       -0.236807387980384E+00   0.564815191725615E+00
   LPB:    0  -0.236798323126129E+00   0.563854352007796E+00  -0.757126E-03   0.000000E+00   0.316267E+02  -0.239454E-01
   LPB:    1  -0.235404507181179E+00   0.104783795071824E+00   0.118092E-01   0.000000E+00   0.628515E+02  -0.765568E-18
   LPB:    2  -0.235271093636008E+00   0.320934047197748E-01   0.112448E-01   0.100523E+00   0.255266E+03   0.620368E-16
   LPB:    3  -0.235244628546894E+00   0.666170752229937E-02   0.201321E-01   0.110799E+00   0.112048E+03   0.614847E-16
   LPB:    4  -0.235233963061852E+00   0.455930532365764E-02   0.320372E-01   0.253246E+00   0.215202E+03   0.230331E-16
   LPB:    5  -0.235226793325499E+00   0.293559475596522E-02   0.376992E-01   0.571274E+00   0.147422E+03  -0.456188E-17
  Finished solving LPB equations
  A_corr:   -0.163321732239186     
 End minimization
 Ecorr=   3281.36940752042     
 A_corr= -0.163321732239186     
 Ecorr_band=  -3281.53272925266     
 End Solvation calculations
RMM:  32    -0.250119880720E+03   -0.20597E-03   -0.71213E-05  9092   0.108E-02    0.640E-02
 Begin Solvation calculations
  rms_SCF =   3.353449946496000E-002 tol =   3.353449946496000E-003
 Begin minimization
 Creating dielectric and ionic cavities
  area:      136.972385230631     
  volume:    722.661792959783     
  Acav:     7.191050224608152E-002
  Solving linear dielectric/ionic screening model
        iter                  A_solv                     rms
   LPB:       -0.236895998887555E+00   0.497303284423546E+00
   LPB:    0  -0.236887874754570E+00   0.495732304520396E+00  -0.716830E-03   0.000000E+00   0.316209E+02  -0.226668E-01
   LPB:    1  -0.235828620941296E+00   0.899509000059845E-01   0.116237E-01   0.000000E+00   0.638035E+02   0.123438E-17
   LPB:    2  -0.235728996712059E+00   0.266434068862970E-01   0.111983E-01   0.976241E-01   0.255928E+03   0.181236E-16
   LPB:    3  -0.235712484273536E+00   0.503564798774966E-02   0.186826E-01   0.993485E-01   0.117042E+03   0.642456E-16
   LPB:    4  -0.235705776582293E+00   0.409397843708946E-02   0.354970E-01   0.213800E+00   0.177559E+03   0.143494E-15
   LPB:    5  -0.235699063547062E+00   0.299558277446856E-02   0.454377E-01   0.781847E+00   0.900002E+02   0.175215E-15
  Finished solving LPB equations
  A_corr:   -0.163788561300981     
 End minimization
 Ecorr=   3281.45308348613     
 A_corr= -0.163788561300981     
 Ecorr_band=  -3281.61687204743     
 End Solvation calculations
RMM:  33    -0.250120179466E+03   -0.29875E-03   -0.11875E-04  9893   0.115E-02    0.158E-01
 Begin Solvation calculations
  rms_SCF =   3.353449946496000E-002 tol =   3.353449946496000E-003
 Begin minimization
 Creating dielectric and ionic cavities
  area:      136.980321111284     
  volume:    722.670709255653     
  Acav:     7.191466858342423E-002
  Solving linear dielectric/ionic screening model
        iter                  A_solv                     rms
   LPB:       -0.235988088182863E+00   0.148552264136117E+00
   LPB:    0  -0.235988035675182E+00   0.148479010109464E+00  -0.576291E-04   0.000000E+00   0.316205E+02  -0.182226E-02
   LPB:    1  -0.235902658453794E+00   0.272442650137147E-01   0.112980E-01   0.000000E+00   0.606793E+02   0.356866E-19
   LPB:    2  -0.235892049912520E+00   0.697516830871200E-02   0.120001E-01   0.116985E+00   0.246939E+03  -0.626994E-17
   LPB:    3  -0.235889804257527E+00   0.268496299593373E-02   0.234658E-01   0.108253E+00   0.140565E+03  -0.793195E-17
   LPB:    4  -0.235885594878771E+00   0.426502700749037E-02   0.771138E-01   0.570398E+00   0.720860E+02  -0.843108E-17
   LPB:    5  -0.235879962147840E+00   0.620874952108849E-02   0.425069E-01   0.242758E+01   0.474589E+02   0.372194E-17
   LPB:    6  -0.235877899050185E+00   0.526252306658159E-02   0.253745E-01   0.613568E+00   0.131253E+03  -0.139996E-16
   LPB:    7  -0.235876970694850E+00   0.390722589449312E-02   0.243842E-01   0.468257E+00   0.165468E+03  -0.221913E-16
   LPB:    8  -0.235876054500620E+00   0.170880500166916E-02   0.343383E-01   0.700814E+00   0.297744E+03   0.634103E-17
  Finished solving LPB equations
  A_corr:   -0.163961385917195     
 End minimization
 Ecorr=   3281.41560260540     
 A_corr= -0.163961385917195     
 Ecorr_band=  -3281.57956399132     
 End Solvation calculations
RMM:  34    -0.250119921061E+03    0.25840E-03   -0.30632E-05  6079   0.690E-03    0.636E-02
 Begin Solvation calculations
  rms_SCF =   3.353449946496000E-002 tol =   3.353449946496000E-003
 Begin minimization
 Creating dielectric and ionic cavities
  area:      136.985767372434     
  volume:    722.728111360103     
  Acav:     7.191752787052763E-002
  Solving linear dielectric/ionic screening model
        iter                  A_solv                     rms
   LPB:       -0.236870632614953E+00   0.390060232286416E+00
   LPB:    0  -0.236864369183293E+00   0.387919977018881E+00  -0.629441E-03   0.000000E+00   0.316178E+02  -0.199016E-01
   LPB:    1  -0.236327266221611E+00   0.609963807617326E-01   0.106038E-01   0.000000E+00   0.634521E+02   0.163359E-17
   LPB:    2  -0.236271993773584E+00   0.154747221757907E-01   0.116975E-01   0.932867E-01   0.240203E+03  -0.827851E-17
   LPB:    3  -0.236264561999353E+00   0.265284063718922E-02   0.190267E-01   0.826639E-01   0.129498E+03   0.243664E-16
   LPB:    4  -0.236262975599525E+00   0.191064976001044E-02   0.247598E-01   0.164035E+00   0.460356E+03   0.324683E-16
  Finished solving LPB equations
  A_corr:   -0.164345447728998     
 End minimization
 Ecorr=   3281.41826455491     
 A_corr= -0.164345447728998     
 Ecorr_band=  -3281.58261000264     
 End Solvation calculations
RMM:  35    -0.250120009824E+03   -0.88764E-04   -0.36875E-05  7831   0.772E-03
 Begin Solvation calculations
  rms_SCF =   3.353449946496000E-002 tol =   3.353449946496000E-003
 Begin minimization
 Creating dielectric and ionic cavities
  area:      136.979264139097     
  volume:    722.771153966228     
  Acav:     7.191411367302587E-002
  Solving linear dielectric/ionic screening model
        iter                  A_solv                     rms
   LPB:       -0.236434690969606E+00   0.161400983709877E+00
   LPB:    0  -0.236429521264810E+00   0.157215619569082E+00  -0.571868E-03   0.000000E+00   0.316158E+02  -0.180801E-01
   LPB:    1  -0.236327334898957E+00   0.243575724698352E-01   0.100697E-01   0.000000E+00   0.811626E+02   0.123916E-17
   LPB:    2  -0.236320060203768E+00   0.584485619873545E-02   0.109448E-01   0.654984E-01   0.231329E+03  -0.813166E-17
   LPB:    3  -0.236319048898043E+00   0.213816767595539E-02   0.228840E-01   0.664879E-01   0.707713E+02   0.271042E-16
   LPB:    4  -0.236318571711723E+00   0.258768123777813E-02   0.296924E-01   0.363656E+00   0.286001E+03   0.278343E-16
  Finished solving LPB equations
  A_corr:   -0.164404458038697     
 End minimization
 Ecorr=   3281.39092854080     
 A_corr= -0.164404458038697     
 Ecorr_band=  -3281.55533299884     
 End Solvation calculations
   1 F= -.25012001E+03 E0= -.25012342E+03  d E =-.250120E+03
quench:  g(F)=  0.000E+00 g(S)=  0.000E+00 dE (1.order)= 0.000E+00
 bond charge predicted
       N       E                     dE             d eps       ncg     rms          rms(c)
 Begin Solvation calculations
  rms_SCF =   3.353449946496000E-002 tol =   3.353449946496000E-003
 Begin minimization
 Creating dielectric and ionic cavities
  area:      136.978122367769     
  volume:    722.770396860591     
  Acav:     7.191351424307872E-002
  Solving linear dielectric/ionic screening model
        iter                  A_solv                     rms
   LPB:       -0.236326627726675E+00   0.259442925609908E-02
   LPB:    0  -0.236326627726675E+00   0.259414330806388E-02  -0.656683E-08   0.000000E+00   0.316158E+02  -0.207616E-06
   LPB:    1  -0.236320970808934E+00   0.173085755615529E-02   0.155420E-01   0.000000E+00   0.467198E+04   0.242221E-23
   LPB:    2  -0.236320326987154E+00   0.308969321122756E-02   0.263158E-01   0.672165E-01   0.527831E+03  -0.469634E-18
   LPB:    3  -0.236320050806110E+00   0.235464381340494E-02   0.244415E-01   0.461866E+00   0.983855E+02  -0.129846E-16
   LPB:    4  -0.236319792144342E+00   0.165089387257088E-02   0.306656E-01   0.746476E+00   0.430450E+03  -0.348924E-16
  Finished solving LPB equations
  A_corr:   -0.164406277901263     
 End minimization
 Ecorr=   3281.33823750423     
 A_corr= -0.164406277901263     
 Ecorr_band=  -3281.50264378213     
 End Solvation calculations
DAV:   1    -0.250120096318E+03   -0.17526E-03   -0.58700E-04 13662   0.833E-02    0.944E-02
 Begin Solvation calculations
  rms_SCF =   3.353449946496000E-002 tol =   3.353449946496000E-003
 Begin minimization
 Creating dielectric and ionic cavities
  area:      136.959371140649     
  volume:    722.739954824642     
  Acav:     7.190366984884088E-002
  Solving linear dielectric/ionic screening model
        iter                  A_solv                     rms
   LPB:       -0.241450121401227E+00   0.125894691915433E+01
   LPB:    0  -0.241434855214836E+00   0.125608955857088E+01  -0.982694E-03   0.000000E+00   0.316173E+02  -0.310701E-01
   LPB:    1  -0.237480552415614E+00   0.120165032506413E+00   0.858150E-02   0.000000E+00   0.679891E+02   0.249685E-17
   LPB:    2  -0.237155045143284E+00   0.195584600196578E-01   0.153401E-01   0.460497E-01   0.126849E+03  -0.392141E-16
   LPB:    3  -0.237118959376471E+00   0.638293846606927E-02   0.213891E-01   0.795078E-01   0.219255E+03  -0.813707E-17
   LPB:    4  -0.237109564756413E+00   0.351591621241921E-02   0.267137E-01   0.208450E+00   0.339186E+03   0.329782E-16
   LPB:    5  -0.237106016299071E+00   0.225909378214518E-02   0.288630E-01   0.349586E+00   0.313439E+03   0.412171E-16
  Finished solving LPB equations
  A_corr:   -0.165202346450230     
 End minimization
 Ecorr=   3281.05386714351     
 A_corr= -0.165202346450230     
 Ecorr_band=  -3281.21906948997     
 End Solvation calculations
RMM:   2    -0.250138765461E+03   -0.18669E-01   -0.22823E-03 14581   0.741E-02    0.156E+00
 Begin Solvation calculations
  rms_SCF =   3.353449946496000E-002 tol =   3.353449946496000E-003
 Begin minimization
 Creating dielectric and ionic cavities
  area:      136.982058183355     
  volume:    722.759928356402     
  Acav:     7.191558054626161E-002
  Solving linear dielectric/ionic screening model
        iter                  A_solv                     rms
   LPB:       -0.239581104577413E+00   0.106781526699610E+01
   LPB:    0  -0.239569173167912E+00   0.106531583460809E+01   0.868771E-03   0.000000E+00   0.316163E+02   0.274673E-01
   LPB:    1  -0.236725022935645E+00   0.101265062627287E+00   0.858450E-02   0.000000E+00   0.679520E+02   0.164771E-17
   LPB:    2  -0.236481453851424E+00   0.151730906743680E-01   0.155904E-01   0.471549E-01   0.128533E+03  -0.871838E-16
   LPB:    3  -0.236454139301279E+00   0.473806828382633E-02   0.216120E-01   0.808977E-01   0.275324E+03  -0.873236E-16
   LPB:    4  -0.236448323660795E+00   0.283761887264353E-02   0.246068E-01   0.187000E+00   0.542599E+03  -0.722359E-16
  Finished solving LPB equations
  A_corr:   -0.164532743114534     
 End minimization
 Ecorr=   3281.13956410808     
 A_corr= -0.164532743114534     
 Ecorr_band=  -3281.30409685119     
 End Solvation calculations
RMM:   3    -0.250120208943E+03    0.18557E-01   -0.16739E-03 14282   0.654E-02    0.845E-02
 Begin Solvation calculations
  rms_SCF =   3.353449946496000E-002 tol =   3.353449946496000E-003
 Begin minimization
 Creating dielectric and ionic cavities
  area:      136.982749693591     
  volume:    722.743829891879     
  Acav:     7.191594358913525E-002
  Solving linear dielectric/ionic screening model
        iter                  A_solv                     rms
   LPB:       -0.236522184778218E+00   0.461280710692161E-01
   LPB:    0  -0.236519486683192E+00   0.323435651334120E-01  -0.413126E-03   0.000000E+00   0.316171E+02  -0.130618E-01
   LPB:    1  -0.236513789005089E+00   0.716381771173109E-02   0.111389E-01   0.000000E+00   0.768401E+02   0.718592E-18
   LPB:    2  -0.236512622525418E+00   0.423867140193335E-02   0.164918E-01   0.138279E+00   0.265707E+03   0.295209E-16
   LPB:    3  -0.236511463283549E+00   0.430600134229853E-02   0.361631E-01   0.453208E+00   0.127879E+03   0.357032E-16
   LPB:    4  -0.236511112791859E+00   0.181449442063947E-02   0.188196E-01   0.580978E+00   0.158027E+03   0.355643E-16
  Finished solving LPB equations
  A_corr:   -0.164595169202724     
 End minimization
 Ecorr=   3281.17156077097     
 A_corr= -0.164595169202724     
 Ecorr_band=  -3281.33615594017     
 End Solvation calculations
RMM:   4    -0.250120122742E+03    0.86201E-04   -0.97371E-05  9199   0.191E-02
 Begin Solvation calculations
  rms_SCF =   3.353449946496000E-002 tol =   3.353449946496000E-003
 Begin minimization
 Creating dielectric and ionic cavities
  area:      136.983096531508     
  volume:    722.746376830045     
  Acav:     7.191612567904150E-002
  Solving linear dielectric/ionic screening model
        iter                  A_solv                     rms
   LPB:       -0.236554648830947E+00   0.244009422097225E-01
   LPB:    0  -0.236554186244262E+00   0.214888661953705E-01   0.171061E-03   0.000000E+00   0.316170E+02   0.540844E-02
   LPB:    1  -0.236550252353538E+00   0.588364268427084E-02   0.100429E-01   0.000000E+00   0.168757E+03   0.169407E-18
   LPB:    2  -0.236550006502381E+00   0.142229692176618E-02   0.121439E-01   0.516834E-01   0.102530E+03  -0.165090E-17
   LPB:    3  -0.236549842821084E+00   0.242938049631376E-02   0.374282E-01   0.216016E+00   0.594683E+02   0.122253E-16
   LPB:    4  -0.236549687361545E+00   0.188655893231199E-02   0.289566E-01   0.122764E+01   0.216257E+03   0.227505E-16
  Finished solving LPB equations
  A_corr:   -0.164633561682503     
 End minimization
 Ecorr=   3281.00029877467     
 A_corr= -0.164633561682503     
 Ecorr_band=  -3281.16493233635     
 End Solvation calculations
   2 F= -.25012012E+03 E0= -.25012354E+03  d E =-.112917E-03
quench:  g(F)=  0.000E+00 g(S)=  0.000E+00 dE (1.order)= 0.000E+00
 bond charge predicted
       N       E                     dE             d eps       ncg     rms          rms(c)
 Begin Solvation calculations
  rms_SCF =   3.353449946496000E-002 tol =   3.353449946496000E-003
 Begin minimization
 Creating dielectric and ionic cavities
  area:      136.986009894184     
  volume:    722.744759921619     
  Acav:     7.191765519444679E-002
  Solving linear dielectric/ionic screening model
        iter                  A_solv                     rms
   LPB:       -0.236574196945044E+00   0.190267994288681E-02
   LPB:    0  -0.236574196944697E+00   0.189744725514224E-02  -0.148093E-06   0.000000E+00   0.316170E+02  -0.468227E-05
   LPB:    1  -0.236562529037178E+00   0.140329568862137E-02   0.157888E-01   0.000000E+00   0.198873E+05   0.995396E-22
   LPB:    2  -0.236561214152183E+00   0.240742412182028E-02   0.270034E-01   0.658909E-01   0.141947E+04   0.257361E-17
   LPB:    3  -0.236560800089705E+00   0.348796024691667E-02   0.264446E-01   0.321558E+00   0.209970E+03   0.698294E-17
   LPB:    4  -0.236560581355227E+00   0.221608020301587E-02   0.203740E-01   0.685666E+00   0.196321E+03   0.270364E-16
  Finished solving LPB equations
  A_corr:   -0.164642926160780     
 End minimization
 Ecorr=   3280.99111708297     
 A_corr= -0.164642926160780     
 Ecorr_band=  -3281.15576000913     
 End Solvation calculations
DAV:   1    -0.250120031466E+03    0.17748E-03   -0.10864E-03 15162   0.935E-02    0.553E-02
 Begin Solvation calculations
  rms_SCF =   3.353449946496000E-002 tol =   3.353449946496000E-003
 Begin minimization
 Creating dielectric and ionic cavities
  area:      136.982065061555     
  volume:    722.702812611158     
  Acav:     7.191558415731657E-002
  Solving linear dielectric/ionic screening model
        iter                  A_solv                     rms
   LPB:       -0.238001386040776E+00   0.617466400791112E+00
   LPB:    0  -0.237972663989269E+00   0.608275041104938E+00  -0.134787E-02   0.000000E+00   0.316190E+02  -0.426184E-01
   LPB:    1  -0.237044342150138E+00   0.579980385119561E-01   0.855766E-02   0.000000E+00   0.682329E+02  -0.473626E-18
   LPB:    2  -0.236970299056960E+00   0.886042590495656E-02   0.153234E-01   0.445438E-01   0.123251E+03  -0.856036E-17
   LPB:    3  -0.236962190971490E+00   0.347282077510355E-02   0.210651E-01   0.796572E-01   0.252079E+03  -0.248472E-16
   LPB:    4  -0.236960077037715E+00   0.326878153383955E-02   0.262093E-01   0.209546E+00   0.231682E+03  -0.341736E-16
  Finished solving LPB equations
  A_corr:   -0.165044492880399     
 End minimization
 Ecorr=   3281.09389140503     
 A_corr= -0.165044492880399     
 Ecorr_band=  -3281.25893589791     
 End Solvation calculations
RMM:   2    -0.250124670125E+03   -0.46387E-02   -0.83733E-04 13361   0.462E-02    0.771E-01
 Begin Solvation calculations
  rms_SCF =   3.353449946496000E-002 tol =   3.353449946496000E-003
 Begin minimization
 Creating dielectric and ionic cavities
  area:      136.990490291550     
  volume:    722.723140604283     
  Acav:     7.192000740306363E-002
  Solving linear dielectric/ionic screening model
        iter                  A_solv                     rms
   LPB:       -0.237405788075054E+00   0.531289704466673E+00
   LPB:    0  -0.237397402454387E+00   0.527937573443012E+00   0.728308E-03   0.000000E+00   0.316181E+02   0.230277E-01
   LPB:    1  -0.236697903525443E+00   0.504170759738943E-01   0.859091E-02   0.000000E+00   0.678739E+02   0.579306E-18
   LPB:    2  -0.236637060740814E+00   0.715177835431355E-02   0.156519E-01   0.477414E-01   0.127913E+03  -0.100336E-15
   LPB:    3  -0.236630841443062E+00   0.242857152030673E-02   0.203673E-01   0.785533E-01   0.343440E+03  -0.868383E-16
   LPB:    4  -0.236629659132599E+00   0.235528590270188E-02   0.234499E-01   0.165114E+00   0.459036E+03  -0.814973E-16
  Finished solving LPB equations
  A_corr:   -0.164709651729535     
 End minimization
 Ecorr=   3281.05569817341     
 A_corr= -0.164709651729535     
 Ecorr_band=  -3281.22040782514     
 End Solvation calculations
RMM:   3    -0.250120169867E+03    0.45003E-02   -0.47061E-04 12677   0.346E-02    0.113E-01
 Begin Solvation calculations
  rms_SCF =   3.353449946496000E-002 tol =   3.353449946496000E-003
 Begin minimization
 Creating dielectric and ionic cavities
  area:      136.987109007165     
  volume:    722.737417389466     
  Acav:     7.191823222876184E-002
  Solving linear dielectric/ionic screening model
        iter                  A_solv                     rms
   LPB:       -0.236656207130189E+00   0.436500846861636E-01
   LPB:    0  -0.236653799416801E+00   0.348105029006335E-01   0.390260E-03   0.000000E+00   0.316174E+02   0.123390E-01
   LPB:    1  -0.236650077889342E+00   0.280559250110310E-02   0.877545E-02   0.000000E+00   0.783009E+02  -0.634550E-18
   LPB:    2  -0.236649732127077E+00   0.173602242345062E-02   0.164203E-01   0.496530E-01   0.332956E+03   0.120425E-17
   LPB:    3  -0.236649580114806E+00   0.192728374870083E-02   0.265685E-01   0.271715E+00   0.118854E+03   0.269017E-17
   LPB:    4  -0.236649476513823E+00   0.144619587408368E-02   0.312086E-01   0.580201E+00   0.115562E+03   0.794402E-17
  Finished solving LPB equations
  A_corr:   -0.164731244285061     
 End minimization
 Ecorr=   3280.86058840808     
 A_corr= -0.164731244285061     
 Ecorr_band=  -3281.02531965237     
 End Solvation calculations
RMM:   4    -0.250120059580E+03    0.11029E-03   -0.81983E-05  8700   0.171E-02    0.351E-02
 Begin Solvation calculations
  rms_SCF =   3.353449946496000E-002 tol =   3.353449946496000E-003
 Begin minimization
 Creating dielectric and ionic cavities
  area:      136.989126538227     
  volume:    722.731373356261     
  Acav:     7.191929143256935E-002
  Solving linear dielectric/ionic screening model
        iter                  A_solv                     rms
   LPB:       -0.236679311200842E+00   0.194407563912346E-01
   LPB:    0  -0.236678621589845E+00   0.956605084403449E-02  -0.208859E-03   0.000000E+00   0.316177E+02  -0.660362E-02
   LPB:    1  -0.236677887107976E+00   0.177834000088921E-02   0.123037E-01   0.000000E+00   0.711355E+02   0.273077E-18
   LPB:    2  -0.236677800068000E+00   0.152767542086148E-02   0.162539E-01   0.897045E-01   0.304539E+03   0.124546E-16
   LPB:    3  -0.236677748970740E+00   0.145426316348158E-02   0.234842E-01   0.406314E+00   0.872590E+02   0.803177E-17
   LPB:    4  -0.236677690313357E+00   0.131088937254240E-02   0.376622E-01   0.715807E+00   0.985023E+02   0.539551E-17
  Finished solving LPB equations
  A_corr:   -0.164758398880788     
 End minimization
 Ecorr=   3280.86126551024     
 A_corr= -0.164758398880788     
 Ecorr_band=  -3281.02602390912     
 End Solvation calculations
RMM:   5    -0.250120063537E+03   -0.39571E-05   -0.17987E-05  7758   0.730E-03
 Begin Solvation calculations
  rms_SCF =   3.353449946496000E-002 tol =   3.353449946496000E-003
 Begin minimization
 Creating dielectric and ionic cavities
  area:      136.989762660265     
  volume:    722.729996034001     
  Acav:     7.191962539663896E-002
  Solving linear dielectric/ionic screening model
        iter                  A_solv                     rms
   LPB:       -0.236725195659946E+00   0.208977673931194E-01
   LPB:    0  -0.236725077243673E+00   0.194812781325025E-01  -0.865477E-04   0.000000E+00   0.316177E+02  -0.273644E-02
   LPB:    1  -0.236722661823812E+00   0.486354233523791E-02   0.974742E-02   0.000000E+00   0.127005E+03  -0.272475E-19
   LPB:    2  -0.236722499811150E+00   0.806662678876397E-03   0.113652E-01   0.575265E-01   0.104796E+03   0.104917E-16
   LPB:    3  -0.236722451295771E+00   0.762147278390688E-03   0.319014E-01   0.106684E+00   0.587744E+02   0.228508E-19
   LPB:    4  -0.236722402443615E+00   0.119797983842061E-02   0.419433E-01   0.765863E+00   0.327956E+03  -0.146333E-16
  Finished solving LPB equations
  A_corr:   -0.164802777046976     
 End minimization
 Ecorr=   3280.79405559816     
 A_corr= -0.164802777046976     
 Ecorr_band=  -3280.95885837521     
 End Solvation calculations
   3 F= -.25012006E+03 E0= -.25012347E+03  d E =0.592048E-04
quench:  g(F)=  0.000E+00 g(S)=  0.000E+00 dE (1.order)= 0.000E+00
 bond charge predicted
       N       E                     dE             d eps       ncg     rms          rms(c)
 Begin Solvation calculations
  rms_SCF =   3.353449946496000E-002 tol =   3.353449946496000E-003
 Begin minimization
 Creating dielectric and ionic cavities
  area:      136.990621543070     
  volume:    722.731909574662     
  Acav:     7.192007631011199E-002
  Solving linear dielectric/ionic screening model
        iter                  A_solv                     rms
   LPB:       -0.236745281873979E+00   0.141942088822236E-02
   LPB:    0  -0.236745281872626E+00   0.143214079863386E-02   0.292499E-06   0.000000E+00   0.316176E+02   0.924812E-05
   LPB:    1  -0.236722786827470E+00   0.958956025533554E-03   0.157021E-01   0.000000E+00   0.586112E+05   0.296278E-21
   LPB:    2  -0.236720320941647E+00   0.152107276536345E-02   0.273989E-01   0.628218E-01   0.545676E+04   0.617521E-17
   LPB:    3  -0.236719516213100E+00   0.259625129580152E-02   0.312177E-01   0.286423E+00   0.643678E+03   0.972862E-18
   LPB:    4  -0.236719180560030E+00   0.297902769592092E-02   0.252808E-01   0.515052E+00   0.190956E+03  -0.417000E-17
  Finished solving LPB equations
  A_corr:   -0.164799104249918     
 End minimization
 Ecorr=   3280.79902445938     
 A_corr= -0.164799104249918     
 Ecorr_band=  -3280.96382356363     
 End Solvation calculations
DAV:   1    -0.250119894809E+03    0.16477E-03   -0.18184E-03 16428   0.104E-01    0.254E-02
 Begin Solvation calculations
  rms_SCF =   3.353449946496000E-002 tol =   3.353449946496000E-003
 Begin minimization
 Creating dielectric and ionic cavities
  area:      136.996850759739     
  volume:    722.731947372591     
  Acav:     7.192334664886274E-002
  Solving linear dielectric/ionic screening model
        iter                  A_solv                     rms
   LPB:       -0.236805050247131E+00   0.254637539068016E+00
   LPB:    0  -0.236805046860175E+00   0.254627227211723E+00  -0.146371E-04   0.000000E+00   0.316176E+02  -0.462791E-03
   LPB:    1  -0.236639569473933E+00   0.258375286550606E-01   0.877813E-02   0.000000E+00   0.662351E+02  -0.171646E-19
   LPB:    2  -0.236622400875233E+00   0.439326582113707E-02   0.155622E-01   0.585233E-01   0.137816E+03   0.216018E-17
   LPB:    3  -0.236620223608373E+00   0.204946739505327E-02   0.232869E-01   0.847493E-01   0.227134E+03   0.704440E-17
   LPB:    4  -0.236619566247390E+00   0.997160993650917E-03   0.290912E-01   0.241681E+00   0.273174E+03   0.229837E-16
  Finished solving LPB equations
  A_corr:   -0.164696219598527     
 End minimization
 Ecorr=   3280.76433439277     
 A_corr= -0.164696219598527     
 Ecorr_band=  -3280.92903061237     
 End Solvation calculations
RMM:   2    -0.250120927822E+03   -0.10330E-02   -0.19962E-04  9816   0.272E-02    0.366E-01
 Begin Solvation calculations
  rms_SCF =   3.353449946496000E-002 tol =   3.353449946496000E-003
 Begin minimization
 Creating dielectric and ionic cavities
  area:      136.992655085511     
  volume:    722.727750230571     
  Acav:     7.192114391989335E-002
  Solving linear dielectric/ionic screening model
        iter                  A_solv                     rms
   LPB:       -0.236948655781500E+00   0.255782910517114E+00
   LPB:    0  -0.236948046582202E+00   0.255259766775154E+00  -0.196304E-03   0.000000E+00   0.316178E+02  -0.620670E-02
   LPB:    1  -0.236784686595329E+00   0.242251110205650E-01   0.857763E-02   0.000000E+00   0.680980E+02  -0.227517E-18
   LPB:    2  -0.236770752594901E+00   0.382530680500478E-02   0.156400E-01   0.467800E-01   0.127903E+03  -0.557125E-17
   LPB:    3  -0.236769238059699E+00   0.105873439609016E-02   0.206993E-01   0.821268E-01   0.268876E+03   0.135952E-16
   LPB:    4  -0.236768925875005E+00   0.530641461081493E-03   0.248844E-01   0.171459E+00   0.600994E+03   0.834341E-17
  Finished solving LPB equations
  A_corr:   -0.164847781955112     
 End minimization
 Ecorr=   3280.72749519948     
 A_corr= -0.164847781955112     
 Ecorr_band=  -3280.89234298144     
 End Solvation calculations
RMM:   3    -0.250119923754E+03    0.10041E-02   -0.10235E-04  8747   0.200E-02    0.292E-02
 Begin Solvation calculations
  rms_SCF =   3.353449946496000E-002 tol =   3.353449946496000E-003
 Begin minimization
 Creating dielectric and ionic cavities
  area:      136.992211718076     
  volume:    722.730650837619     
  Acav:     7.192091115198998E-002
  Solving linear dielectric/ionic screening model
        iter                  A_solv                     rms
   LPB:       -0.236769189733975E+00   0.518427420131183E-02
   LPB:    0  -0.236769125913807E+00   0.319094987170463E-02   0.635373E-04   0.000000E+00   0.316177E+02   0.200890E-02
   LPB:    1  -0.236768860360637E+00   0.146682378479036E-02   0.151117E-01   0.000000E+00   0.226398E+03  -0.102766E-18
   LPB:    2  -0.236768787165239E+00   0.999268747531035E-03   0.213343E-01   0.195238E+00   0.122465E+03  -0.172904E-17
   LPB:    3  -0.236768736813961E+00   0.128485102114844E-02   0.320295E-01   0.458201E+00   0.307767E+03  -0.374712E-17
   LPB:    4  -0.236768664163870E+00   0.195445807288014E-02   0.415911E-01   0.111115E+01   0.694586E+02  -0.741188E-17
  Finished solving LPB equations
  A_corr:   -0.164847753011880     
 End minimization
 Ecorr=   3280.65986572284     
 A_corr= -0.164847753011880     
 Ecorr_band=  -3280.82471347585     
 End Solvation calculations
RMM:   4    -0.250119924997E+03   -0.12433E-05   -0.13678E-05  7838   0.737E-03
 Begin Solvation calculations
  rms_SCF =   3.353449946496000E-002 tol =   3.353449946496000E-003
 Begin minimization
 Creating dielectric and ionic cavities
  area:      136.993582679588     
  volume:    722.726457124443     
  Acav:     7.192163090678350E-002
  Solving linear dielectric/ionic screening model
        iter                  A_solv                     rms
   LPB:       -0.236794973257711E+00   0.163005670385526E-01
   LPB:    0  -0.236794489260488E+00   0.770269554472059E-02  -0.174973E-03   0.000000E+00   0.316179E+02  -0.553226E-02
   LPB:    1  -0.236793478475059E+00   0.237722396933666E-02   0.135153E-01   0.000000E+00   0.113900E+03  -0.117434E-18
   LPB:    2  -0.236793400460929E+00   0.148720085152340E-02   0.181187E-01   0.575723E-01   0.784840E+02  -0.171912E-16
   LPB:    3  -0.236793366109903E+00   0.826543802202533E-03   0.198290E-01   0.402339E+00   0.215469E+03  -0.224406E-16
   LPB:    4  -0.236793331226361E+00   0.617726423290485E-03   0.306637E-01   0.656684E+00   0.161189E+03  -0.241282E-16
  Finished solving LPB equations
  A_corr:   -0.164871700319578     
 End minimization
 Ecorr=   3280.65274947761     
 A_corr= -0.164871700319578     
 Ecorr_band=  -3280.81762117793     
 End Solvation calculations
   4 F= -.25011992E+03 E0= -.25012332E+03  d E =0.138539E-03
quench:  g(F)=  0.000E+00 g(S)=  0.000E+00 dE (1.order)= 0.000E+00
 bond charge predicted
       N       E                     dE             d eps       ncg     rms          rms(c)
 Begin Solvation calculations
  rms_SCF =   3.353449946496000E-002 tol =   3.353449946496000E-003
 Begin minimization
 Creating dielectric and ionic cavities
  area:      136.997912151396     
  volume:    722.729818954487     
  Acav:     7.192390387948269E-002
  Solving linear dielectric/ionic screening model
        iter                  A_solv                     rms
   LPB:       -0.236833307483799E+00   0.855617466671270E-03
   LPB:    0  -0.236833307482101E+00   0.851808173516205E-03   0.327727E-06   0.000000E+00   0.316177E+02   0.103620E-04
   LPB:    1  -0.236794942076218E+00   0.542505153234322E-03   0.157295E-01   0.000000E+00   0.421288E+06  -0.275473E-21
   LPB:    2  -0.236790739758732E+00   0.116358991421626E-02   0.274951E-01   0.626627E-01   0.364974E+05  -0.180639E-17
   LPB:    3  -0.236789355551340E+00   0.308319244578278E-02   0.322887E-01   0.280490E+00   0.235990E+04  -0.941712E-18
   LPB:    4  -0.236788829191023E+00   0.533281220836361E-02   0.257567E-01   0.476697E+00   0.226368E+03  -0.355256E-17
   LPB:    5  -0.236788498512271E+00   0.207388877385363E-02   0.184986E-01   0.874732E+00   0.201064E+03  -0.385158E-17
  Finished solving LPB equations
  A_corr:   -0.164864594632788     
 End minimization
 Ecorr=   3280.64183948115     
 A_corr= -0.164864594632788     
 Ecorr_band=  -3280.80670407579     
 End Solvation calculations
DAV:   1    -0.250119688251E+03    0.23550E-03   -0.28454E-03 15381   0.103E-01    0.194E-02
 Begin Solvation calculations
  rms_SCF =   1.524118793188621E-002 tol =   1.524118793188621E-003
 Begin minimization
 Creating dielectric and ionic cavities
  area:      136.998440834814     
  volume:    722.737005024583     
  Acav:     7.192418143827711E-002
  Solving linear dielectric/ionic screening model
        iter                  A_solv                     rms
   LPB:       -0.236777317285757E+00   0.925245264230048E-01
   LPB:    0  -0.236777017892358E+00   0.920882229622141E-01   0.137617E-03   0.000000E+00   0.316174E+02   0.435110E-02
   LPB:    1  -0.236754100055720E+00   0.103809708939376E-01   0.913099E-02   0.000000E+00   0.648227E+02   0.421599E-18
   LPB:    2  -0.236751121072180E+00   0.168499145713377E-02   0.153818E-01   0.771624E-01   0.158420E+03  -0.637048E-17
   LPB:    3  -0.236750632274409E+00   0.919875405910764E-03   0.252400E-01   0.999951E-01   0.293683E+03  -0.325608E-17
   LPB:    4  -0.236750430161260E+00   0.166147222922138E-02   0.306459E-01   0.340551E+00   0.387127E+03  -0.126593E-16
   LPB:    5  -0.236750304085002E+00   0.168791369931420E-02   0.275158E-01   0.694751E+00   0.102571E+03  -0.164067E-16
   LPB:    6  -0.236750187434427E+00   0.107030459749473E-02   0.325338E-01   0.782528E+00   0.267302E+03  -0.298798E-16
  Finished solving LPB equations
  A_corr:   -0.164826005996149     
 End minimization
 Ecorr=   3280.54693090075     
 A_corr= -0.164826005996149     
 Ecorr_band=  -3280.71175690674     
 End Solvation calculations
RMM:   2    -0.250119841730E+03   -0.15348E-03   -0.12294E-04  8773   0.216E-02    0.133E-01
 Begin Solvation calculations
  rms_SCF =   1.524118793188621E-002 tol =   1.524118793188621E-003
 Begin minimization
 Creating dielectric and ionic cavities
  area:      136.997076019543     
  volume:    722.731456994173     
  Acav:     7.192346491026004E-002
  Solving linear dielectric/ionic screening model
        iter                  A_solv                     rms
   LPB:       -0.236854786819165E+00   0.110691549391473E+00
   LPB:    0  -0.236854182353287E+00   0.109521149197450E+00  -0.195540E-03   0.000000E+00   0.316177E+02  -0.618252E-02
   LPB:    1  -0.236824156824596E+00   0.105030243517858E-01   0.856451E-02   0.000000E+00   0.680166E+02  -0.384245E-18
   LPB:    2  -0.236821601821701E+00   0.154012854620212E-02   0.157511E-01   0.462691E-01   0.121961E+03   0.685708E-17
   LPB:    3  -0.236821258737397E+00   0.786677037643336E-03   0.236941E-01   0.892651E-01   0.268119E+03   0.114685E-16
   LPB:    4  -0.236821140501611E+00   0.954974096334994E-03   0.275439E-01   0.296457E+00   0.254679E+03   0.921891E-17
  Finished solving LPB equations
  A_corr:   -0.164897675591350     
 End minimization
 Ecorr=   3280.54866967773     
 A_corr= -0.164897675591350     
 Ecorr_band=  -3280.71356735332     
 End Solvation calculations
RMM:   3    -0.250119727967E+03    0.11376E-03   -0.27962E-05  8487   0.112E-02    0.514E-02
 Begin Solvation calculations
  rms_SCF =   1.524118793188621E-002 tol =   1.524118793188621E-003
 Begin minimization
 Creating dielectric and ionic cavities
  area:      136.998119800470     
  volume:    722.727392417430     
  Acav:     7.192401289524689E-002
  Solving linear dielectric/ionic screening model
        iter                  A_solv                     rms
   LPB:       -0.236821473748012E+00   0.263666477516625E-01
   LPB:    0  -0.236821227366630E+00   0.249027126640876E-01  -0.124840E-03   0.000000E+00   0.316179E+02  -0.394716E-02
   LPB:    1  -0.236819561354337E+00   0.262673504826634E-02   0.904821E-02   0.000000E+00   0.652066E+02   0.126641E-18
   LPB:    2  -0.236819346953498E+00   0.688660025135430E-03   0.159348E-01   0.730743E-01   0.164184E+03  -0.324200E-17
   LPB:    3  -0.236819303757861E+00   0.592996793527912E-03   0.244819E-01   0.131134E+00   0.237512E+03  -0.185175E-17
   LPB:    4  -0.236819275805894E+00   0.722919842402303E-03   0.395658E-01   0.400403E+00   0.151392E+03  -0.816546E-19
  Finished solving LPB equations
  A_corr:   -0.164895262910647     
 End minimization
 Ecorr=   3280.58631282424     
 A_corr= -0.164895262910647     
 Ecorr_band=  -3280.75120808715     
 End Solvation calculations
RMM:   4    -0.250119709144E+03    0.18823E-04   -0.10177E-05  7139   0.604E-03
 Begin Solvation calculations
  rms_SCF =   1.524118793188621E-002 tol =   1.524118793188621E-003
 Begin minimization
 Creating dielectric and ionic cavities
  area:      136.997228856428     
  volume:    722.730098286914     
  Acav:     7.192354514962454E-002
  Solving linear dielectric/ionic screening model
        iter                  A_solv                     rms
   LPB:       -0.236839210425622E+00   0.537115351946919E-02
   LPB:    0  -0.236839195176201E+00   0.517404365840628E-02   0.310582E-04   0.000000E+00   0.316177E+02   0.981990E-03
   LPB:    1  -0.236838806380751E+00   0.286425488438788E-02   0.104829E-01   0.000000E+00   0.260208E+03   0.271371E-19
   LPB:    2  -0.236838759909997E+00   0.560578277917875E-03   0.134136E-01   0.934110E-01   0.688134E+02   0.318000E-17
   LPB:    3  -0.236838738453319E+00   0.611333999221904E-03   0.301721E-01   0.205268E+00   0.122102E+03   0.324255E-18
   LPB:    4  -0.236838711477299E+00   0.849610967514818E-03   0.389786E-01   0.973184E+00   0.388762E+03   0.877576E-18
  Finished solving LPB equations
  A_corr:   -0.164915166327674     
 End minimization
 Ecorr=   3280.53428943034     
 A_corr= -0.164915166327674     
 Ecorr_band=  -3280.69920459667     
 End Solvation calculations
   5 F= -.25011971E+03 E0= -.25012312E+03  d E =0.215854E-03
quench:  g(F)=  0.000E+00 g(S)=  0.000E+00 dE (1.order)= 0.000E+00
 bond charge predicted
       N       E                     dE             d eps       ncg     rms          rms(c)
 Begin Solvation calculations
  rms_SCF =   1.524118793188621E-002 tol =   1.524118793188621E-003
 Begin minimization
 Creating dielectric and ionic cavities
  area:      136.999649647739     
  volume:    722.729374809383     
  Acav:     7.192481606506289E-002
  Solving linear dielectric/ionic screening model
        iter                  A_solv                     rms
   LPB:       -0.236908685258873E+00   0.116107944758401E-02
   LPB:    0  -0.236908685258854E+00   0.116227463877752E-02   0.345926E-07   0.000000E+00   0.316178E+02   0.109374E-05
   LPB:    1  -0.236855653599756E+00   0.737999410199115E-03   0.156327E-01   0.000000E+00   0.243789E+06   0.566810E-22
   LPB:    2  -0.236849970609007E+00   0.113387136263256E-02   0.274348E-01   0.610625E-01   0.213856E+05  -0.141286E-17
   LPB:    3  -0.236848103253386E+00   0.231424854122559E-02   0.326011E-01   0.276515E+00   0.258043E+04   0.350113E-17
   LPB:    4  -0.236847319848047E+00   0.454777316951855E-02   0.306479E-01   0.446264E+00   0.354090E+03  -0.313349E-18
   LPB:    5  -0.236846929865963E+00   0.329334832765388E-02   0.205616E-01   0.741996E+00   0.146885E+03  -0.478708E-17
   LPB:    6  -0.236846613387958E+00   0.257733807925122E-02   0.266873E-01   0.625247E+00   0.364577E+03  -0.319841E-16
   LPB:    7  -0.236846433266570E+00   0.247286694544910E-02   0.236336E-01   0.642681E+00   0.178510E+03  -0.528773E-16
   LPB:    8  -0.236846280265177E+00   0.823018484956089E-03   0.260095E-01   0.771842E+00   0.236220E+03  -0.654237E-16
  Finished solving LPB equations
  A_corr:   -0.164921464200114     
 End minimization
 Ecorr=   3280.51063903595     
 A_corr= -0.164921464200114     
 Ecorr_band=  -3280.67556050015     
 End Solvation calculations
DAV:   1    -0.250119440156E+03    0.28781E-03   -0.39607E-03 16482   0.137E-01    0.242E-02
 Begin Solvation calculations
  rms_SCF =   1.524118793188621E-002 tol =   1.524118793188621E-003
 Begin minimization
 Creating dielectric and ionic cavities
  area:      137.003037990324     
  volume:    722.721021519645     
  Acav:     7.192659494492012E-002
  Solving linear dielectric/ionic screening model
        iter                  A_solv                     rms
   LPB:       -0.236869092538156E+00   0.115207217923777E+00
   LPB:    0  -0.236867327358485E+00   0.112394146081407E+00  -0.334150E-03   0.000000E+00   0.316182E+02  -0.105652E-01
   LPB:    1  -0.236834065495101E+00   0.119393858579719E-01   0.899454E-02   0.000000E+00   0.647608E+02  -0.714435E-18
   LPB:    2  -0.236830350482288E+00   0.264838574786910E-02   0.149533E-01   0.671825E-01   0.154092E+03  -0.248186E-16
   LPB:    3  -0.236829835310054E+00   0.168067861306043E-02   0.232383E-01   0.892327E-01   0.163711E+03  -0.250206E-16
   LPB:    4  -0.236829672423609E+00   0.136950379604362E-02   0.266397E-01   0.275808E+00   0.154533E+03  -0.361154E-16
  Finished solving LPB equations
  A_corr:   -0.164903077478689     
 End minimization
 Ecorr=   3280.58753703439     
 A_corr= -0.164903077478689     
 Ecorr_band=  -3280.75244011187     
 End Solvation calculations
RMM:   2    -0.250119667986E+03   -0.22783E-03   -0.19087E-04  9006   0.290E-02    0.161E-01
 Begin Solvation calculations
  rms_SCF =   1.524118793188621E-002 tol =   1.524118793188621E-003
 Begin minimization
 Creating dielectric and ionic cavities
[...]
  Solving linear dielectric/ionic screening model
        iter                  A_solv                     rms
   LPB:       -0.237276316690463E+00   0.347066983379432E-03
   LPB:    0  -0.237276316690453E+00   0.347222645890564E-03  -0.255410E-07   0.000000E+00   0.316159E+02  -0.807502E-06
   LPB:    1  -0.237264478082374E+00   0.135194429481381E-03   0.155607E-01   0.000000E+00   0.804597E+06  -0.503568E-22
   LPB:    2  -0.237263263331874E+00   0.953407476910230E-04   0.270041E-01   0.591271E-01   0.162921E+06  -0.714238E-20
   LPB:    3  -0.237262879327987E+00   0.188106642450880E-03   0.325292E-01   0.262425E+00   0.719479E+05  -0.335812E-18
   LPB:    4  -0.237262712827288E+00   0.397688483852727E-03   0.357904E-01   0.394082E+00   0.683238E+04  -0.115240E-17
   LPB:    5  -0.237262630652671E+00   0.951649247164148E-03   0.356822E-01   0.495036E+00   0.961563E+03  -0.197884E-17
   LPB:    6  -0.237262592282022E+00   0.124769920387337E-02   0.253637E-01   0.656901E+00   0.170759E+03  -0.209699E-17
   LPB:    7  -0.237262564360949E+00   0.682794534032945E-03   0.222912E-01   0.827966E+00   0.244857E+03  -0.357086E-17
   LPB:    8  -0.237262545546681E+00   0.792340442384463E-03   0.274283E-01   0.547632E+00   0.276283E+03  -0.566572E-17
   LPB:    9  -0.237262533373959E+00   0.422631586149564E-03   0.218364E-01   0.812679E+00   0.158695E+03  -0.660546E-17
   LPB:   10  -0.237262522967260E+00   0.130410142711757E-03   0.325080E-01   0.574269E+00   0.659240E+03  -0.653802E-17
  Finished solving LPB equations
  A_corr:   -0.165316047906667     
 End minimization
 Ecorr=   3279.90271593602     
 A_corr= -0.165316047906667     
 Ecorr_band=  -3280.06803198393     
 End Solvation calculations
DAV:   1    -0.250110675943E+03    0.11643E-03   -0.10397E-03 13974   0.786E-02    0.364E-02
 Begin Solvation calculations
  rms_SCF =   1.349046943073038E-003 tol =   1.349046943073038E-004
 Begin minimization
 Creating dielectric and ionic cavities
  area:      137.037002372927     
  volume:    722.752674073452     
  Acav:     7.194442624578666E-002
  Solving linear dielectric/ionic screening model
        iter                  A_solv                     rms
   LPB:       -0.237831501520766E+00   0.364485625296612E+00
   LPB:    0  -0.237825559969582E+00   0.361274079943342E+00  -0.613065E-03   0.000000E+00   0.316167E+02  -0.193831E-01
   LPB:    1  -0.237498677289382E+00   0.348028443409066E-01   0.859107E-02   0.000000E+00   0.677091E+02   0.149869E-17
   LPB:    2  -0.237470626123077E+00   0.512393780868381E-02   0.155531E-01   0.474011E-01   0.125479E+03  -0.508856E-16
   LPB:    3  -0.237467498255211E+00   0.208856502054138E-02   0.216787E-01   0.799987E-01   0.274525E+03  -0.325211E-16
   LPB:    4  -0.237466684419934E+00   0.217373627161375E-02   0.260863E-01   0.216226E+00   0.274398E+03  -0.461036E-16
   LPB:    5  -0.237466387422747E+00   0.199935717904062E-02   0.253264E-01   0.375884E+00   0.157516E+03  -0.504888E-16
   LPB:    6  -0.237466253239640E+00   0.133076429344016E-02   0.242722E-01   0.471424E+00   0.141436E+03  -0.452705E-16
   LPB:    7  -0.237466178499709E+00   0.517044927740700E-03   0.252968E-01   0.534439E+00   0.209714E+03  -0.662003E-16
   LPB:    8  -0.237466133750968E+00   0.209086999123243E-03   0.322291E-01   0.469943E+00   0.358712E+03  -0.939963E-16
   LPB:    9  -0.237466109201767E+00   0.118374985554546E-03   0.357757E-01   0.494216E+00   0.394883E+03  -0.108041E-15
  Finished solving LPB equations
  A_corr:   -0.165521682955981     
 End minimization
 Ecorr=   3279.98244776723     
 A_corr= -0.165521682955981     
 Ecorr_band=  -3280.14796945018     
 End Solvation calculations
RMM:   2    -0.250112667247E+03   -0.19913E-02   -0.34124E-04 11840   0.314E-02    0.512E-01
 Begin Solvation calculations
  rms_SCF =   1.349046943073038E-003 tol =   1.349046943073038E-004
 Begin minimization
 Creating dielectric and ionic cavities
  area:      137.042516286281     
  volume:    722.764248898750     
  Acav:     7.194732105029751E-002
  Solving linear dielectric/ionic screening model
        iter                  A_solv                     rms
   LPB:       -0.237591170279533E+00   0.350802993092289E+00
   LPB:    0  -0.237588222346279E+00   0.349079215532349E+00   0.431837E-03   0.000000E+00   0.316161E+02   0.136530E-01
   LPB:    1  -0.237283162025481E+00   0.335242913516132E-01   0.858486E-02   0.000000E+00   0.678360E+02  -0.417190E-18
   LPB:    2  -0.237257034761950E+00   0.503310679002207E-02   0.155869E-01   0.471718E-01   0.125750E+03  -0.278624E-16
   LPB:    3  -0.237254136671851E+00   0.179935806756791E-02   0.216353E-01   0.799123E-01   0.263875E+03  -0.372954E-16
   LPB:    4  -0.237253389797350E+00   0.145128736261877E-02   0.265163E-01   0.210274E+00   0.334019E+03  -0.247210E-16
   LPB:    5  -0.237253116689884E+00   0.142267659943100E-02   0.271713E-01   0.356852E+00   0.242265E+03  -0.213565E-16
   LPB:    6  -0.237253003733650E+00   0.132195583541009E-02   0.263250E-01   0.426893E+00   0.160326E+03  -0.314736E-16
   LPB:    7  -0.237252951116510E+00   0.696675572770564E-03   0.228230E-01   0.537294E+00   0.161876E+03  -0.172258E-16
   LPB:    8  -0.237252917997018E+00   0.246620796964291E-03   0.287924E-01   0.498944E+00   0.318010E+03  -0.796255E-17
   LPB:    9  -0.237252899163189E+00   0.115455150078696E-03   0.350822E-01   0.466709E+00   0.463827E+03   0.386673E-17
  Finished solving LPB equations
  A_corr:   -0.165305578112892     
 End minimization
 Ecorr=   3279.96381306428     
 A_corr= -0.165305578112892     
 Ecorr_band=  -3280.12911864239     
 End Solvation calculations
RMM:   3    -0.250110690149E+03    0.19771E-02   -0.19053E-04  9791   0.243E-02    0.504E-02
 Begin Solvation calculations
  rms_SCF =   1.349046943073038E-003 tol =   1.349046943073038E-004
 Begin minimization
 Creating dielectric and ionic cavities
  area:      137.040260992571     
  volume:    722.772183770861     
  Acav:     7.194613702109995E-002
  Solving linear dielectric/ionic screening model
        iter                  A_solv                     rms
   LPB:       -0.237255810977349E+00   0.235527273164530E-01
   LPB:    0  -0.237254962292286E+00   0.163058497192292E-01   0.231706E-03   0.000000E+00   0.316158E+02   0.732555E-02
   LPB:    1  -0.237254152714853E+00   0.146409193477406E-02   0.896527E-02   0.000000E+00   0.702298E+02  -0.109111E-18
   LPB:    2  -0.237254089848719E+00   0.791283400508094E-03   0.141744E-01   0.491153E-01   0.217290E+03  -0.196533E-16
   LPB:    3  -0.237254074190432E+00   0.624819802906752E-03   0.218245E-01   0.161766E+00   0.866894E+02  -0.234739E-16
   LPB:    4  -0.237254064805539E+00   0.237724143673713E-03   0.256398E-01   0.510170E+00   0.290444E+03  -0.148728E-16
   LPB:    5  -0.237254056467552E+00   0.106723062873656E-03   0.363420E-01   0.626811E+00   0.753315E+03  -0.688091E-17
  Finished solving LPB equations
  A_corr:   -0.165307919446452     
 End minimization
 Ecorr=   3279.88242998021     
 A_corr= -0.165307919446452     
 Ecorr_band=  -3280.04773789966     
 End Solvation calculations
RMM:   4    -0.250110673322E+03    0.16827E-04   -0.29711E-05  8493   0.104E-02
 Begin Solvation calculations
  rms_SCF =   1.349046943073038E-003 tol =   1.349046943073038E-004
 Begin minimization
 Creating dielectric and ionic cavities
  area:      137.040783827923     
  volume:    722.768854284978     
  Acav:     7.194641150965944E-002
  Solving linear dielectric/ionic screening model
        iter                  A_solv                     rms
   LPB:       -0.237258111688302E+00   0.801511200999314E-02
   LPB:    0  -0.237257950686587E+00   0.311448194263387E-02  -0.100920E-03   0.000000E+00   0.316159E+02  -0.319068E-02
   LPB:    1  -0.237257901913605E+00   0.424980785485785E-03   0.100751E-01   0.000000E+00   0.700838E+02   0.157991E-18
   LPB:    2  -0.237257896055069E+00   0.405254092182115E-03   0.184070E-01   0.657470E-01   0.271400E+03   0.479367E-17
   LPB:    3  -0.237257893168481E+00   0.257159643010393E-03   0.206188E-01   0.439862E+00   0.120846E+03   0.519142E-17
   LPB:    4  -0.237257890638501E+00   0.175195223956495E-03   0.304481E-01   0.593520E+00   0.353710E+03   0.499792E-17
   LPB:    5  -0.237257888117237E+00   0.837951842408322E-04   0.340953E-01   0.889951E+00   0.313120E+03   0.510153E-17
  Finished solving LPB equations
  A_corr:   -0.165311476607578     
 End minimization
 Ecorr=   3279.91694542433     
 A_corr= -0.165311476607578     
 Ecorr_band=  -3280.08225690094     
 End Solvation calculations
  94 F= -.25011067E+03 E0= -.25011409E+03  d E =0.160945E-03
quench:  g(F)=  0.000E+00 g(S)=  0.000E+00 dE (1.order)= 0.000E+00
 bond charge predicted
       N       E                     dE             d eps       ncg     rms          rms(c)
 Begin Solvation calculations
  rms_SCF =   1.349046943073038E-003 tol =   1.349046943073038E-004
 Begin minimization
 Creating dielectric and ionic cavities
  area:      137.043646075443     
  volume:    722.770365796830     
  Acav:     7.194791418960743E-002
  Solving linear dielectric/ionic screening model
        iter                  A_solv                     rms
   LPB:       -0.237263556821517E+00   0.338723501341945E-03
   LPB:    0  -0.237263556821142E+00   0.340619532351544E-03   0.154025E-06   0.000000E+00   0.316158E+02   0.486963E-05
   LPB:    1  -0.237254867576649E+00   0.153020090214919E-03   0.159887E-01   0.000000E+00   0.553022E+06   0.400262E-21
   LPB:    2  -0.237253806036021E+00   0.168846083564723E-03   0.278694E-01   0.700873E-01   0.104128E+06   0.545659E-20
   LPB:    3  -0.237253455099965E+00   0.313216992769024E-03   0.327468E-01   0.281352E+00   0.201442E+05  -0.690789E-19
   LPB:    4  -0.237253305719086E+00   0.718631622695617E-03   0.349220E-01   0.399151E+00   0.257570E+04  -0.264238E-18
   LPB:    5  -0.237253238989425E+00   0.130503718271658E-02   0.306402E-01   0.509133E+00   0.291880E+03  -0.144296E-17
   LPB:    6  -0.237253203804920E+00   0.912742299868937E-03   0.212550E-01   0.760088E+00   0.162169E+03  -0.181152E-16
   LPB:    7  -0.237253176438708E+00   0.799777773782598E-03   0.272822E-01   0.605961E+00   0.363116E+03  -0.231209E-16
   LPB:    8  -0.237253161273939E+00   0.738518185053663E-03   0.224968E-01   0.672016E+00   0.164196E+03  -0.285414E-16
   LPB:    9  -0.237253148062745E+00   0.234499677182540E-03   0.257882E-01   0.759986E+00   0.304743E+03  -0.314345E-16
   LPB:   10  -0.237253138332990E+00   0.779087721727692E-04   0.379695E-01   0.500203E+00   0.149600E+04  -0.355203E-16
  Finished solving LPB equations
  A_corr:   -0.165305224143382     
 End minimization
 Ecorr=   3279.91397223229     
 A_corr= -0.165305224143382     
 Ecorr_band=  -3280.07927745643     
 End Solvation calculations
DAV:   1    -0.250110580935E+03    0.10921E-03   -0.82225E-04 13980   0.695E-02    0.167E-02
 Begin Solvation calculations
  rms_SCF =   1.349046943073038E-003 tol =   1.349046943073038E-004
 Begin minimization
 Creating dielectric and ionic cavities
  area:      137.041505725203     
  volume:    722.774529826256     
  Acav:     7.194679050573168E-002
  Solving linear dielectric/ionic screening model
        iter                  A_solv                     rms
   LPB:       -0.237263657559171E+00   0.188172969902373E-01
   LPB:    0  -0.237263316144213E+00   0.154664866849569E-01   0.146962E-03   0.000000E+00   0.316156E+02   0.464630E-02
   LPB:    1  -0.237262560843201E+00   0.164260009480281E-02   0.921137E-02   0.000000E+00   0.716963E+02  -0.165029E-18
   LPB:    2  -0.237262464278289E+00   0.615355369136243E-03   0.156431E-01   0.752835E-01   0.298633E+03   0.118799E-16
   LPB:    3  -0.237262440037923E+00   0.637511262887310E-03   0.237411E-01   0.165403E+00   0.180685E+03   0.133204E-16
   LPB:    4  -0.237262430603654E+00   0.370369416706661E-03   0.215743E-01   0.428286E+00   0.139686E+03   0.139652E-16
   LPB:    5  -0.237262424525855E+00   0.134690135560865E-03   0.288961E-01   0.480990E+00   0.313482E+03   0.152742E-16
  Finished solving LPB equations
  A_corr:   -0.165315634020123     
 End minimization
 Ecorr=   3279.85861639376     
 A_corr= -0.165315634020123     
 Ecorr_band=  -3280.02393202778     
 End Solvation calculations
RMM:   2    -0.250110615013E+03   -0.34078E-04   -0.81036E-05  8328   0.193E-02
 Begin Solvation calculations
  rms_SCF =   1.349046943073038E-003 tol =   1.349046943073038E-004
 Begin minimization
 Creating dielectric and ionic cavities
  area:      137.042008677303     
  volume:    722.767119491444     
  Acav:     7.194705455558414E-002
  Solving linear dielectric/ionic screening model
        iter                  A_solv                     rms
   LPB:       -0.237305127355494E+00   0.449520450465241E-01
   LPB:    0  -0.237304246164949E+00   0.413217293504897E-01  -0.236100E-03   0.000000E+00   0.316160E+02  -0.746454E-02
   LPB:    1  -0.237299911268017E+00   0.407485361173359E-02   0.861637E-02   0.000000E+00   0.672869E+02  -0.453506E-19
   LPB:    2  -0.237299535421417E+00   0.775583527201792E-03   0.156268E-01   0.478065E-01   0.118270E+03   0.301235E-18
   LPB:    3  -0.237299490433085E+00   0.588509491499747E-03   0.201623E-01   0.927723E-01   0.240398E+03   0.243068E-17
   LPB:    4  -0.237299477861945E+00   0.461469865846816E-03   0.213059E-01   0.264432E+00   0.127331E+03   0.227014E-17
   LPB:    5  -0.237299472076739E+00   0.187454783467107E-03   0.235942E-01   0.415565E+00   0.148672E+03   0.537573E-19
   LPB:    6  -0.237299468827499E+00   0.803581375979994E-04   0.307395E-01   0.431094E+00   0.353429E+03   0.826073E-18
  Finished solving LPB equations
  A_corr:   -0.165352414271915     
 End minimization
 Ecorr=   3279.92129931536     
 A_corr= -0.165352414271915     
 Ecorr_band=  -3280.08665172963     
 End Solvation calculations
  95 F= -.25011062E+03 E0= -.25011402E+03  d E =0.583090E-04
quench:  g(F)=  0.000E+00 g(S)=  0.000E+00 dE (1.order)= 0.000E+00
 bond charge predicted
       N       E                     dE             d eps       ncg     rms          rms(c)
 Begin Solvation calculations
  rms_SCF =   1.349046943073038E-003 tol =   1.349046943073038E-004
 Begin minimization
 Creating dielectric and ionic cavities
  area:      137.041181042750     
  volume:    722.766682449757     
  Acav:     7.194662004744391E-002
  Solving linear dielectric/ionic screening model
        iter                  A_solv                     rms
   LPB:       -0.237305985676832E+00   0.196860079370932E-03
   LPB:    0  -0.237305985676826E+00   0.196994889660051E-03  -0.196120E-07   0.000000E+00   0.316160E+02  -0.620052E-06
   LPB:    1  -0.237302900854275E+00   0.935996041583191E-04   0.156763E-01   0.000000E+00   0.638314E+06   0.961610E-23
   LPB:    2  -0.237302567942639E+00   0.981976696674138E-04   0.272195E-01   0.621530E-01   0.811826E+05  -0.118114E-19
   LPB:    3  -0.237302461016372E+00   0.184671276111319E-03   0.326161E-01   0.268042E+00   0.197507E+05  -0.314001E-18
   LPB:    4  -0.237302415046604E+00   0.377312910059591E-03   0.351426E-01   0.399013E+00   0.199190E+04  -0.137750E-17
   LPB:    5  -0.237302393582932E+00   0.643654171244663E-03   0.316048E-01   0.519173E+00   0.322847E+03   0.166718E-18
   LPB:    6  -0.237302381871151E+00   0.415958106939272E-03   0.235082E-01   0.733589E+00   0.149840E+03   0.671817E-17
   LPB:    7  -0.237302372528729E+00   0.135761654053934E-03   0.311169E-01   0.602642E+00   0.496564E+03   0.174637E-16
   LPB:    8  -0.237302366292086E+00   0.982727098620332E-04   0.387063E-01   0.536668E+00   0.153844E+04   0.277722E-16
  Finished solving LPB equations
  A_corr:   -0.165355746244642     
 End minimization
 Ecorr=   3279.91898680377     
 A_corr= -0.165355746244642     
 Ecorr_band=  -3280.08434255002     
 End Solvation calculations
DAV:   1    -0.250110542330E+03    0.38605E-04   -0.34200E-04 11007   0.585E-02    0.476E-02
 Begin Solvation calculations
  rms_SCF =   1.349046943073038E-003 tol =   1.349046943073038E-004
 Begin minimization
 Creating dielectric and ionic cavities
  area:      137.048787175453     
  volume:    722.788498723896     
  Acav:     7.195061326711302E-002
  Solving linear dielectric/ionic screening model
        iter                  A_solv                     rms
   LPB:       -0.237708213493194E+00   0.506676592664927E+00
   LPB:    0  -0.237699698069824E+00   0.503294004788168E+00   0.733959E-03   0.000000E+00   0.316150E+02   0.232041E-01
   LPB:    1  -0.237065575610619E+00   0.485550079902572E-01   0.858722E-02   0.000000E+00   0.677713E+02   0.723399E-18
   LPB:    2  -0.237010937182502E+00   0.725451575752265E-02   0.156163E-01   0.473805E-01   0.124699E+03  -0.659151E-16
   LPB:    3  -0.237004848477824E+00   0.276131900274783E-02   0.216678E-01   0.803138E-01   0.266867E+03  -0.462957E-16
   LPB:    4  -0.237003248455119E+00   0.254431766985827E-02   0.264283E-01   0.215450E+00   0.299593E+03  -0.861096E-16
   LPB:    5  -0.237002666905037E+00   0.250030491835340E-02   0.263772E-01   0.364168E+00   0.189176E+03  -0.911201E-16
   LPB:    6  -0.237002412780421E+00   0.200824092353711E-02   0.251923E-01   0.457532E+00   0.140560E+03  -0.108749E-15
   LPB:    7  -0.237002277874182E+00   0.871676319490850E-03   0.239960E-01   0.557331E+00   0.175543E+03  -0.965124E-16
   LPB:    8  -0.237002194118840E+00   0.326574411936028E-03   0.308935E-01   0.482228E+00   0.326364E+03  -0.102260E-15
   LPB:    9  -0.237002148000441E+00   0.166353360745396E-03   0.353413E-01   0.481334E+00   0.381110E+03  -0.120981E-15
   LPB:   10  -0.237002122677748E+00   0.116101837443166E-03   0.360262E-01   0.538641E+00   0.424140E+03  -0.130733E-15
  Finished solving LPB equations
  A_corr:   -0.165051509410635     
 End minimization
 Ecorr=   3279.85819763406     
 A_corr= -0.165051509410635     
 Ecorr_band=  -3280.02324914347     
 End Solvation calculations
RMM:   2    -0.250114372140E+03   -0.38298E-02   -0.54427E-04 12902   0.374E-02    0.710E-01
 Begin Solvation calculations
  rms_SCF =   1.349046943073038E-003 tol =   1.349046943073038E-004
 Begin minimization
 Creating dielectric and ionic cavities
  area:      137.042103574592     
  volume:    722.775300249637     
  Acav:     7.194710437666102E-002
  Solving linear dielectric/ionic screening model
        iter                  A_solv                     rms
   LPB:       -0.237933475912821E+00   0.487024416941304E+00
   LPB:    0  -0.237929204902006E+00   0.485172495371264E+00  -0.519792E-03   0.000000E+00   0.316156E+02  -0.164335E-01
   LPB:    1  -0.237340026648640E+00   0.465576172679648E-01   0.858375E-02   0.000000E+00   0.678559E+02   0.532656E-18
   LPB:    2  -0.237289668365522E+00   0.706123344278148E-02   0.155810E-01   0.470876E-01   0.125879E+03   0.127921E-16
   LPB:    3  -0.237284087594690E+00   0.246776618245990E-02   0.216396E-01   0.797935E-01   0.257254E+03   0.174591E-16
   LPB:    4  -0.237282653552344E+00   0.176725126550912E-02   0.265961E-01   0.209074E+00   0.344173E+03   0.261048E-16
   LPB:    5  -0.237282125504554E+00   0.167873231513584E-02   0.279029E-01   0.350978E+00   0.272830E+03   0.282431E-16
   LPB:    6  -0.237281894756602E+00   0.175051297539307E-02   0.284217E-01   0.429007E+00   0.182461E+03   0.170218E-16
   LPB:    7  -0.237281792112679E+00   0.119105410854207E-02   0.234185E-01   0.539866E+00   0.147625E+03   0.280604E-16
   LPB:    8  -0.237281726757160E+00   0.443014846080992E-03   0.267328E-01   0.557781E+00   0.243177E+03   0.371550E-16
   LPB:    9  -0.237281687617264E+00   0.184789686493986E-03   0.343771E-01   0.465707E+00   0.410397E+03   0.414186E-16
   LPB:   10  -0.237281664966784E+00   0.113640671573723E-03   0.364835E-01   0.545294E+00   0.500422E+03   0.357323E-16
  Finished solving LPB equations
  A_corr:   -0.165334560590123     
 End minimization
 Ecorr=   3279.85327927447     
 A_corr= -0.165334560590123     
 Ecorr_band=  -3280.01861383507     
 End Solvation calculations
