 vasp.5.4.4.18Apr17-6-g9f103f2a35 (build Feb 06 2024 13:54:16) complex          
  
 POSCAR found type information on POSCAR  Cu Pd Cu N  O 
 05/POSCAR found :  5 types and      40 ions
 scaLAPACK will be used

 ----------------------------------------------------------------------------- 
|                                                                             |
|  ADVICE TO THIS USER RUNNING 'VASP/VAMP'   (HEAR YOUR MASTER'S VOICE ...):  |
|                                                                             |
|      You enforced a specific xc-type in the INCAR file,                     |
|      a different type was found on the POTCAR file                          |
|          I HOPE YOU KNOW, WHAT YOU ARE  DOING                               |
|                                                                             |
 ----------------------------------------------------------------------------- 

 LDA part: xc-table for Pade appr. of Perdew
 POSCAR found type information on POSCAR  Cu Pd Cu N  O 
 00/POSCAR found :  5 types and      40 ions
 POSCAR found type information on POSCAR  Cu Pd Cu N  O 
 06/POSCAR found :  5 types and      40 ions
 Jacobian:    20.5888137679208     
 POSCAR, INCAR and KPOINTS ok, starting setup
 FFT: planning ...
 WAVECAR not read
 entering main loop
       N       E                     dE             d eps       ncg     rms          rms(c)
DAV:   1     0.418558006529E+04    0.41856E+04   -0.17846E+05  4032   0.203E+03
DAV:   2     0.612158535763E+03   -0.35734E+04   -0.34446E+04  4032   0.461E+02
DAV:   3    -0.326585256541E+02   -0.64482E+03   -0.59303E+03  4788   0.232E+02
DAV:   4    -0.151241138595E+03   -0.11858E+03   -0.10480E+03  6966   0.944E+01
DAV:   5    -0.163240309535E+03   -0.11999E+02   -0.11128E+02  6264   0.317E+01    0.451E+01
RMM:   6    -0.186358648004E+03   -0.23118E+02   -0.37970E+02  4073   0.975E+01    0.529E+01
RMM:   7    -0.171969193363E+03    0.14389E+02   -0.12828E+02  4164   0.457E+01    0.355E+01
RMM:   8    -0.147903921906E+03    0.24065E+02   -0.21237E+01  4066   0.204E+01    0.254E+01
RMM:   9    -0.140293133595E+03    0.76108E+01   -0.70678E+00  4101   0.125E+01    0.149E+01
RMM:  10    -0.135809567436E+03    0.44836E+01   -0.13970E+01  4132   0.130E+01    0.934E+00
RMM:  11    -0.134696941128E+03    0.11126E+01   -0.28261E+00  4114   0.647E+00    0.477E+00
RMM:  12    -0.134514535344E+03    0.18241E+00   -0.12098E+00  4104   0.471E+00    0.403E+00
RMM:  13    -0.134583742678E+03   -0.69207E-01   -0.51960E-01  4095   0.269E+00    0.397E+00
RMM:  14    -0.134327443405E+03    0.25630E+00   -0.30015E-01  4099   0.234E+00    0.249E+00
RMM:  15    -0.134263286921E+03    0.64156E-01   -0.22795E-01  4218   0.126E+00    0.189E+00
RMM:  16    -0.134227360027E+03    0.35927E-01   -0.10084E-01  4149   0.110E+00    0.135E+00
RMM:  17    -0.134201908095E+03    0.25452E-01   -0.32062E-02  4243   0.538E-01    0.969E-01
RMM:  18    -0.134186016704E+03    0.15891E-01   -0.10369E-02  4579   0.265E-01    0.675E-01
RMM:  19    -0.134174777197E+03    0.11240E-01   -0.10024E-02  4293   0.272E-01    0.424E-01
RMM:  20    -0.134171576477E+03    0.32007E-02   -0.34669E-03  4196   0.190E-01    0.294E-01
RMM:  21    -0.134168705034E+03    0.28714E-02   -0.40142E-03  4675   0.130E-01    0.157E-01
RMM:  22    -0.134168232789E+03    0.47225E-03   -0.13057E-03  4829   0.821E-02    0.892E-02
RMM:  23    -0.134168547430E+03   -0.31464E-03   -0.46281E-04  4573   0.511E-02    0.541E-02
RMM:  24    -0.134168928106E+03   -0.38068E-03   -0.16930E-04  4187   0.304E-02    0.314E-02
RMM:  25    -0.134169422666E+03   -0.49456E-03   -0.11348E-04  3682   0.221E-02    0.333E-02
RMM:  26    -0.134169621471E+03   -0.19880E-03   -0.32512E-05  2558   0.175E-02    0.212E-02
RMM:  27    -0.134169896524E+03   -0.27505E-03   -0.51671E-05  2831   0.213E-02    0.180E-02
RMM:  28    -0.134169985064E+03   -0.88540E-04   -0.20495E-05  2445   0.151E-02    0.970E-03
RMM:  29    -0.134170061093E+03   -0.76030E-04   -0.10450E-05  2385   0.114E-02    0.104E-02
RMM:  30    -0.134170115133E+03   -0.54039E-04   -0.72490E-06  2359   0.911E-03    0.104E-02
RMM:  31    -0.134170143447E+03   -0.28315E-04   -0.67738E-06  2360   0.836E-03    0.439E-03
RMM:  32    -0.134170153804E+03   -0.10357E-04   -0.28730E-06  2306   0.694E-03    0.423E-03
RMM:  33    -0.134170162225E+03   -0.84212E-05   -0.16830E-06  2300   0.447E-03
   1 F= -.13417016E+03 E0= -.13416777E+03  d E =-.134170E+03
quench:  g(F)=  0.000E+00 g(S)=  0.000E+00 dE (1.order)= 0.000E+00
 bond charge predicted
       N       E                     dE             d eps       ncg     rms          rms(c)
DAV:   1    -0.134172264762E+03   -0.21110E-02   -0.67707E-01  4266   0.128E+00    0.299E-01
RMM:   2    -0.134175316498E+03   -0.30517E-02   -0.39389E-02  6205   0.340E-01    0.218E-01
RMM:   3    -0.134174398836E+03    0.91766E-03   -0.25109E-03  4586   0.124E-01    0.121E-01
RMM:   4    -0.134174444417E+03   -0.45581E-04   -0.11045E-03  4108   0.134E-01    0.133E-01
RMM:   5    -0.134174145419E+03    0.29900E-03   -0.50586E-04  4085   0.104E-01    0.710E-02
RMM:   6    -0.134174014070E+03    0.13135E-03   -0.21585E-04  4053   0.642E-02    0.402E-02
RMM:   7    -0.134173982049E+03    0.32020E-04   -0.54979E-05  3239   0.361E-02    0.128E-02
RMM:   8    -0.134173985455E+03   -0.34062E-05   -0.15277E-05  2316   0.180E-02
   2 F= -.13417399E+03 E0= -.13417158E+03  d E =-.382323E-02
quench:  g(F)=  0.000E+00 g(S)=  0.000E+00 dE (1.order)= 0.000E+00
 bond charge predicted
       N       E                     dE             d eps       ncg     rms          rms(c)
DAV:   1    -0.134174772538E+03   -0.79049E-03   -0.16571E-01  4185   0.685E-01    0.148E-01
RMM:   2    -0.134175573837E+03   -0.80130E-03   -0.10195E-02  6110   0.202E-01    0.116E-01
RMM:   3    -0.134175362321E+03    0.21152E-03   -0.71026E-04  4667   0.681E-02    0.685E-02
RMM:   4    -0.134175447120E+03   -0.84799E-04   -0.27629E-04  4112   0.623E-02    0.849E-02
RMM:   5    -0.134175293489E+03    0.15363E-03   -0.13781E-04  4010   0.495E-02    0.328E-02
RMM:   6    -0.134175282071E+03    0.11418E-04   -0.80318E-05  3562   0.416E-02    0.192E-02
RMM:   7    -0.134175280363E+03    0.17079E-05   -0.15308E-05  2337   0.202E-02
   3 F= -.13417528E+03 E0= -.13417288E+03  d E =-.129491E-02
quench:  g(F)=  0.000E+00 g(S)=  0.000E+00 dE (1.order)= 0.000E+00
 bond charge predicted
       N       E                     dE             d eps       ncg     rms          rms(c)
DAV:   1    -0.134175707977E+03   -0.42591E-03   -0.62681E-02  4239   0.475E-01    0.715E-02
RMM:   2    -0.134176006816E+03   -0.29884E-03   -0.33129E-03  5051   0.136E-01    0.525E-02
RMM:   3    -0.134175962486E+03    0.44330E-04   -0.21171E-04  4289   0.451E-02    0.417E-02
RMM:   4    -0.134175953316E+03    0.91693E-05   -0.67948E-05  3505   0.330E-02
   4 F= -.13417595E+03 E0= -.13417355E+03  d E =-.672954E-03
quench:  g(F)=  0.000E+00 g(S)=  0.000E+00 dE (1.order)= 0.000E+00
 bond charge predicted
       N       E                     dE             d eps       ncg     rms          rms(c)
DAV:   1    -0.134176292072E+03   -0.32959E-03   -0.43615E-02  5040   0.501E-01    0.535E-02
RMM:   2    -0.134176515997E+03   -0.22392E-03   -0.22599E-03  5489   0.112E-01    0.565E-02
RMM:   3    -0.134176453870E+03    0.62126E-04   -0.17603E-04  4326   0.399E-02    0.396E-02
RMM:   4    -0.134176426626E+03    0.27244E-04   -0.35964E-05  2633   0.251E-02    0.209E-02
RMM:   5    -0.134176423842E+03    0.27845E-05   -0.20280E-05  2304   0.219E-02
   5 F= -.13417642E+03 E0= -.13417401E+03  d E =-.470525E-03
quench:  g(F)=  0.000E+00 g(S)=  0.000E+00 dE (1.order)= 0.000E+00
 bond charge predicted
       N       E                     dE             d eps       ncg     rms          rms(c)
DAV:   1    -0.134176671593E+03   -0.24497E-03   -0.73180E-02  4203   0.580E-01    0.577E-02
RMM:   2    -0.134176979246E+03   -0.30765E-03   -0.32962E-03  5009   0.160E-01    0.399E-02
RMM:   3    -0.134176952986E+03    0.26260E-04   -0.26957E-04  4668   0.514E-02    0.385E-02
RMM:   4    -0.134176931775E+03    0.21210E-04   -0.39650E-05  2763   0.251E-02    0.242E-02
RMM:   5    -0.134176928573E+03    0.32022E-05   -0.24042E-05  2272   0.243E-02
   6 F= -.13417693E+03 E0= -.13417452E+03  d E =-.504731E-03
quench:  g(F)=  0.000E+00 g(S)=  0.000E+00 dE (1.order)= 0.000E+00
 bond charge predicted
       N       E                     dE             d eps       ncg     rms          rms(c)
DAV:   1    -0.134177008362E+03   -0.76587E-04   -0.64061E-02  4032   0.508E-01    0.762E-02
RMM:   2    -0.134177356234E+03   -0.34787E-03   -0.41155E-03  5692   0.145E-01    0.699E-02
RMM:   3    -0.134177267675E+03    0.88560E-04   -0.26499E-04  4478   0.485E-02    0.464E-02
RMM:   4    -0.134177247392E+03    0.20283E-04   -0.76017E-05  3646   0.321E-02    0.383E-02
RMM:   5    -0.134177218536E+03    0.28856E-04   -0.40636E-05  2784   0.278E-02    0.220E-02
RMM:   6    -0.134177210680E+03    0.78558E-05   -0.35190E-05  2787   0.296E-02
   7 F= -.13417721E+03 E0= -.13417480E+03  d E =-.282107E-03
quench:  g(F)=  0.000E+00 g(S)=  0.000E+00 dE (1.order)= 0.000E+00
 bond charge predicted
       N       E                     dE             d eps       ncg     rms          rms(c)
DAV:   1    -0.134177396531E+03   -0.17799E-03   -0.31207E-02  4221   0.329E-01    0.553E-02
RMM:   2    -0.134177554668E+03   -0.15814E-03   -0.18022E-03  5973   0.882E-02    0.378E-02
RMM:   3    -0.134177519028E+03    0.35640E-04   -0.83881E-05  3084   0.203E-02    0.227E-02
RMM:   4    -0.134177531316E+03   -0.12289E-04   -0.29339E-05  2534   0.223E-02    0.270E-02
RMM:   5    -0.134177514946E+03    0.16370E-04   -0.16297E-05  2297   0.210E-02    0.123E-02
RMM:   6    -0.134177514251E+03    0.69509E-06   -0.11115E-05  2266   0.161E-02
   8 F= -.13417751E+03 E0= -.13417510E+03  d E =-.303571E-03
quench:  g(F)=  0.000E+00 g(S)=  0.000E+00 dE (1.order)= 0.000E+00
 bond charge predicted
       N       E                     dE             d eps       ncg     rms          rms(c)
DAV:   1    -0.134177654409E+03   -0.13946E-03   -0.14746E-02  4176   0.255E-01    0.324E-02
RMM:   2    -0.134177729042E+03   -0.74633E-04   -0.85923E-04  5338   0.727E-02    0.273E-02
RMM:   3    -0.134177708901E+03    0.20141E-04   -0.43784E-05  2762   0.192E-02    0.152E-02
RMM:   4    -0.134177709836E+03   -0.93494E-06   -0.18703E-05  2264   0.206E-02
   9 F= -.13417771E+03 E0= -.13417529E+03  d E =-.195585E-03
quench:  g(F)=  0.000E+00 g(S)=  0.000E+00 dE (1.order)= 0.000E+00
 bond charge predicted
       N       E                     dE             d eps       ncg     rms          rms(c)
DAV:   1    -0.134177860809E+03   -0.15191E-03   -0.27457E-02  4185   0.371E-01    0.316E-02
RMM:   2    -0.134177993648E+03   -0.13284E-03   -0.11894E-03  5378   0.949E-02    0.330E-02
RMM:   3    -0.134177959923E+03    0.33726E-04   -0.81064E-05  3575   0.279E-02    0.253E-02
RMM:   4    -0.134177949854E+03    0.10069E-04   -0.18390E-05  2230   0.214E-02    0.126E-02
RMM:   5    -0.134177949578E+03    0.27577E-06   -0.10623E-05  2227   0.166E-02
  10 F= -.13417795E+03 E0= -.13417553E+03  d E =-.239742E-03
quench:  g(F)=  0.000E+00 g(S)=  0.000E+00 dE (1.order)= 0.000E+00
 bond charge predicted
       N       E                     dE             d eps       ncg     rms          rms(c)
DAV:   1    -0.134178017735E+03   -0.67881E-04   -0.41437E-02  4167   0.431E-01    0.497E-02
RMM:   2    -0.134178202928E+03   -0.18519E-03   -0.21156E-03  5174   0.119E-01    0.393E-02
RMM:   3    -0.134178161253E+03    0.41675E-04   -0.13741E-04  4160   0.342E-02    0.229E-02
RMM:   4    -0.134178160168E+03    0.10857E-05   -0.29270E-05  2504   0.223E-02
  11 F= -.13417816E+03 E0= -.13417574E+03  d E =-.210589E-03
quench:  g(F)=  0.000E+00 g(S)=  0.000E+00 dE (1.order)= 0.000E+00
 bond charge predicted
       N       E                     dE             d eps       ncg     rms          rms(c)
DAV:   1    -0.134178229131E+03   -0.67878E-04   -0.19836E-02  5166   0.313E-01    0.444E-02
RMM:   2    -0.134178372862E+03   -0.14373E-03   -0.11423E-03  4828   0.799E-02    0.526E-02
RMM:   3    -0.134178309636E+03    0.63226E-04   -0.10165E-04  3945   0.366E-02    0.319E-02
RMM:   4    -0.134178295134E+03    0.14503E-04   -0.25116E-05  2425   0.214E-02    0.171E-02
RMM:   5    -0.134178293751E+03    0.13827E-05   -0.19174E-05  2345   0.217E-02
  12 F= -.13417829E+03 E0= -.13417588E+03  d E =-.133583E-03
quench:  g(F)=  0.000E+00 g(S)=  0.000E+00 dE (1.order)= 0.000E+00
 bond charge predicted
       N       E                     dE             d eps       ncg     rms          rms(c)
DAV:   1    -0.134178382916E+03   -0.87782E-04   -0.96343E-03  4329   0.209E-01    0.279E-02
RMM:   2    -0.134178428839E+03   -0.45923E-04   -0.52656E-04  5289   0.512E-02    0.206E-02
RMM:   3    -0.134178418036E+03    0.10803E-04   -0.23803E-05  2511   0.152E-02    0.132E-02
RMM:   4    -0.134178420111E+03   -0.20753E-05   -0.14029E-05  2254   0.187E-02
  13 F= -.13417842E+03 E0= -.13417600E+03  d E =-.126360E-03
quench:  g(F)=  0.000E+00 g(S)=  0.000E+00 dE (1.order)= 0.000E+00
 bond charge predicted
       N       E                     dE             d eps       ncg     rms          rms(c)
DAV:   1    -0.134178513562E+03   -0.95526E-04   -0.12978E-02  4185   0.264E-01    0.227E-02
RMM:   2    -0.134178567366E+03   -0.53805E-04   -0.54741E-04  5081   0.648E-02    0.187E-02
RMM:   3    -0.134178558456E+03    0.89098E-05   -0.30466E-05  2546   0.198E-02
  14 F= -.13417856E+03 E0= -.13417614E+03  d E =-.138346E-03
quench:  g(F)=  0.000E+00 g(S)=  0.000E+00 dE (1.order)= 0.000E+00
 bond charge predicted
       N       E                     dE             d eps       ncg     rms          rms(c)
DAV:   1    -0.134178618555E+03   -0.51189E-04   -0.19212E-02  4176   0.312E-01    0.335E-02
RMM:   2    -0.134178703904E+03   -0.85349E-04   -0.96078E-04  5600   0.758E-02    0.247E-02
RMM:   3    -0.134178682369E+03    0.21535E-04   -0.36601E-05  2664   0.187E-02    0.150E-02
RMM:   4    -0.134178683712E+03   -0.13426E-05   -0.21329E-05  2282   0.234E-02
  15 F= -.13417868E+03 E0= -.13417626E+03  d E =-.125255E-03
quench:  g(F)=  0.000E+00 g(S)=  0.000E+00 dE (1.order)= 0.000E+00
 bond charge predicted
       N       E                     dE             d eps       ncg     rms          rms(c)
DAV:   1    -0.134178738697E+03   -0.56328E-04   -0.13581E-02  5166   0.252E-01    0.361E-02
RMM:   2    -0.134178817949E+03   -0.79252E-04   -0.71762E-04  5073   0.575E-02    0.353E-02
RMM:   3    -0.134178791303E+03    0.26646E-04   -0.50723E-05  2923   0.248E-02    0.287E-02
RMM:   4    -0.134178778233E+03    0.13070E-04   -0.22199E-05  2329   0.233E-02    0.122E-02
RMM:   5    -0.134178775981E+03    0.22524E-05   -0.90005E-06  2310   0.131E-02
  16 F= -.13417878E+03 E0= -.13417635E+03  d E =-.922690E-04
quench:  g(F)=  0.000E+00 g(S)=  0.000E+00 dE (1.order)= 0.000E+00
 bond charge predicted
       N       E                     dE             d eps       ncg     rms          rms(c)
DAV:   1    -0.134178842356E+03   -0.64123E-04   -0.69519E-03  4194   0.173E-01    0.242E-02
RMM:   2    -0.134178873977E+03   -0.31621E-04   -0.35989E-04  5046   0.431E-02    0.181E-02
RMM:   3    -0.134178868325E+03    0.56522E-05   -0.19070E-05  2420   0.141E-02
  17 F= -.13417887E+03 E0= -.13417644E+03  d E =-.923439E-04
quench:  g(F)=  0.000E+00 g(S)=  0.000E+00 dE (1.order)= 0.000E+00
 bond charge predicted
       N       E                     dE             d eps       ncg     rms          rms(c)
DAV:   1    -0.134178943374E+03   -0.69397E-04   -0.82814E-03  5211   0.226E-01    0.208E-02
RMM:   2    -0.134178985160E+03   -0.41787E-04   -0.30399E-04  4566   0.468E-02    0.245E-02
RMM:   3    -0.134178967044E+03    0.18117E-04   -0.25614E-05  2455   0.195E-02    0.168E-02
RMM:   4    -0.134178963560E+03    0.34831E-05   -0.92583E-06  2174   0.163E-02
  18 F= -.13417896E+03 E0= -.13417654E+03  d E =-.952359E-04
quench:  g(F)=  0.000E+00 g(S)=  0.000E+00 dE (1.order)= 0.000E+00
 bond charge predicted
       N       E                     dE             d eps       ncg     rms          rms(c)
DAV:   1    -0.134179035201E+03   -0.68157E-04   -0.15102E-02  4158   0.257E-01    0.283E-02
RMM:   2    -0.134179089245E+03   -0.54044E-04   -0.59768E-04  5004   0.681E-02    0.202E-02
RMM:   3    -0.134179083050E+03    0.61943E-05   -0.39205E-05  2684   0.183E-02
  19 F= -.13417908E+03 E0= -.13417666E+03  d E =-.119490E-03
quench:  g(F)=  0.000E+00 g(S)=  0.000E+00 dE (1.order)= 0.000E+00
 bond charge predicted
       N       E                     dE             d eps       ncg     rms          rms(c)
DAV:   1    -0.134179115205E+03   -0.25960E-04   -0.10642E-02  5220   0.239E-01    0.321E-02
RMM:   2    -0.134179175530E+03   -0.60325E-04   -0.56390E-04  4933   0.533E-02    0.300E-02
RMM:   3    -0.134179157797E+03    0.17732E-04   -0.42811E-05  2768   0.236E-02    0.268E-02
RMM:   4    -0.134179146614E+03    0.11183E-04   -0.17966E-05  2297   0.213E-02    0.103E-02
RMM:   5    -0.134179145498E+03    0.11159E-05   -0.65276E-06  2231   0.111E-02
  20 F= -.13417915E+03 E0= -.13417672E+03  d E =-.624479E-04
quench:  g(F)=  0.000E+00 g(S)=  0.000E+00 dE (1.order)= 0.000E+00
 bond charge predicted
       N       E                     dE             d eps       ncg     rms          rms(c)
DAV:   1    -0.134179198958E+03   -0.52343E-04   -0.63789E-03  4230   0.160E-01    0.240E-02
RMM:   2    -0.134179227854E+03   -0.28896E-04   -0.33326E-04  4841   0.399E-02    0.167E-02
RMM:   3    -0.134179221944E+03    0.59103E-05   -0.16510E-05  2336   0.135E-02
  21 F= -.13417922E+03 E0= -.13417680E+03  d E =-.764454E-04
quench:  g(F)=  0.000E+00 g(S)=  0.000E+00 dE (1.order)= 0.000E+00
 bond charge predicted
       N       E                     dE             d eps       ncg     rms          rms(c)
DAV:   1    -0.134179279168E+03   -0.51314E-04   -0.49481E-03  5166   0.161E-01    0.188E-02
RMM:   2    -0.134179307856E+03   -0.28688E-04   -0.19137E-04  4034   0.391E-02    0.264E-02
RMM:   3    -0.134179292190E+03    0.15666E-04   -0.22367E-05  2347   0.203E-02    0.126E-02
RMM:   4    -0.134179291245E+03    0.94440E-06   -0.73084E-06  2222   0.136E-02
  22 F= -.13417929E+03 E0= -.13417686E+03  d E =-.693018E-04
quench:  g(F)=  0.000E+00 g(S)=  0.000E+00 dE (1.order)= 0.000E+00
 bond charge predicted
       N       E                     dE             d eps       ncg     rms          rms(c)
DAV:   1    -0.134179351339E+03   -0.59149E-04   -0.92987E-03  4185   0.203E-01    0.222E-02
RMM:   2    -0.134179384223E+03   -0.32883E-04   -0.37219E-04  5230   0.490E-02    0.146E-02
RMM:   3    -0.134179377887E+03    0.63359E-05   -0.17116E-05  2337   0.129E-02
  23 F= -.13417938E+03 E0= -.13417695E+03  d E =-.866414E-04
quench:  g(F)=  0.000E+00 g(S)=  0.000E+00 dE (1.order)= 0.000E+00
 bond charge predicted
       N       E                     dE             d eps       ncg     rms          rms(c)
DAV:   1    -0.134179418887E+03   -0.34664E-04   -0.97396E-03  4149   0.200E-01    0.292E-02
RMM:   2    -0.134179468512E+03   -0.49625E-04   -0.49330E-04  5119   0.491E-02    0.262E-02
RMM:   3    -0.134179456411E+03    0.12101E-04   -0.32317E-05  2576   0.204E-02    0.243E-02
RMM:   4    -0.134179447509E+03    0.89019E-05   -0.16905E-05  2272   0.211E-02
  24 F= -.13417945E+03 E0= -.13417702E+03  d E =-.696222E-04
quench:  g(F)=  0.000E+00 g(S)=  0.000E+00 dE (1.order)= 0.000E+00
 bond charge predicted
       N       E                     dE             d eps       ncg     rms          rms(c)
DAV:   1    -0.134179491534E+03   -0.35123E-04   -0.49916E-03  4257   0.137E-01    0.216E-02
RMM:   2    -0.134179512607E+03   -0.21073E-04   -0.24176E-04  4268   0.338E-02    0.169E-02
RMM:   3    -0.134179509068E+03    0.35394E-05   -0.18293E-05  2351   0.176E-02
  25 F= -.13417951E+03 E0= -.13417708E+03  d E =-.615587E-04
quench:  g(F)=  0.000E+00 g(S)=  0.000E+00 dE (1.order)= 0.000E+00
 bond charge predicted
       N       E                     dE             d eps       ncg     rms          rms(c)
DAV:   1    -0.134179558762E+03   -0.46154E-04   -0.40112E-03  5283   0.147E-01    0.168E-02
RMM:   2    -0.134179580110E+03   -0.21348E-04   -0.15530E-04  3647   0.339E-02    0.207E-02
RMM:   3    -0.134179570655E+03    0.94548E-05   -0.19695E-05  2289   0.195E-02
  26 F= -.13417957E+03 E0= -.13417714E+03  d E =-.615873E-04
quench:  g(F)=  0.000E+00 g(S)=  0.000E+00 dE (1.order)= 0.000E+00
 bond charge predicted
       N       E                     dE             d eps       ncg     rms          rms(c)
DAV:   1    -0.134179618176E+03   -0.38067E-04   -0.73693E-03  4158   0.182E-01    0.219E-02
RMM:   2    -0.134179646797E+03   -0.28620E-04   -0.32706E-04  4912   0.463E-02    0.154E-02
RMM:   3    -0.134179640956E+03    0.58405E-05   -0.16274E-05  2274   0.158E-02
  27 F= -.13417964E+03 E0= -.13417721E+03  d E =-.703010E-04
quench:  g(F)=  0.000E+00 g(S)=  0.000E+00 dE (1.order)= 0.000E+00
 bond charge predicted
       N       E                     dE             d eps       ncg     rms          rms(c)
DAV:   1    -0.134179678421E+03   -0.31625E-04   -0.70958E-03  5229   0.187E-01    0.271E-02
RMM:   2    -0.134179724186E+03   -0.45765E-04   -0.37060E-04  4464   0.436E-02    0.323E-02
RMM:   3    -0.134179702587E+03    0.21599E-04   -0.32102E-05  2562   0.220E-02    0.200E-02
RMM:   4    -0.134179697756E+03    0.48307E-05   -0.13463E-05  2285   0.183E-02
  28 F= -.13417970E+03 E0= -.13417727E+03  d E =-.568002E-04
quench:  g(F)=  0.000E+00 g(S)=  0.000E+00 dE (1.order)= 0.000E+00
 bond charge predicted
       N       E                     dE             d eps       ncg     rms          rms(c)
DAV:   1    -0.134179738195E+03   -0.35608E-04   -0.41844E-03  4068   0.125E-01    0.192E-02
RMM:   2    -0.134179754683E+03   -0.16488E-04   -0.19281E-04  4003   0.313E-02    0.134E-02
RMM:   3    -0.134179752974E+03    0.17089E-05   -0.15781E-05  2297   0.176E-02
  29 F= -.13417975E+03 E0= -.13417733E+03  d E =-.552175E-04
quench:  g(F)=  0.000E+00 g(S)=  0.000E+00 dE (1.order)= 0.000E+00
 bond charge predicted
       N       E                     dE             d eps       ncg     rms          rms(c)
DAV:   1    -0.134179801423E+03   -0.46740E-04   -0.39199E-03  5085   0.138E-01    0.166E-02
RMM:   2    -0.134179813238E+03   -0.11815E-04   -0.13917E-04  3544   0.287E-02    0.119E-02
RMM:   3    -0.134179812967E+03    0.27168E-06   -0.15259E-05  2276   0.174E-02
  30 F= -.13417981E+03 E0= -.13417738E+03  d E =-.599929E-04
quench:  g(F)=  0.000E+00 g(S)=  0.000E+00 dE (1.order)= 0.000E+00
 bond charge predicted
       N       E                     dE             d eps       ncg     rms          rms(c)
DAV:   1    -0.134179858008E+03   -0.44770E-04   -0.71234E-03  4851   0.186E-01    0.223E-02
RMM:   2    -0.134179886204E+03   -0.28196E-04   -0.28166E-04  4407   0.408E-02    0.180E-02
RMM:   3    -0.134179883273E+03    0.29311E-05   -0.21820E-05  2362   0.190E-02
  31 F= -.13417988E+03 E0= -.13417745E+03  d E =-.703065E-04
quench:  g(F)=  0.000E+00 g(S)=  0.000E+00 dE (1.order)= 0.000E+00
 bond charge predicted
       N       E                     dE             d eps       ncg     rms          rms(c)
DAV:   1    -0.134179907016E+03   -0.20811E-04   -0.65542E-03  5256   0.184E-01    0.254E-02
RMM:   2    -0.134179936740E+03   -0.29725E-04   -0.35115E-04  4248   0.372E-02    0.193E-02
RMM:   3    -0.134179928652E+03    0.80885E-05   -0.20099E-05  2334   0.172E-02
  32 F= -.13417993E+03 E0= -.13417750E+03  d E =-.453785E-04
quench:  g(F)=  0.000E+00 g(S)=  0.000E+00 dE (1.order)= 0.000E+00
 bond charge predicted
       N       E                     dE             d eps       ncg     rms          rms(c)
DAV:   1    -0.134179965606E+03   -0.28865E-04   -0.37386E-03  5301   0.139E-01    0.194E-02
RMM:   2    -0.134179983813E+03   -0.18207E-04   -0.17952E-04  3657   0.360E-02    0.219E-02
RMM:   3    -0.134179977884E+03    0.59286E-05   -0.21950E-05  2298   0.212E-02
  33 F= -.13417998E+03 E0= -.13417755E+03  d E =-.492321E-04
quench:  g(F)=  0.000E+00 g(S)=  0.000E+00 dE (1.order)= 0.000E+00
 bond charge predicted
       N       E                     dE             d eps       ncg     rms          rms(c)
DAV:   1    -0.134180017251E+03   -0.33439E-04   -0.34221E-03  5319   0.145E-01    0.176E-02
RMM:   2    -0.134180035205E+03   -0.17953E-04   -0.14530E-04  3572   0.314E-02    0.175E-02
RMM:   3    -0.134180028609E+03    0.65953E-05   -0.19443E-05  2306   0.190E-02
  34 F= -.13418003E+03 E0= -.13417760E+03  d E =-.507255E-04
quench:  g(F)=  0.000E+00 g(S)=  0.000E+00 dE (1.order)= 0.000E+00
 bond charge predicted
       N       E                     dE             d eps       ncg     rms          rms(c)
DAV:   1    -0.134180065427E+03   -0.30222E-04   -0.56483E-03  4842   0.163E-01    0.220E-02
RMM:   2    -0.134180085500E+03   -0.20074E-04   -0.23987E-04  4134   0.361E-02    0.168E-02
RMM:   3    -0.134180081274E+03    0.42263E-05   -0.19971E-05  2263   0.198E-02
  35 F= -.13418008E+03 E0= -.13417766E+03  d E =-.526647E-04
quench:  g(F)=  0.000E+00 g(S)=  0.000E+00 dE (1.order)= 0.000E+00
 bond charge predicted
       N       E                     dE             d eps       ncg     rms          rms(c)
DAV:   1    -0.134180113687E+03   -0.28187E-04   -0.53531E-03  5112   0.148E-01    0.236E-02
RMM:   2    -0.134180134648E+03   -0.20961E-04   -0.25255E-04  3909   0.326E-02    0.177E-02
RMM:   3    -0.134180130178E+03    0.44698E-05   -0.21131E-05  2329   0.191E-02
  36 F= -.13418013E+03 E0= -.13417770E+03  d E =-.489043E-04
quench:  g(F)=  0.000E+00 g(S)=  0.000E+00 dE (1.order)= 0.000E+00
 bond charge predicted
       N       E                     dE             d eps       ncg     rms          rms(c)
DAV:   1    -0.134180162715E+03   -0.28067E-04   -0.31554E-03  5337   0.143E-01    0.177E-02
RMM:   2    -0.134180186993E+03   -0.24278E-04   -0.15286E-04  3547   0.336E-02    0.273E-02
RMM:   3    -0.134180171153E+03    0.15839E-04   -0.20334E-05  2304   0.198E-02    0.106E-02
RMM:   4    -0.134180170426E+03    0.72734E-06   -0.65901E-06  2159   0.128E-02
  37 F= -.13418017E+03 E0= -.13417774E+03  d E =-.402476E-04
quench:  g(F)=  0.000E+00 g(S)=  0.000E+00 dE (1.order)= 0.000E+00
 bond charge predicted
       N       E                     dE             d eps       ncg     rms          rms(c)
DAV:   1    -0.134180214347E+03   -0.43194E-04   -0.36354E-03  4185   0.117E-01    0.171E-02
RMM:   2    -0.134180226427E+03   -0.12080E-04   -0.14298E-04  3744   0.290E-02    0.107E-02
RMM:   3    -0.134180224867E+03    0.15598E-05   -0.11614E-05  2206   0.151E-02
  38 F= -.13418022E+03 E0= -.13417779E+03  d E =-.544415E-04
quench:  g(F)=  0.000E+00 g(S)=  0.000E+00 dE (1.order)= 0.000E+00
 bond charge predicted
       N       E                     dE             d eps       ncg     rms          rms(c)
DAV:   1    -0.134180265629E+03   -0.39201E-04   -0.57765E-03  4311   0.152E-01    0.217E-02
RMM:   2    -0.134180285577E+03   -0.19949E-04   -0.22169E-04  4351   0.340E-02    0.165E-02
RMM:   3    -0.134180285655E+03   -0.77438E-07   -0.17473E-05  2338   0.173E-02
  39 F= -.13418029E+03 E0= -.13417786E+03  d E =-.607874E-04
quench:  g(F)=  0.000E+00 g(S)=  0.000E+00 dE (1.order)= 0.000E+00
 bond charge predicted
       N       E                     dE             d eps       ncg     rms          rms(c)
DAV:   1    -0.134180309259E+03   -0.23682E-04   -0.55692E-03  5256   0.179E-01    0.248E-02
RMM:   2    -0.134180334517E+03   -0.25258E-04   -0.28830E-04  4148   0.361E-02    0.178E-02
RMM:   3    -0.134180331636E+03    0.28815E-05   -0.21488E-05  2404   0.177E-02
  40 F= -.13418033E+03 E0= -.13417790E+03  d E =-.459811E-04
quench:  g(F)=  0.000E+00 g(S)=  0.000E+00 dE (1.order)= 0.000E+00
 bond charge predicted
       N       E                     dE             d eps       ncg     rms          rms(c)
DAV:   1    -0.134180356081E+03   -0.21563E-04   -0.31144E-03  5364   0.171E-01    0.179E-02
RMM:   2    -0.134180373911E+03   -0.17831E-04   -0.16469E-04  3684   0.296E-02    0.180E-02
RMM:   3    -0.134180369627E+03    0.42845E-05   -0.16521E-05  2298   0.173E-02
  41 F= -.13418037E+03 E0= -.13417794E+03  d E =-.379910E-04
quench:  g(F)=  0.000E+00 g(S)=  0.000E+00 dE (1.order)= 0.000E+00
 bond charge predicted
       N       E                     dE             d eps       ncg     rms          rms(c)
DAV:   1    -0.134180402609E+03   -0.28698E-04   -0.27690E-03  5193   0.130E-01    0.172E-02
RMM:   2    -0.134180412789E+03   -0.10179E-04   -0.12422E-04  3336   0.257E-02    0.120E-02
RMM:   3    -0.134180411629E+03    0.11594E-05   -0.14492E-05  2260   0.173E-02
  42 F= -.13418041E+03 E0= -.13417798E+03  d E =-.420022E-04
quench:  g(F)=  0.000E+00 g(S)=  0.000E+00 dE (1.order)= 0.000E+00
 bond charge predicted
       N       E                     dE             d eps       ncg     rms          rms(c)
DAV:   1    -0.134180449259E+03   -0.36471E-04   -0.49380E-03  5067   0.162E-01    0.212E-02
RMM:   2    -0.134180472471E+03   -0.23211E-04   -0.19488E-04  3807   0.325E-02    0.225E-02
RMM:   3    -0.134180463952E+03    0.85188E-05   -0.20111E-05  2340   0.188E-02
  43 F= -.13418046E+03 E0= -.13417803E+03  d E =-.523226E-04
quench:  g(F)=  0.000E+00 g(S)=  0.000E+00 dE (1.order)= 0.000E+00
 bond charge predicted
       N       E                     dE             d eps       ncg     rms          rms(c)
DAV:   1    -0.134180489759E+03   -0.17288E-04   -0.53219E-03  5139   0.160E-01    0.246E-02
RMM:   2    -0.134180511943E+03   -0.22184E-04   -0.27947E-04  3992   0.332E-02    0.177E-02
RMM:   3    -0.134180505639E+03    0.63040E-05   -0.17893E-05  2359   0.153E-02
  44 F= -.13418051E+03 E0= -.13417807E+03  d E =-.416870E-04
quench:  g(F)=  0.000E+00 g(S)=  0.000E+00 dE (1.order)= 0.000E+00
 bond charge predicted
       N       E                     dE             d eps       ncg     rms          rms(c)
DAV:   1    -0.134180536791E+03   -0.24848E-04   -0.32090E-03  5265   0.135E-01    0.185E-02
RMM:   2    -0.134180557821E+03   -0.21030E-04   -0.15520E-04  3489   0.335E-02    0.241E-02
RMM:   3    -0.134180546593E+03    0.11228E-04   -0.20605E-05  2303   0.204E-02    0.123E-02
RMM:   4    -0.134180545152E+03    0.14412E-05   -0.63092E-06  2167   0.121E-02
  45 F= -.13418055E+03 E0= -.13417811E+03  d E =-.395130E-04
quench:  g(F)=  0.000E+00 g(S)=  0.000E+00 dE (1.order)= 0.000E+00
 bond charge predicted
       N       E                     dE             d eps       ncg     rms          rms(c)
DAV:   1    -0.134180584619E+03   -0.38026E-04   -0.28869E-03  4302   0.104E-01    0.162E-02
RMM:   2    -0.134180594334E+03   -0.97153E-05   -0.11450E-04  3394   0.255E-02    0.108E-02
RMM:   3    -0.134180593071E+03    0.12631E-05   -0.12576E-05  2195   0.164E-02
  46 F= -.13418059E+03 E0= -.13417816E+03  d E =-.479196E-04
quench:  g(F)=  0.000E+00 g(S)=  0.000E+00 dE (1.order)= 0.000E+00
 bond charge predicted
       N       E                     dE             d eps       ncg     rms          rms(c)
DAV:   1    -0.134180630670E+03   -0.36336E-04   -0.47760E-03  4401   0.137E-01    0.201E-02
RMM:   2    -0.134180645387E+03   -0.14717E-04   -0.18074E-04  3896   0.304E-02    0.120E-02
RMM:   3    -0.134180643436E+03    0.19512E-05   -0.13623E-05  2235   0.156E-02
  47 F= -.13418064E+03 E0= -.13417821E+03  d E =-.503648E-04
quench:  g(F)=  0.000E+00 g(S)=  0.000E+00 dE (1.order)= 0.000E+00
 bond charge predicted
       N       E                     dE             d eps       ncg     rms          rms(c)
DAV:   1    -0.134180673445E+03   -0.28058E-04   -0.50935E-03  5112   0.142E-01    0.237E-02
RMM:   2    -0.134180693833E+03   -0.20387E-04   -0.24213E-04  3847   0.328E-02    0.190E-02
RMM:   3    -0.134180692046E+03    0.17864E-05   -0.22036E-05  2381   0.197E-02
  48 F= -.13418069E+03 E0= -.13417826E+03  d E =-.486101E-04
quench:  g(F)=  0.000E+00 g(S)=  0.000E+00 dE (1.order)= 0.000E+00
 bond charge predicted
       N       E                     dE             d eps       ncg     rms          rms(c)
DAV:   1    -0.134180714116E+03   -0.20283E-04   -0.29578E-03  5445   0.162E-01    0.172E-02
RMM:   2    -0.134180735331E+03   -0.21215E-04   -0.15821E-04  3541   0.316E-02    0.194E-02
RMM:   3    -0.134180726935E+03    0.83959E-05   -0.18665E-05  2302   0.185E-02
  49 F= -.13418073E+03 E0= -.13417829E+03  d E =-.348887E-04
quench:  g(F)=  0.000E+00 g(S)=  0.000E+00 dE (1.order)= 0.000E+00
 bond charge predicted
       N       E                     dE             d eps       ncg     rms          rms(c)
DAV:   1    -0.134180757961E+03   -0.22630E-04   -0.25161E-03  5220   0.111E-01    0.167E-02
RMM:   2    -0.134180767589E+03   -0.96286E-05   -0.11676E-04  3204   0.237E-02    0.131E-02
RMM:   3    -0.134180766412E+03    0.11774E-05   -0.14283E-05  2239   0.185E-02
  50 F= -.13418077E+03 E0= -.13417833E+03  d E =-.394768E-04
quench:  g(F)=  0.000E+00 g(S)=  0.000E+00 dE (1.order)= 0.000E+00
 bond charge predicted
       N       E                     dE             d eps       ncg     rms          rms(c)
DAV:   1    -0.134180801918E+03   -0.34329E-04   -0.44774E-03  4977   0.148E-01    0.205E-02
RMM:   2    -0.134180823213E+03   -0.21295E-04   -0.17668E-04  3683   0.322E-02    0.214E-02
RMM:   3    -0.134180815571E+03    0.76420E-05   -0.20090E-05  2315   0.193E-02
  51 F= -.13418082E+03 E0= -.13417838E+03  d E =-.491592E-04
quench:  g(F)=  0.000E+00 g(S)=  0.000E+00 dE (1.order)= 0.000E+00
 bond charge predicted
       N       E                     dE             d eps       ncg     rms          rms(c)
DAV:   1    -0.134180841211E+03   -0.17998E-04   -0.47802E-03  5076   0.144E-01    0.237E-02
RMM:   2    -0.134180861792E+03   -0.20581E-04   -0.25861E-04  3894   0.313E-02    0.179E-02
RMM:   3    -0.134180856722E+03    0.50693E-05   -0.17829E-05  2313   0.171E-02
  52 F= -.13418086E+03 E0= -.13417842E+03  d E =-.411515E-04
quench:  g(F)=  0.000E+00 g(S)=  0.000E+00 dE (1.order)= 0.000E+00
 bond charge predicted
       N       E                     dE             d eps       ncg     rms          rms(c)
DAV:   1    -0.134180881824E+03   -0.20032E-04   -0.30144E-03  5373   0.148E-01    0.190E-02
RMM:   2    -0.134180919713E+03   -0.37889E-04   -0.16305E-04  3681   0.370E-02    0.310E-02
RMM:   3    -0.134180892803E+03    0.26909E-04   -0.23292E-05  2318   0.211E-02    0.116E-02
RMM:   4    -0.134180892150E+03    0.65292E-06   -0.71478E-06  2181   0.135E-02
  53 F= -.13418089E+03 E0= -.13417846E+03  d E =-.354280E-04
quench:  g(F)=  0.000E+00 g(S)=  0.000E+00 dE (1.order)= 0.000E+00
 bond charge predicted
       N       E                     dE             d eps       ncg     rms          rms(c)
DAV:   1    -0.134180930116E+03   -0.37313E-04   -0.27873E-03  4707   0.102E-01    0.167E-02
RMM:   2    -0.134180939874E+03   -0.97585E-05   -0.11390E-04  3287   0.249E-02    0.123E-02
RMM:   3    -0.134180938737E+03    0.11378E-05   -0.14073E-05  2231   0.174E-02
  54 F= -.13418094E+03 E0= -.13417850E+03  d E =-.465863E-04
quench:  g(F)=  0.000E+00 g(S)=  0.000E+00 dE (1.order)= 0.000E+00
 bond charge predicted
       N       E                     dE             d eps       ncg     rms          rms(c)
DAV:   1    -0.134180975399E+03   -0.35525E-04   -0.47858E-03  4995   0.149E-01    0.209E-02
RMM:   2    -0.134180994805E+03   -0.19406E-04   -0.18225E-04  3677   0.321E-02    0.181E-02
RMM:   3    -0.134180992060E+03    0.27447E-05   -0.20928E-05  2326   0.201E-02
  55 F= -.13418099E+03 E0= -.13417856E+03  d E =-.533236E-04
quench:  g(F)=  0.000E+00 g(S)=  0.000E+00 dE (1.order)= 0.000E+00
 bond charge predicted
       N       E                     dE             d eps       ncg     rms          rms(c)
DAV:   1    -0.134181013107E+03   -0.18302E-04   -0.51737E-03  5202   0.155E-01    0.243E-02
RMM:   2    -0.134181035577E+03   -0.22470E-04   -0.27906E-04  3935   0.314E-02    0.180E-02
RMM:   3    -0.134181030405E+03    0.51720E-05   -0.17544E-05  2334   0.173E-02
  56 F= -.13418103E+03 E0= -.13417860E+03  d E =-.383449E-04
quench:  g(F)=  0.000E+00 g(S)=  0.000E+00 dE (1.order)= 0.000E+00
 bond charge predicted
       N       E                     dE             d eps       ncg     rms          rms(c)
DAV:   1    -0.134181060432E+03   -0.24855E-04   -0.29660E-03  5382   0.162E-01    0.194E-02
RMM:   2    -0.134181101413E+03   -0.40982E-04   -0.16844E-04  3870   0.370E-02    0.364E-02
RMM:   3    -0.134181067461E+03    0.33952E-04   -0.24914E-05  2368   0.211E-02    0.107E-02
RMM:   4    -0.134181067360E+03    0.10070E-06   -0.82099E-06  2201   0.147E-02
  57 F= -.13418107E+03 E0= -.13417863E+03  d E =-.369551E-04
quench:  g(F)=  0.000E+00 g(S)=  0.000E+00 dE (1.order)= 0.000E+00
 bond charge predicted
       N       E                     dE             d eps       ncg     rms          rms(c)
DAV:   1    -0.134181104454E+03   -0.36993E-04   -0.27117E-03  4203   0.950E-02    0.166E-02
RMM:   2    -0.134181113076E+03   -0.86223E-05   -0.10666E-04  3278   0.242E-02    0.106E-02
RMM:   3    -0.134181112360E+03    0.71665E-06   -0.11856E-05  2197   0.161E-02
  58 F= -.13418111E+03 E0= -.13417868E+03  d E =-.449992E-04
quench:  g(F)=  0.000E+00 g(S)=  0.000E+00 dE (1.order)= 0.000E+00
 bond charge predicted
       N       E                     dE             d eps       ncg     rms          rms(c)
DAV:   1    -0.134181151566E+03   -0.38490E-04   -0.48203E-03  4599   0.137E-01    0.211E-02
RMM:   2    -0.134181167812E+03   -0.16247E-04   -0.17417E-04  3781   0.303E-02    0.163E-02
RMM:   3    -0.134181169041E+03   -0.12281E-05   -0.18314E-05  2328   0.185E-02
  59 F= -.13418117E+03 E0= -.13417873E+03  d E =-.566810E-04
quench:  g(F)=  0.000E+00 g(S)=  0.000E+00 dE (1.order)= 0.000E+00
 bond charge predicted
       N       E                     dE             d eps       ncg     rms          rms(c)
DAV:   1    -0.134181188174E+03   -0.20361E-04   -0.52958E-03  5265   0.167E-01    0.252E-02
RMM:   2    -0.134181209348E+03   -0.21175E-04   -0.27879E-04  4050   0.321E-02    0.170E-02
RMM:   3    -0.134181203768E+03    0.55801E-05   -0.16637E-05  2312   0.151E-02
  60 F= -.13418120E+03 E0= -.13417877E+03  d E =-.347278E-04
quench:  g(F)=  0.000E+00 g(S)=  0.000E+00 dE (1.order)= 0.000E+00
 bond charge predicted
       N       E                     dE             d eps       ncg     rms          rms(c)
DAV:   1    -0.134181231355E+03   -0.22006E-04   -0.30689E-03  5238   0.135E-01    0.200E-02
RMM:   2    -0.134181276467E+03   -0.45112E-04   -0.17050E-04  3737   0.366E-02    0.349E-02
RMM:   3    -0.134181242106E+03    0.34361E-04   -0.25448E-05  2367   0.221E-02    0.118E-02
RMM:   4    -0.134181241584E+03    0.52198E-06   -0.81921E-06  2187   0.143E-02
  61 F= -.13418124E+03 E0= -.13417881E+03  d E =-.378159E-04
quench:  g(F)=  0.000E+00 g(S)=  0.000E+00 dE (1.order)= 0.000E+00
 bond charge predicted
       N       E                     dE             d eps       ncg     rms          rms(c)
DAV:   1    -0.134181275992E+03   -0.33886E-04   -0.23300E-03  4599   0.921E-02    0.154E-02
RMM:   2    -0.134181283368E+03   -0.73766E-05   -0.91779E-05  3083   0.232E-02
  62 F= -.13418128E+03 E0= -.13417885E+03  d E =-.417842E-04
quench:  g(F)=  0.000E+00 g(S)=  0.000E+00 dE (1.order)= 0.000E+00
 bond charge predicted
       N       E                     dE             d eps       ncg     rms          rms(c)
DAV:   1    -0.134181314113E+03   -0.38122E-04   -0.38271E-03  4941   0.129E-01    0.212E-02
RMM:   2    -0.134181328138E+03   -0.14025E-04   -0.16136E-04  3523   0.303E-02    0.171E-02
RMM:   3    -0.134181326257E+03    0.18816E-05   -0.18740E-05  2293   0.192E-02
  63 F= -.13418133E+03 E0= -.13417889E+03  d E =-.428883E-04
quench:  g(F)=  0.000E+00 g(S)=  0.000E+00 dE (1.order)= 0.000E+00
 bond charge predicted
       N       E                     dE             d eps       ncg     rms          rms(c)
DAV:   1    -0.134181350396E+03   -0.22258E-04   -0.42353E-03  5229   0.162E-01    0.239E-02
RMM:   2    -0.134181378863E+03   -0.28466E-04   -0.25227E-04  4019   0.372E-02    0.256E-02
RMM:   3    -0.134181367999E+03    0.10864E-04   -0.25889E-05  2409   0.211E-02    0.188E-02
RMM:   4    -0.134181363806E+03    0.41930E-05   -0.10540E-05  2199   0.169E-02
  64 F= -.13418136E+03 E0= -.13417893E+03  d E =-.375488E-04
quench:  g(F)=  0.000E+00 g(S)=  0.000E+00 dE (1.order)= 0.000E+00
 bond charge predicted
       N       E                     dE             d eps       ncg     rms          rms(c)
DAV:   1    -0.134181391612E+03   -0.23614E-04   -0.25872E-03  5013   0.106E-01    0.164E-02
RMM:   2    -0.134181402860E+03   -0.11248E-04   -0.10791E-04  3052   0.255E-02    0.143E-02
RMM:   3    -0.134181401203E+03    0.16569E-05   -0.17139E-05  2258   0.196E-02
  65 F= -.13418140E+03 E0= -.13417897E+03  d E =-.373975E-04
quench:  g(F)=  0.000E+00 g(S)=  0.000E+00 dE (1.order)= 0.000E+00
 bond charge predicted
       N       E                     dE             d eps       ncg     rms          rms(c)
DAV:   1    -0.134181434649E+03   -0.31789E-04   -0.27729E-03  5292   0.129E-01    0.180E-02
RMM:   2    -0.134181449920E+03   -0.15271E-04   -0.12481E-04  3281   0.292E-02    0.201E-02
RMM:   3    -0.134181444667E+03    0.52523E-05   -0.19879E-05  2298   0.200E-02
  66 F= -.13418144E+03 E0= -.13417901E+03  d E =-.434644E-04
quench:  g(F)=  0.000E+00 g(S)=  0.000E+00 dE (1.order)= 0.000E+00
 bond charge predicted
       N       E                     dE             d eps       ncg     rms          rms(c)
DAV:   1    -0.134181474191E+03   -0.24272E-04   -0.45600E-03  5067   0.146E-01    0.218E-02
RMM:   2    -0.134181490242E+03   -0.16051E-04   -0.19388E-04  3681   0.308E-02    0.159E-02
RMM:   3    -0.134181487883E+03    0.23587E-05   -0.20134E-05  2291   0.203E-02
  67 F= -.13418149E+03 E0= -.13417906E+03  d E =-.432158E-04
quench:  g(F)=  0.000E+00 g(S)=  0.000E+00 dE (1.order)= 0.000E+00
 bond charge predicted
       N       E                     dE             d eps       ncg     rms          rms(c)
DAV:   1    -0.134181514383E+03   -0.24141E-04   -0.40679E-03  5391   0.150E-01    0.225E-02
RMM:   2    -0.134181539166E+03   -0.24783E-04   -0.21580E-04  3684   0.337E-02    0.246E-02
RMM:   3    -0.134181530043E+03    0.91227E-05   -0.22654E-05  2359   0.199E-02
  68 F= -.13418153E+03 E0= -.13417909E+03  d E =-.421596E-04
quench:  g(F)=  0.000E+00 g(S)=  0.000E+00 dE (1.order)= 0.000E+00
 bond charge predicted
       N       E                     dE             d eps       ncg     rms          rms(c)
DAV:   1    -0.134181550754E+03   -0.11588E-04   -0.23220E-03  5301   0.128E-01    0.152E-02
RMM:   2    -0.134181561505E+03   -0.10752E-04   -0.12138E-04  3168   0.229E-02    0.993E-03
RMM:   3    -0.134181559997E+03    0.15083E-05   -0.86953E-06  2182   0.135E-02
  69 F= -.13418156E+03 E0= -.13417912E+03  d E =-.299543E-04
quench:  g(F)=  0.000E+00 g(S)=  0.000E+00 dE (1.order)= 0.000E+00
 bond charge predicted
       N       E                     dE             d eps       ncg     rms          rms(c)
DAV:   1    -0.134181594194E+03   -0.32688E-04   -0.25544E-03  5076   0.108E-01    0.171E-02
RMM:   2    -0.134181608176E+03   -0.13983E-04   -0.10834E-04  3208   0.266E-02    0.196E-02
RMM:   3    -0.134181602091E+03    0.60850E-05   -0.17134E-05  2284   0.191E-02
  70 F= -.13418160E+03 E0= -.13417917E+03  d E =-.420940E-04
quench:  g(F)=  0.000E+00 g(S)=  0.000E+00 dE (1.order)= 0.000E+00
 bond charge predicted
       N       E                     dE             d eps       ncg     rms          rms(c)
DAV:   1    -0.134181631985E+03   -0.23809E-04   -0.42969E-03  4716   0.132E-01    0.205E-02
RMM:   2    -0.134181646416E+03   -0.14431E-04   -0.17890E-04  3660   0.277E-02    0.134E-02
RMM:   3    -0.134181645482E+03    0.93462E-06   -0.14400E-05  2272   0.172E-02
  71 F= -.13418165E+03 E0= -.13417921E+03  d E =-.433905E-04
quench:  g(F)=  0.000E+00 g(S)=  0.000E+00 dE (1.order)= 0.000E+00
 bond charge predicted
       N       E                     dE             d eps       ncg     rms          rms(c)
DAV:   1    -0.134181672011E+03   -0.25594E-04   -0.40893E-03  5157   0.150E-01    0.225E-02
RMM:   2    -0.134181701350E+03   -0.29340E-04   -0.20965E-04  3778   0.328E-02    0.261E-02
RMM:   3    -0.134181686233E+03    0.15118E-04   -0.24135E-05  2380   0.204E-02    0.168E-02
RMM:   4    -0.134181683016E+03    0.32164E-05   -0.10439E-05  2187   0.167E-02
  72 F= -.13418168E+03 E0= -.13417925E+03  d E =-.375346E-04
quench:  g(F)=  0.000E+00 g(S)=  0.000E+00 dE (1.order)= 0.000E+00
 bond charge predicted
       N       E                     dE             d eps       ncg     rms          rms(c)
DAV:   1    -0.134181711781E+03   -0.25548E-04   -0.25506E-03  4275   0.914E-02    0.161E-02
RMM:   2    -0.134181719726E+03   -0.79450E-05   -0.10290E-04  3077   0.229E-02    0.121E-02
RMM:   3    -0.134181718814E+03    0.91217E-06   -0.13440E-05  2213   0.173E-02
  73 F= -.13418172E+03 E0= -.13417928E+03  d E =-.357978E-04
quench:  g(F)=  0.000E+00 g(S)=  0.000E+00 dE (1.order)= 0.000E+00
 bond charge predicted
       N       E                     dE             d eps       ncg     rms          rms(c)
DAV:   1    -0.134181752062E+03   -0.32335E-04   -0.26710E-03  5283   0.119E-01    0.174E-02
RMM:   2    -0.134181768716E+03   -0.16654E-04   -0.11374E-04  3241   0.283E-02    0.205E-02
RMM:   3    -0.134181760519E+03    0.81965E-05   -0.19436E-05  2296   0.199E-02
  74 F= -.13418176E+03 E0= -.13417932E+03  d E =-.417053E-04
quench:  g(F)=  0.000E+00 g(S)=  0.000E+00 dE (1.order)= 0.000E+00
 bond charge predicted
       N       E                     dE             d eps       ncg     rms          rms(c)
DAV:   1    -0.134181789658E+03   -0.20943E-04   -0.41537E-03  4500   0.124E-01    0.210E-02
RMM:   2    -0.134181803677E+03   -0.14018E-04   -0.17529E-04  3618   0.289E-02    0.145E-02
RMM:   3    -0.134181802849E+03    0.82812E-06   -0.16586E-05  2265   0.192E-02
  75 F= -.13418180E+03 E0= -.13417937E+03  d E =-.423294E-04
quench:  g(F)=  0.000E+00 g(S)=  0.000E+00 dE (1.order)= 0.000E+00
 bond charge predicted
       N       E                     dE             d eps       ncg     rms          rms(c)
DAV:   1    -0.134181826804E+03   -0.23127E-04   -0.36228E-03  5418   0.157E-01    0.217E-02
RMM:   2    -0.134181855809E+03   -0.29005E-04   -0.19969E-04  3653   0.326E-02    0.272E-02
RMM:   3    -0.134181840152E+03    0.15657E-04   -0.23684E-05  2385   0.200E-02    0.161E-02
RMM:   4    -0.134181837122E+03    0.30294E-05   -0.10121E-05  2184   0.167E-02
  76 F= -.13418184E+03 E0= -.13417940E+03  d E =-.342735E-04
quench:  g(F)=  0.000E+00 g(S)=  0.000E+00 dE (1.order)= 0.000E+00
 bond charge predicted
       N       E                     dE             d eps       ncg     rms          rms(c)
DAV:   1    -0.134181864853E+03   -0.24701E-04   -0.22543E-03  4293   0.861E-02    0.152E-02
RMM:   2    -0.134181872244E+03   -0.73906E-05   -0.92139E-05  2914   0.227E-02
  77 F= -.13418187E+03 E0= -.13417943E+03  d E =-.351212E-04
quench:  g(F)=  0.000E+00 g(S)=  0.000E+00 dE (1.order)= 0.000E+00
 bond charge predicted
       N       E                     dE             d eps       ncg     rms          rms(c)
DAV:   1    -0.134181898713E+03   -0.33860E-04   -0.23274E-03  5121   0.108E-01    0.183E-02
RMM:   2    -0.134181908330E+03   -0.96165E-05   -0.11428E-04  3184   0.274E-02    0.155E-02
RMM:   3    -0.134181905972E+03    0.23574E-05   -0.17465E-05  2263   0.189E-02
  78 F= -.13418191E+03 E0= -.13417947E+03  d E =-.337289E-04
quench:  g(F)=  0.000E+00 g(S)=  0.000E+00 dE (1.order)= 0.000E+00
 bond charge predicted
       N       E                     dE             d eps       ncg     rms          rms(c)
DAV:   1    -0.134181930952E+03   -0.22622E-04   -0.33609E-03  5121   0.138E-01    0.199E-02
RMM:   2    -0.134181950653E+03   -0.19701E-04   -0.15895E-04  3432   0.317E-02    0.231E-02
RMM:   3    -0.134181942004E+03    0.86497E-05   -0.21117E-05  2302   0.208E-02
  79 F= -.13418194E+03 E0= -.13417950E+03  d E =-.360312E-04
quench:  g(F)=  0.000E+00 g(S)=  0.000E+00 dE (1.order)= 0.000E+00
 bond charge predicted
       N       E                     dE             d eps       ncg     rms          rms(c)
DAV:   1    -0.134181966144E+03   -0.15491E-04   -0.27886E-03  5220   0.114E-01    0.190E-02
RMM:   2    -0.134181978413E+03   -0.12268E-04   -0.15546E-04  3368   0.249E-02    0.134E-02
RMM:   3    -0.134181975995E+03    0.24177E-05   -0.14101E-05  2223   0.171E-02
  80 F= -.13418198E+03 E0= -.13417954E+03  d E =-.339915E-04
quench:  g(F)=  0.000E+00 g(S)=  0.000E+00 dE (1.order)= 0.000E+00
 bond charge predicted
       N       E                     dE             d eps       ncg     rms          rms(c)
DAV:   1    -0.134182002677E+03   -0.24265E-04   -0.25952E-03  5130   0.114E-01    0.164E-02
RMM:   2    -0.134182013848E+03   -0.11170E-04   -0.10646E-04  3061   0.251E-02    0.145E-02
RMM:   3    -0.134182012431E+03    0.14172E-05   -0.15933E-05  2282   0.180E-02
  81 F= -.13418201E+03 E0= -.13417957E+03  d E =-.364356E-04
quench:  g(F)=  0.000E+00 g(S)=  0.000E+00 dE (1.order)= 0.000E+00
 bond charge predicted
       N       E                     dE             d eps       ncg     rms          rms(c)
DAV:   1    -0.134182040000E+03   -0.26153E-04   -0.29414E-03  5166   0.123E-01    0.194E-02
RMM:   2    -0.134182051846E+03   -0.11845E-04   -0.14632E-04  3372   0.272E-02    0.158E-02
RMM:   3    -0.134182049583E+03    0.22631E-05   -0.20305E-05  2266   0.211E-02
  82 F= -.13418205E+03 E0= -.13417961E+03  d E =-.371518E-04
quench:  g(F)=  0.000E+00 g(S)=  0.000E+00 dE (1.order)= 0.000E+00
 bond charge predicted
       N       E                     dE             d eps       ncg     rms          rms(c)
DAV:   1    -0.134182075852E+03   -0.24007E-04   -0.34249E-03  4923   0.130E-01    0.193E-02
RMM:   2    -0.134182094097E+03   -0.18245E-04   -0.15006E-04  3389   0.288E-02    0.200E-02
RMM:   3    -0.134182087590E+03    0.65076E-05   -0.18308E-05  2304   0.188E-02
  83 F= -.13418209E+03 E0= -.13417965E+03  d E =-.380071E-04
quench:  g(F)=  0.000E+00 g(S)=  0.000E+00 dE (1.order)= 0.000E+00
 bond charge predicted
       N       E                     dE             d eps       ncg     rms          rms(c)
DAV:   1    -0.134182112465E+03   -0.18368E-04   -0.29727E-03  5211   0.120E-01    0.196E-02
RMM:   2    -0.134182125474E+03   -0.13009E-04   -0.16291E-04  3416   0.248E-02    0.141E-02
RMM:   3    -0.134182122427E+03    0.30475E-05   -0.13578E-05  2212   0.165E-02
  84 F= -.13418212E+03 E0= -.13417968E+03  d E =-.348369E-04
quench:  g(F)=  0.000E+00 g(S)=  0.000E+00 dE (1.order)= 0.000E+00
 bond charge predicted
       N       E                     dE             d eps       ncg     rms          rms(c)
DAV:   1    -0.134182149428E+03   -0.23954E-04   -0.28304E-03  5094   0.115E-01    0.174E-02
RMM:   2    -0.134182162938E+03   -0.13510E-04   -0.11878E-04  3127   0.276E-02    0.166E-02
RMM:   3    -0.134182159500E+03    0.34380E-05   -0.17703E-05  2282   0.191E-02
  85 F= -.13418216E+03 E0= -.13417972E+03  d E =-.370738E-04
quench:  g(F)=  0.000E+00 g(S)=  0.000E+00 dE (1.order)= 0.000E+00
 bond charge predicted
       N       E                     dE             d eps       ncg     rms          rms(c)
DAV:   1    -0.134182186699E+03   -0.23760E-04   -0.30417E-03  5139   0.126E-01    0.198E-02
RMM:   2    -0.134182199540E+03   -0.12841E-04   -0.15457E-04  3369   0.291E-02    0.167E-02
RMM:   3    -0.134182197551E+03    0.19892E-05   -0.21120E-05  2299   0.213E-02
  86 F= -.13418220E+03 E0= -.13417976E+03  d E =-.380502E-04
quench:  g(F)=  0.000E+00 g(S)=  0.000E+00 dE (1.order)= 0.000E+00
 bond charge predicted
       N       E                     dE             d eps       ncg     rms          rms(c)
DAV:   1    -0.134182222010E+03   -0.22470E-04   -0.34035E-03  5067   0.135E-01    0.195E-02
RMM:   2    -0.134182241015E+03   -0.19005E-04   -0.15918E-04  3409   0.305E-02    0.191E-02
RMM:   3    -0.134182235428E+03    0.55867E-05   -0.19175E-05  2298   0.193E-02
  87 F= -.13418224E+03 E0= -.13417980E+03  d E =-.378776E-04
quench:  g(F)=  0.000E+00 g(S)=  0.000E+00 dE (1.order)= 0.000E+00
 bond charge predicted
       N       E                     dE             d eps       ncg     rms          rms(c)
DAV:   1    -0.134182260863E+03   -0.19848E-04   -0.29133E-03  5175   0.126E-01    0.195E-02
RMM:   2    -0.134182273850E+03   -0.12987E-04   -0.16117E-04  3361   0.276E-02    0.151E-02
RMM:   3    -0.134182271317E+03    0.25333E-05   -0.18428E-05  2209   0.201E-02
  88 F= -.13418227E+03 E0= -.13417984E+03  d E =-.358885E-04
quench:  g(F)=  0.000E+00 g(S)=  0.000E+00 dE (1.order)= 0.000E+00
 bond charge predicted
       N       E                     dE             d eps       ncg     rms          rms(c)
DAV:   1    -0.134182297538E+03   -0.23688E-04   -0.28698E-03  4770   0.114E-01    0.175E-02
RMM:   2    -0.134182310311E+03   -0.12774E-04   -0.12337E-04  3185   0.268E-02    0.156E-02
RMM:   3    -0.134182309327E+03    0.98469E-06   -0.17207E-05  2284   0.187E-02
  89 F= -.13418231E+03 E0= -.13417987E+03  d E =-.380099E-04
quench:  g(F)=  0.000E+00 g(S)=  0.000E+00 dE (1.order)= 0.000E+00
 bond charge predicted
       N       E                     dE             d eps       ncg     rms          rms(c)
DAV:   1    -0.134182334185E+03   -0.23873E-04   -0.29790E-03  5175   0.127E-01    0.187E-02
RMM:   2    -0.134182346484E+03   -0.12299E-04   -0.15367E-04  3371   0.247E-02    0.127E-02
RMM:   3    -0.134182344206E+03    0.22776E-05   -0.11493E-05  2246   0.151E-02
  90 F= -.13418234E+03 E0= -.13417990E+03  d E =-.348799E-04
quench:  g(F)=  0.000E+00 g(S)=  0.000E+00 dE (1.order)= 0.000E+00
 bond charge predicted
       N       E                     dE             d eps       ncg     rms          rms(c)
DAV:   1    -0.134182371619E+03   -0.25135E-04   -0.32292E-03  5148   0.131E-01    0.187E-02
RMM:   2    -0.134182390830E+03   -0.19211E-04   -0.14018E-04  3277   0.302E-02    0.204E-02
RMM:   3    -0.134182382466E+03    0.83644E-05   -0.19544E-05  2302   0.199E-02
  91 F= -.13418238E+03 E0= -.13417994E+03  d E =-.382592E-04
quench:  g(F)=  0.000E+00 g(S)=  0.000E+00 dE (1.order)= 0.000E+00
 bond charge predicted
       N       E                     dE             d eps       ncg     rms          rms(c)
DAV:   1    -0.134182406581E+03   -0.15751E-04   -0.28284E-03  5121   0.116E-01    0.189E-02
RMM:   2    -0.134182418737E+03   -0.12156E-04   -0.15092E-04  3321   0.275E-02    0.149E-02
RMM:   3    -0.134182416141E+03    0.25961E-05   -0.18159E-05  2231   0.201E-02
  92 F= -.13418242E+03 E0= -.13417998E+03  d E =-.336748E-04
quench:  g(F)=  0.000E+00 g(S)=  0.000E+00 dE (1.order)= 0.000E+00
 bond charge predicted
       N       E                     dE             d eps       ncg     rms          rms(c)
DAV:   1    -0.134182440424E+03   -0.21687E-04   -0.26762E-03  5013   0.110E-01    0.165E-02
RMM:   2    -0.134182450492E+03   -0.10068E-04   -0.11295E-04  3082   0.234E-02    0.120E-02
RMM:   3    -0.134182452376E+03   -0.18839E-05   -0.15062E-05  2285   0.177E-02
  93 F= -.13418245E+03 E0= -.13418001E+03  d E =-.362356E-04
quench:  g(F)=  0.000E+00 g(S)=  0.000E+00 dE (1.order)= 0.000E+00
 bond charge predicted
       N       E                     dE             d eps       ncg     rms          rms(c)
DAV:   1    -0.134182476282E+03   -0.25790E-04   -0.27236E-03  5211   0.130E-01    0.182E-02
RMM:   2    -0.134182487238E+03   -0.10956E-04   -0.13545E-04  3318   0.245E-02    0.135E-02
RMM:   3    -0.134182486499E+03    0.73959E-06   -0.16023E-05  2280   0.186E-02
  94 F= -.13418249E+03 E0= -.13418004E+03  d E =-.341225E-04
quench:  g(F)=  0.000E+00 g(S)=  0.000E+00 dE (1.order)= 0.000E+00
 bond charge predicted
       N       E                     dE             d eps       ncg     rms          rms(c)
DAV:   1    -0.134182511897E+03   -0.24659E-04   -0.30323E-03  5022   0.129E-01    0.182E-02
RMM:   2    -0.134182526544E+03   -0.14647E-04   -0.12706E-04  3246   0.274E-02    0.175E-02
RMM:   3    -0.134182522771E+03    0.37734E-05   -0.17617E-05  2289   0.188E-02
  95 F= -.13418252E+03 E0= -.13418008E+03  d E =-.362721E-04
quench:  g(F)=  0.000E+00 g(S)=  0.000E+00 dE (1.order)= 0.000E+00
 bond charge predicted
       N       E                     dE             d eps       ncg     rms          rms(c)
DAV:   1    -0.134182547764E+03   -0.21220E-04   -0.29742E-03  5175   0.117E-01    0.195E-02
RMM:   2    -0.134182559828E+03   -0.12064E-04   -0.15446E-04  3368   0.247E-02    0.140E-02
RMM:   3    -0.134182557823E+03    0.20051E-05   -0.15322E-05  2246   0.185E-02
  96 F= -.13418256E+03 E0= -.13418011E+03  d E =-.350524E-04
quench:  g(F)=  0.000E+00 g(S)=  0.000E+00 dE (1.order)= 0.000E+00
 bond charge predicted
       N       E                     dE             d eps       ncg     rms          rms(c)
DAV:   1    -0.134182583140E+03   -0.23312E-04   -0.28568E-03  5310   0.137E-01    0.181E-02
RMM:   2    -0.134182606101E+03   -0.22961E-04   -0.13115E-04  3247   0.305E-02    0.242E-02
RMM:   3    -0.134182591937E+03    0.14164E-04   -0.20364E-05  2294   0.203E-02    0.124E-02
RMM:   4    -0.134182590766E+03    0.11715E-05   -0.66360E-06  2163   0.133E-02
  97 F= -.13418259E+03 E0= -.13418015E+03  d E =-.329428E-04
quench:  g(F)=  0.000E+00 g(S)=  0.000E+00 dE (1.order)= 0.000E+00
 bond charge predicted
       N       E                     dE             d eps       ncg     rms          rms(c)
DAV:   1    -0.134182621565E+03   -0.29628E-04   -0.28583E-03  4392   0.921E-02    0.181E-02
RMM:   2    -0.134182630902E+03   -0.93375E-05   -0.12210E-04  3255   0.237E-02    0.128E-02
RMM:   3    -0.134182629700E+03    0.12028E-05   -0.13807E-05  2232   0.170E-02
  98 F= -.13418263E+03 E0= -.13418019E+03  d E =-.389338E-04
quench:  g(F)=  0.000E+00 g(S)=  0.000E+00 dE (1.order)= 0.000E+00
 bond charge predicted
       N       E                     dE             d eps       ncg     rms          rms(c)
DAV:   1    -0.134182656549E+03   -0.25646E-04   -0.31951E-03  5247   0.132E-01    0.184E-02
RMM:   2    -0.134182674568E+03   -0.18020E-04   -0.13292E-04  3253   0.286E-02    0.202E-02
RMM:   3    -0.134182666896E+03    0.76723E-05   -0.18802E-05  2291   0.197E-02
  99 F= -.13418267E+03 E0= -.13418022E+03  d E =-.371964E-04
quench:  g(F)=  0.000E+00 g(S)=  0.000E+00 dE (1.order)= 0.000E+00
 bond charge predicted
       N       E                     dE             d eps       ncg     rms          rms(c)
DAV:   1    -0.134182690192E+03   -0.15624E-04   -0.31212E-03  4887   0.110E-01    0.193E-02
RMM:   2    -0.134182703293E+03   -0.13100E-04   -0.15982E-04  3390   0.241E-02    0.141E-02
RMM:   3    -0.134182702417E+03    0.87509E-06   -0.13085E-05  2299   0.166E-02
 100 F= -.13418270E+03 E0= -.13418026E+03  d E =-.355215E-04
quench:  g(F)=  0.000E+00 g(S)=  0.000E+00 dE (1.order)= 0.000E+00
 bond charge predicted
       N       E                     dE             d eps       ncg     rms          rms(c)
DAV:   1    -0.134182725625E+03   -0.22333E-04   -0.26156E-03  5256   0.143E-01    0.173E-02
RMM:   2    -0.134182742844E+03   -0.17219E-04   -0.12160E-04  3230   0.268E-02    0.217E-02
RMM:   3    -0.134182733704E+03    0.91405E-05   -0.19195E-05  2301   0.196E-02
 101 F= -.13418273E+03 E0= -.13418029E+03  d E =-.312863E-04
quench:  g(F)=  0.000E+00 g(S)=  0.000E+00 dE (1.order)= 0.000E+00
 bond charge predicted
       N       E                     dE             d eps       ncg     rms          rms(c)
DAV:   1    -0.134182760582E+03   -0.17738E-04   -0.25339E-03  4941   0.983E-02    0.182E-02
RMM:   2    -0.134182770912E+03   -0.10330E-04   -0.12247E-04  3227   0.215E-02    0.130E-02
RMM:   3    -0.134182770923E+03   -0.10878E-07   -0.11317E-05  2275   0.154E-02
 102 F= -.13418277E+03 E0= -.13418033E+03  d E =-.372192E-04
quench:  g(F)=  0.000E+00 g(S)=  0.000E+00 dE (1.order)= 0.000E+00
 bond charge predicted
       N       E                     dE             d eps       ncg     rms          rms(c)
DAV:   1    -0.134182795344E+03   -0.24431E-04   -0.32068E-03  5157   0.141E-01    0.188E-02
RMM:   2    -0.134182813002E+03   -0.17659E-04   -0.14067E-04  3329   0.287E-02    0.188E-02
RMM:   3    -0.134182807419E+03    0.55834E-05   -0.19452E-05  2298   0.196E-02
 103 F= -.13418281E+03 E0= -.13418036E+03  d E =-.364961E-04
quench:  g(F)=  0.000E+00 g(S)=  0.000E+00 dE (1.order)= 0.000E+00
 bond charge predicted
       N       E                     dE             d eps       ncg     rms          rms(c)
DAV:   1    -0.134182831169E+03   -0.18167E-04   -0.30654E-03  5094   0.115E-01    0.195E-02
RMM:   2    -0.134182843871E+03   -0.12702E-04   -0.15596E-04  3350   0.247E-02    0.142E-02
RMM:   3    -0.134182842803E+03    0.10678E-05   -0.15038E-05  2291   0.185E-02
 104 F= -.13418284E+03 E0= -.13418040E+03  d E =-.353837E-04
quench:  g(F)=  0.000E+00 g(S)=  0.000E+00 dE (1.order)= 0.000E+00
 bond charge predicted
       N       E                     dE             d eps       ncg     rms          rms(c)
DAV:   1    -0.134182867061E+03   -0.23190E-04   -0.27195E-03  5256   0.143E-01    0.180E-02
RMM:   2    -0.134182886326E+03   -0.19265E-04   -0.12624E-04  3245   0.284E-02    0.238E-02
RMM:   3    -0.134182874933E+03    0.11393E-04   -0.20765E-05  2309   0.201E-02    0.122E-02
RMM:   4    -0.134182873751E+03    0.11817E-05   -0.71483E-06  2169   0.143E-02
 105 F= -.13418287E+03 E0= -.13418043E+03  d E =-.309483E-04
quench:  g(F)=  0.000E+00 g(S)=  0.000E+00 dE (1.order)= 0.000E+00
 bond charge predicted
       N       E                     dE             d eps       ncg     rms          rms(c)
DAV:   1    -0.134182907226E+03   -0.32294E-04   -0.28567E-03  4347   0.914E-02    0.184E-02
RMM:   2    -0.134182915951E+03   -0.87249E-05   -0.11438E-04  3239   0.229E-02    0.124E-02
RMM:   3    -0.134182914806E+03    0.11455E-05   -0.12626E-05  2216   0.163E-02
 106 F= -.13418291E+03 E0= -.13418047E+03  d E =-.410547E-04
quench:  g(F)=  0.000E+00 g(S)=  0.000E+00 dE (1.order)= 0.000E+00
 bond charge predicted
       N       E                     dE             d eps       ncg     rms          rms(c)
DAV:   1    -0.134182944382E+03   -0.28431E-04   -0.35868E-03  4887   0.123E-01    0.195E-02
RMM:   2    -0.134182958073E+03   -0.13691E-04   -0.13706E-04  3291   0.279E-02    0.167E-02
RMM:   3    -0.134182957173E+03    0.90027E-06   -0.18795E-05  2300   0.197E-02
 107 F= -.13418296E+03 E0= -.13418051E+03  d E =-.423673E-04
quench:  g(F)=  0.000E+00 g(S)=  0.000E+00 dE (1.order)= 0.000E+00
 bond charge predicted
       N       E                     dE             d eps       ncg     rms          rms(c)
DAV:   1    -0.134182978914E+03   -0.20840E-04   -0.33968E-03  5265   0.141E-01    0.203E-02
RMM:   2    -0.134182993273E+03   -0.14359E-04   -0.17747E-04  3467   0.278E-02    0.144E-02
RMM:   3    -0.134182991861E+03    0.14120E-05   -0.16361E-05  2293   0.177E-02
 108 F= -.13418299E+03 E0= -.13418055E+03  d E =-.346876E-04
quench:  g(F)=  0.000E+00 g(S)=  0.000E+00 dE (1.order)= 0.000E+00
 bond charge predicted
       N       E                     dE             d eps       ncg     rms          rms(c)
DAV:   1    -0.134183014631E+03   -0.21358E-04   -0.25322E-03  5220   0.134E-01    0.173E-02
RMM:   2    -0.134183033286E+03   -0.18655E-04   -0.12168E-04  3168   0.296E-02    0.215E-02
RMM:   3    -0.134183023987E+03    0.92988E-05   -0.19176E-05  2290   0.197E-02
 109 F= -.13418302E+03 E0= -.13418058E+03  d E =-.321265E-04
quench:  g(F)=  0.000E+00 g(S)=  0.000E+00 dE (1.order)= 0.000E+00
 bond charge predicted
       N       E                     dE             d eps       ncg     rms          rms(c)
DAV:   1    -0.134183051195E+03   -0.17910E-04   -0.24077E-03  4923   0.102E-01    0.176E-02
RMM:   2    -0.134183059816E+03   -0.86208E-05   -0.11248E-04  3127   0.229E-02    0.124E-02
RMM:   3    -0.134183059049E+03    0.76741E-06   -0.13336E-05  2239   0.175E-02
 110 F= -.13418306E+03 E0= -.13418062E+03  d E =-.350618E-04
quench:  g(F)=  0.000E+00 g(S)=  0.000E+00 dE (1.order)= 0.000E+00
 bond charge predicted
       N       E                     dE             d eps       ncg     rms          rms(c)
DAV:   1    -0.134183087771E+03   -0.27955E-04   -0.33656E-03  5067   0.132E-01    0.194E-02
RMM:   2    -0.134183106994E+03   -0.19222E-04   -0.14050E-04  3312   0.298E-02    0.227E-02
RMM:   3    -0.134183097035E+03    0.99586E-05   -0.20939E-05  2312   0.204E-02
 111 F= -.13418310E+03 E0= -.13418065E+03  d E =-.379860E-04
quench:  g(F)=  0.000E+00 g(S)=  0.000E+00 dE (1.order)= 0.000E+00
 bond charge predicted
       N       E                     dE             d eps       ncg     rms          rms(c)
DAV:   1    -0.134183121833E+03   -0.14840E-04   -0.33204E-03  4905   0.110E-01    0.205E-02
RMM:   2    -0.134183135664E+03   -0.13831E-04   -0.16887E-04  3443   0.249E-02    0.145E-02
RMM:   3    -0.134183134765E+03    0.89922E-06   -0.14011E-05  2295   0.169E-02
 112 F= -.13418313E+03 E0= -.13418069E+03  d E =-.377299E-04
quench:  g(F)=  0.000E+00 g(S)=  0.000E+00 dE (1.order)= 0.000E+00
 bond charge predicted
       N       E                     dE             d eps       ncg     rms          rms(c)
DAV:   1    -0.134183157823E+03   -0.22159E-04   -0.26496E-03  5220   0.145E-01    0.177E-02
RMM:   2    -0.134183180098E+03   -0.22275E-04   -0.12785E-04  3232   0.295E-02    0.236E-02
RMM:   3    -0.134183167090E+03    0.13008E-04   -0.20873E-05  2299   0.203E-02    0.123E-02
RMM:   4    -0.134183165903E+03    0.11869E-05   -0.68376E-06  2164   0.138E-02
 113 F= -.13418317E+03 E0= -.13418072E+03  d E =-.311380E-04
quench:  g(F)=  0.000E+00 g(S)=  0.000E+00 dE (1.order)= 0.000E+00
 bond charge predicted
       N       E                     dE             d eps       ncg     rms          rms(c)
DAV:   1    -0.134183198709E+03   -0.31619E-04   -0.26026E-03  4347   0.861E-02    0.174E-02
RMM:   2    -0.134183206284E+03   -0.75752E-05   -0.10306E-04  3082   0.222E-02    0.120E-02
RMM:   3    -0.134183205153E+03    0.11309E-05   -0.12656E-05  2185   0.167E-02
 114 F= -.13418321E+03 E0= -.13418076E+03  d E =-.392504E-04
quench:  g(F)=  0.000E+00 g(S)=  0.000E+00 dE (1.order)= 0.000E+00
 bond charge predicted
       N       E                     dE             d eps       ncg     rms          rms(c)
DAV:   1    -0.134183236774E+03   -0.30489E-04   -0.36852E-03  4815   0.122E-01    0.194E-02
RMM:   2    -0.134183248372E+03   -0.11598E-04   -0.13568E-04  3292   0.262E-02    0.134E-02
RMM:   3    -0.134183250466E+03   -0.20946E-05   -0.17121E-05  2292   0.190E-02
 115 F= -.13418325E+03 E0= -.13418081E+03  d E =-.453131E-04
quench:  g(F)=  0.000E+00 g(S)=  0.000E+00 dE (1.order)= 0.000E+00
 bond charge predicted
       N       E                     dE             d eps       ncg     rms          rms(c)
DAV:   1    -0.134183272938E+03   -0.24567E-04   -0.38051E-03  5247   0.156E-01    0.220E-02
RMM:   2    -0.134183291014E+03   -0.18075E-04   -0.19602E-04  3576   0.314E-02    0.191E-02
RMM:   3    -0.134183288867E+03    0.21463E-05   -0.21925E-05  2357   0.201E-02
 116 F= -.13418329E+03 E0= -.13418085E+03  d E =-.384010E-04
quench:  g(F)=  0.000E+00 g(S)=  0.000E+00 dE (1.order)= 0.000E+00
 bond charge predicted
       N       E                     dE             d eps       ncg     rms          rms(c)
DAV:   1    -0.134183307569E+03   -0.16556E-04   -0.26573E-03  5283   0.142E-01    0.174E-02
RMM:   2    -0.134183320893E+03   -0.13324E-04   -0.13162E-04  3217   0.278E-02    0.147E-02
RMM:   3    -0.134183319583E+03    0.13103E-05   -0.17659E-05  2282   0.193E-02
 117 F= -.13418332E+03 E0= -.13418087E+03  d E =-.307155E-04
quench:  g(F)=  0.000E+00 g(S)=  0.000E+00 dE (1.order)= 0.000E+00
 bond charge predicted
       N       E                     dE             d eps       ncg     rms          rms(c)
DAV:   1    -0.134183344536E+03   -0.23642E-04   -0.22312E-03  5220   0.121E-01    0.177E-02
RMM:   2    -0.134183355297E+03   -0.10761E-04   -0.11015E-04  3122   0.261E-02    0.168E-02
RMM:   3    -0.134183353617E+03    0.16799E-05   -0.18344E-05  2277   0.200E-02
 118 F= -.13418335E+03 E0= -.13418091E+03  d E =-.340341E-04
quench:  g(F)=  0.000E+00 g(S)=  0.000E+00 dE (1.order)= 0.000E+00
 bond charge predicted
       N       E                     dE             d eps       ncg     rms          rms(c)
DAV:   1    -0.134183376943E+03   -0.21646E-04   -0.32276E-03  5094   0.132E-01    0.191E-02
RMM:   2    -0.134183389841E+03   -0.12899E-04   -0.13975E-04  3290   0.282E-02    0.150E-02
RMM:   3    -0.134183389379E+03    0.46223E-06   -0.19608E-05  2289   0.204E-02
 119 F= -.13418339E+03 E0= -.13418095E+03  d E =-.357622E-04
quench:  g(F)=  0.000E+00 g(S)=  0.000E+00 dE (1.order)= 0.000E+00
 bond charge predicted
       N       E                     dE             d eps       ncg     rms          rms(c)
DAV:   1    -0.134183413187E+03   -0.23345E-04   -0.33138E-03  5247   0.144E-01    0.212E-02
RMM:   2    -0.134183431674E+03   -0.18487E-04   -0.17581E-04  3499   0.319E-02    0.214E-02
RMM:   3    -0.134183426811E+03    0.48626E-05   -0.22436E-05  2335   0.209E-02
 120 F= -.13418343E+03 E0= -.13418098E+03  d E =-.374318E-04
quench:  g(F)=  0.000E+00 g(S)=  0.000E+00 dE (1.order)= 0.000E+00
 bond charge predicted
       N       E                     dE             d eps       ncg     rms          rms(c)
DAV:   1    -0.134183446303E+03   -0.14629E-04   -0.25251E-03  5265   0.134E-01    0.172E-02
RMM:   2    -0.134183458177E+03   -0.11874E-04   -0.12578E-04  3189   0.269E-02    0.140E-02
RMM:   3    -0.134183457034E+03    0.11437E-05   -0.16856E-05  2261   0.194E-02
 121 F= -.13418346E+03 E0= -.13418101E+03  d E =-.302226E-04
quench:  g(F)=  0.000E+00 g(S)=  0.000E+00 dE (1.order)= 0.000E+00
 bond charge predicted
       N       E                     dE             d eps       ncg     rms          rms(c)
DAV:   1    -0.134183482688E+03   -0.24510E-04   -0.23251E-03  5256   0.123E-01    0.181E-02
RMM:   2    -0.134183496505E+03   -0.13818E-04   -0.11507E-04  3164   0.271E-02    0.199E-02
RMM:   3    -0.134183491556E+03    0.49488E-05   -0.18424E-05  2283   0.199E-02
 122 F= -.13418349E+03 E0= -.13418105E+03  d E =-.345227E-04
quench:  g(F)=  0.000E+00 g(S)=  0.000E+00 dE (1.order)= 0.000E+00
 bond charge predicted
       N       E                     dE             d eps       ncg     rms          rms(c)
DAV:   1    -0.134183515638E+03   -0.19133E-04   -0.30025E-03  5085   0.124E-01    0.185E-02
RMM:   2    -0.134183526492E+03   -0.10854E-04   -0.13013E-04  3239   0.256E-02    0.134E-02
RMM:   3    -0.134183525499E+03    0.99287E-06   -0.16770E-05  2225   0.197E-02
 123 F= -.13418353E+03 E0= -.13418108E+03  d E =-.339425E-04
quench:  g(F)=  0.000E+00 g(S)=  0.000E+00 dE (1.order)= 0.000E+00
 bond charge predicted
       N       E                     dE             d eps       ncg     rms          rms(c)
DAV:   1    -0.134183552131E+03   -0.25639E-04   -0.30756E-03  5292   0.127E-01    0.197E-02
RMM:   2    -0.134183568427E+03   -0.16296E-04   -0.14627E-04  3302   0.278E-02    0.197E-02
RMM:   3    -0.134183564566E+03    0.38613E-05   -0.18642E-05  2319   0.195E-02
 124 F= -.13418356E+03 E0= -.13418112E+03  d E =-.390669E-04
quench:  g(F)=  0.000E+00 g(S)=  0.000E+00 dE (1.order)= 0.000E+00
 bond charge predicted
       N       E                     dE             d eps       ncg     rms          rms(c)
DAV:   1    -0.134183584502E+03   -0.16075E-04   -0.26581E-03  5247   0.126E-01    0.167E-02
RMM:   2    -0.134183594448E+03   -0.99461E-05   -0.12452E-04  3180   0.227E-02    0.106E-02
RMM:   3    -0.134183593212E+03    0.12357E-05   -0.92504E-06  2227   0.137E-02
 125 F= -.13418359E+03 E0= -.13418115E+03  d E =-.286464E-04
quench:  g(F)=  0.000E+00 g(S)=  0.000E+00 dE (1.order)= 0.000E+00
 bond charge predicted
       N       E                     dE             d eps       ncg     rms          rms(c)
DAV:   1    -0.134183622830E+03   -0.28382E-04   -0.24307E-03  5130   0.112E-01    0.180E-02
RMM:   2    -0.134183639056E+03   -0.16227E-04   -0.10974E-04  3146   0.281E-02    0.231E-02
RMM:   3    -0.134183629870E+03    0.91858E-05   -0.19789E-05  2313   0.204E-02
 126 F= -.13418363E+03 E0= -.13418118E+03  d E =-.366582E-04
quench:  g(F)=  0.000E+00 g(S)=  0.000E+00 dE (1.order)= 0.000E+00
 bond charge predicted
       N       E                     dE             d eps       ncg     rms          rms(c)
DAV:   1    -0.134183653730E+03   -0.14674E-04   -0.29794E-03  4716   0.108E-01    0.177E-02
RMM:   2    -0.134183663864E+03   -0.10133E-04   -0.12456E-04  3216   0.234E-02    0.119E-02
RMM:   3    -0.134183664726E+03   -0.86224E-06   -0.13415E-05  2279   0.175E-02
 127 F= -.13418366E+03 E0= -.13418122E+03  d E =-.348556E-04
quench:  g(F)=  0.000E+00 g(S)=  0.000E+00 dE (1.order)= 0.000E+00
 bond charge predicted
       N       E                     dE             d eps       ncg     rms          rms(c)
DAV:   1    -0.134183691988E+03   -0.28125E-04   -0.30939E-03  5184   0.138E-01    0.199E-02
RMM:   2    -0.134183710623E+03   -0.18635E-04   -0.14717E-04  3406   0.270E-02    0.211E-02
RMM:   3    -0.134183702613E+03    0.80106E-05   -0.19901E-05  2328   0.195E-02
 128 F= -.13418370E+03 E0= -.13418125E+03  d E =-.378864E-04
quench:  g(F)=  0.000E+00 g(S)=  0.000E+00 dE (1.order)= 0.000E+00
 bond charge predicted
       N       E                     dE             d eps       ncg     rms          rms(c)
DAV:   1    -0.134183724637E+03   -0.14014E-04   -0.27322E-03  5130   0.120E-01    0.175E-02
RMM:   2    -0.134183734370E+03   -0.97335E-05   -0.12230E-04  3143   0.224E-02    0.112E-02
RMM:   3    -0.134183733434E+03    0.93667E-06   -0.11137E-05  2206   0.157E-02
 129 F= -.13418373E+03 E0= -.13418128E+03  d E =-.308210E-04
quench:  g(F)=  0.000E+00 g(S)=  0.000E+00 dE (1.order)= 0.000E+00
 bond charge predicted
       N       E                     dE             d eps       ncg     rms          rms(c)
DAV:   1    -0.134183761964E+03   -0.27594E-04   -0.24941E-03  4932   0.102E-01    0.178E-02
RMM:   2    -0.134183774303E+03   -0.12339E-04   -0.11162E-04  3155   0.257E-02    0.173E-02
RMM:   3    -0.134183771943E+03    0.23601E-05   -0.16517E-05  2296   0.185E-02
 130 F= -.13418377E+03 E0= -.13418132E+03  d E =-.385097E-04
quench:  g(F)=  0.000E+00 g(S)=  0.000E+00 dE (1.order)= 0.000E+00
 bond charge predicted
       N       E                     dE             d eps       ncg     rms          rms(c)
DAV:   1    -0.134183795201E+03   -0.20898E-04   -0.29118E-03  5139   0.123E-01    0.176E-02
RMM:   2    -0.134183804798E+03   -0.95964E-05   -0.12411E-04  3194   0.240E-02    0.118E-02
RMM:   3    -0.134183804177E+03    0.62111E-06   -0.14956E-05  2218   0.185E-02
 131 F= -.13418380E+03 E0= -.13418135E+03  d E =-.322334E-04
quench:  g(F)=  0.000E+00 g(S)=  0.000E+00 dE (1.order)= 0.000E+00
 bond charge predicted
       N       E                     dE             d eps       ncg     rms          rms(c)
DAV:   1    -0.134183831785E+03   -0.26987E-04   -0.29707E-03  4878   0.115E-01    0.195E-02
RMM:   2    -0.134183846292E+03   -0.14507E-04   -0.14130E-04  3310   0.279E-02    0.183E-02
RMM:   3    -0.134183844410E+03    0.18820E-05   -0.18604E-05  2316   0.194E-02
 132 F= -.13418384E+03 E0= -.13418140E+03  d E =-.402337E-04
quench:  g(F)=  0.000E+00 g(S)=  0.000E+00 dE (1.order)= 0.000E+00
 bond charge predicted
       N       E                     dE             d eps       ncg     rms          rms(c)
DAV:   1    -0.134183864359E+03   -0.18067E-04   -0.27530E-03  5211   0.130E-01    0.170E-02
RMM:   2    -0.134183874556E+03   -0.10197E-04   -0.12689E-04  3200   0.230E-02    0.104E-02
RMM:   3    -0.134183874559E+03   -0.29977E-08   -0.94418E-06  2280   0.134E-02
 133 F= -.13418387E+03 E0= -.13418143E+03  d E =-.301489E-04
quench:  g(F)=  0.000E+00 g(S)=  0.000E+00 dE (1.order)= 0.000E+00
 bond charge predicted
       N       E                     dE             d eps       ncg     rms          rms(c)
DAV:   1    -0.134183902021E+03   -0.27464E-04   -0.25291E-03  5193   0.126E-01    0.184E-02
RMM:   2    -0.134183917830E+03   -0.15809E-04   -0.11994E-04  3193   0.273E-02    0.216E-02
RMM:   3    -0.134183910954E+03    0.68754E-05   -0.20137E-05  2319   0.201E-02
 134 F= -.13418391E+03 E0= -.13418146E+03  d E =-.363952E-04
quench:  g(F)=  0.000E+00 g(S)=  0.000E+00 dE (1.order)= 0.000E+00
 bond charge predicted
       N       E                     dE             d eps       ncg     rms          rms(c)
DAV:   1    -0.134183935011E+03   -0.17181E-04   -0.29092E-03  4896   0.113E-01    0.176E-02
RMM:   2    -0.134183945145E+03   -0.10134E-04   -0.12241E-04  3200   0.229E-02    0.118E-02
RMM:   3    -0.134183946257E+03   -0.11121E-05   -0.12173E-05  2278   0.165E-02
 135 F= -.13418395E+03 E0= -.13418150E+03  d E =-.353024E-04
quench:  g(F)=  0.000E+00 g(S)=  0.000E+00 dE (1.order)= 0.000E+00
 bond charge predicted
       N       E                     dE             d eps       ncg     rms          rms(c)
DAV:   1    -0.134183972403E+03   -0.27259E-04   -0.29848E-03  5202   0.137E-01    0.196E-02
RMM:   2    -0.134183990260E+03   -0.17857E-04   -0.14553E-04  3389   0.272E-02    0.203E-02
RMM:   3    -0.134183983160E+03    0.71001E-05   -0.20014E-05  2326   0.196E-02
 136 F= -.13418398E+03 E0= -.13418153E+03  d E =-.369034E-04
quench:  g(F)=  0.000E+00 g(S)=  0.000E+00 dE (1.order)= 0.000E+00
 bond charge predicted
       N       E                     dE             d eps       ncg     rms          rms(c)
DAV:   1    -0.134184005441E+03   -0.15181E-04   -0.27591E-03  5121   0.119E-01    0.177E-02
RMM:   2    -0.134184015081E+03   -0.96398E-05   -0.12168E-04  3146   0.224E-02    0.110E-02
RMM:   3    -0.134184014082E+03    0.99902E-06   -0.11657E-05  2201   0.164E-02
 137 F= -.13418401E+03 E0= -.13418156E+03  d E =-.309219E-04
quench:  g(F)=  0.000E+00 g(S)=  0.000E+00 dE (1.order)= 0.000E+00
 bond charge predicted
       N       E                     dE             d eps       ncg     rms          rms(c)
DAV:   1    -0.134184044543E+03   -0.29462E-04   -0.26188E-03  5103   0.109E-01    0.183E-02
RMM:   2    -0.134184057770E+03   -0.13226E-04   -0.11786E-04  3179   0.263E-02    0.183E-02
RMM:   3    -0.134184054793E+03    0.29763E-05   -0.18048E-05  2300   0.193E-02
 138 F= -.13418405E+03 E0= -.13418160E+03  d E =-.407112E-04
quench:  g(F)=  0.000E+00 g(S)=  0.000E+00 dE (1.order)= 0.000E+00
 bond charge predicted
       N       E                     dE             d eps       ncg     rms          rms(c)
DAV:   1    -0.134184078004E+03   -0.20234E-04   -0.30375E-03  5094   0.123E-01    0.179E-02
RMM:   2    -0.134184087937E+03   -0.99327E-05   -0.12955E-04  3232   0.234E-02    0.114E-02
RMM:   3    -0.134184086861E+03    0.10754E-05   -0.12586E-05  2210   0.168E-02
 139 F= -.13418409E+03 E0= -.13418164E+03  d E =-.320679E-04
quench:  g(F)=  0.000E+00 g(S)=  0.000E+00 dE (1.order)= 0.000E+00
 bond charge predicted
       N       E                     dE             d eps       ncg     rms          rms(c)
DAV:   1    -0.134184116536E+03   -0.28599E-04   -0.30745E-03  4707   0.109E-01    0.194E-02
RMM:   2    -0.134184127902E+03   -0.11366E-04   -0.13784E-04  3312   0.257E-02    0.150E-02
RMM:   3    -0.134184127613E+03    0.28871E-06   -0.16355E-05  2306   0.181E-02
 140 F= -.13418413E+03 E0= -.13418168E+03  d E =-.407521E-04
quench:  g(F)=  0.000E+00 g(S)=  0.000E+00 dE (1.order)= 0.000E+00
 bond charge predicted
       N       E                     dE             d eps       ncg     rms          rms(c)
DAV:   1    -0.134184151584E+03   -0.23682E-04   -0.29303E-03  5238   0.142E-01    0.182E-02
RMM:   2    -0.134184165277E+03   -0.13693E-04   -0.12597E-04  3221   0.272E-02    0.176E-02
RMM:   3    -0.134184162059E+03    0.32181E-05   -0.18587E-05  2299   0.192E-02
 141 F= -.13418416E+03 E0= -.13418171E+03  d E =-.344452E-04
quench:  g(F)=  0.000E+00 g(S)=  0.000E+00 dE (1.order)= 0.000E+00
[...]
 272 F= -.13418925E+03 E0= -.13418677E+03  d E =-.480883E-04
quench:  g(F)=  0.000E+00 g(S)=  0.000E+00 dE (1.order)= 0.000E+00
 bond charge predicted
       N       E                     dE             d eps       ncg     rms          rms(c)
DAV:   1    -0.134189283617E+03   -0.27114E-04   -0.38607E-03  5193   0.141E-01    0.206E-02
RMM:   2    -0.134189294840E+03   -0.11224E-04   -0.15466E-04  3341   0.252E-02    0.128E-02
RMM:   3    -0.134189292550E+03    0.22901E-05   -0.11874E-05  2306   0.141E-02
 273 F= -.13418929E+03 E0= -.13418681E+03  d E =-.386861E-04
quench:  g(F)=  0.000E+00 g(S)=  0.000E+00 dE (1.order)= 0.000E+00
 bond charge predicted
       N       E                     dE             d eps       ncg     rms          rms(c)
DAV:   1    -0.134189330092E+03   -0.35252E-04   -0.36964E-03  5256   0.139E-01    0.227E-02
RMM:   2    -0.134189357906E+03   -0.27814E-04   -0.17070E-04  3536   0.345E-02    0.294E-02
RMM:   3    -0.134189339853E+03    0.18053E-04   -0.26131E-05  2383   0.226E-02    0.160E-02
RMM:   4    -0.134189337854E+03    0.19986E-05   -0.88374E-06  2261   0.148E-02
 274 F= -.13418934E+03 E0= -.13418685E+03  d E =-.453039E-04
quench:  g(F)=  0.000E+00 g(S)=  0.000E+00 dE (1.order)= 0.000E+00
 bond charge predicted
       N       E                     dE             d eps       ncg     rms          rms(c)
DAV:   1    -0.134189373129E+03   -0.33277E-04   -0.35120E-03  4203   0.101E-01    0.192E-02
RMM:   2    -0.134189382019E+03   -0.88895E-05   -0.11856E-04  3112   0.247E-02    0.135E-02
RMM:   3    -0.134189382401E+03   -0.38181E-06   -0.18208E-05  2274   0.198E-02
 275 F= -.13418938E+03 E0= -.13418690E+03  d E =-.445465E-04
quench:  g(F)=  0.000E+00 g(S)=  0.000E+00 dE (1.order)= 0.000E+00
 bond charge predicted
       N       E                     dE             d eps       ncg     rms          rms(c)
DAV:   1    -0.134189419283E+03   -0.37265E-04   -0.34736E-03  5364   0.141E-01    0.213E-02
RMM:   2    -0.134189437382E+03   -0.18098E-04   -0.15092E-04  3394   0.314E-02    0.231E-02
RMM:   3    -0.134189431176E+03    0.62060E-05   -0.22775E-05  2344   0.212E-02
 276 F= -.13418943E+03 E0= -.13418694E+03  d E =-.487753E-04
quench:  g(F)=  0.000E+00 g(S)=  0.000E+00 dE (1.order)= 0.000E+00
 bond charge predicted
       N       E                     dE             d eps       ncg     rms          rms(c)
DAV:   1    -0.134189461558E+03   -0.24176E-04   -0.40036E-03  5103   0.134E-01    0.212E-02
RMM:   2    -0.134189473040E+03   -0.11482E-04   -0.16135E-04  3345   0.257E-02    0.142E-02
RMM:   3    -0.134189472227E+03    0.81312E-06   -0.17178E-05  2244   0.187E-02
 277 F= -.13418947E+03 E0= -.13418699E+03  d E =-.410511E-04
quench:  g(F)=  0.000E+00 g(S)=  0.000E+00 dE (1.order)= 0.000E+00
 bond charge predicted
       N       E                     dE             d eps       ncg     rms          rms(c)
DAV:   1    -0.134189508575E+03   -0.35535E-04   -0.35471E-03  5040   0.130E-01    0.217E-02
RMM:   2    -0.134189529531E+03   -0.20955E-04   -0.15768E-04  3426   0.305E-02    0.249E-02
RMM:   3    -0.134189519628E+03    0.99029E-05   -0.22835E-05  2339   0.210E-02
 278 F= -.13418952E+03 E0= -.13418703E+03  d E =-.474007E-04
quench:  g(F)=  0.000E+00 g(S)=  0.000E+00 dE (1.order)= 0.000E+00
 bond charge predicted
       N       E                     dE             d eps       ncg     rms          rms(c)
DAV:   1    -0.134189551069E+03   -0.21538E-04   -0.33661E-03  5175   0.131E-01    0.196E-02
RMM:   2    -0.134189560556E+03   -0.94878E-05   -0.13427E-04  3174   0.241E-02    0.123E-02
RMM:   3    -0.134189562898E+03   -0.23414E-05   -0.15454E-05  2313   0.178E-02
 279 F= -.13418956E+03 E0= -.13418707E+03  d E =-.432700E-04
quench:  g(F)=  0.000E+00 g(S)=  0.000E+00 dE (1.order)= 0.000E+00
 bond charge predicted
       N       E                     dE             d eps       ncg     rms          rms(c)
DAV:   1    -0.134189599243E+03   -0.38687E-04   -0.34787E-03  5355   0.151E-01    0.222E-02
RMM:   2    -0.134189618047E+03   -0.18804E-04   -0.15324E-04  3406   0.289E-02    0.234E-02
RMM:   3    -0.134189610504E+03    0.75438E-05   -0.23025E-05  2353   0.208E-02
 280 F= -.13418961E+03 E0= -.13418712E+03  d E =-.476059E-04
quench:  g(F)=  0.000E+00 g(S)=  0.000E+00 dE (1.order)= 0.000E+00
 bond charge predicted
       N       E                     dE             d eps       ncg     rms          rms(c)
DAV:   1    -0.134189641740E+03   -0.23692E-04   -0.39683E-03  5238   0.147E-01    0.219E-02
RMM:   2    -0.134189652959E+03   -0.11220E-04   -0.15993E-04  3334   0.269E-02    0.141E-02
RMM:   3    -0.134189653648E+03   -0.68826E-06   -0.18867E-05  2323   0.192E-02
 281 F= -.13418965E+03 E0= -.13418716E+03  d E =-.431441E-04
quench:  g(F)=  0.000E+00 g(S)=  0.000E+00 dE (1.order)= 0.000E+00
 bond charge predicted
       N       E                     dE             d eps       ncg     rms          rms(c)
DAV:   1    -0.134189689622E+03   -0.36662E-04   -0.35886E-03  5373   0.159E-01    0.228E-02
RMM:   2    -0.134189715695E+03   -0.26073E-04   -0.17264E-04  3539   0.312E-02    0.276E-02
RMM:   3    -0.134189700474E+03    0.15221E-04   -0.24598E-05  2383   0.209E-02    0.163E-02
RMM:   4    -0.134189698050E+03    0.24247E-05   -0.10994E-05  2172   0.174E-02
 282 F= -.13418970E+03 E0= -.13418721E+03  d E =-.444020E-04
quench:  g(F)=  0.000E+00 g(S)=  0.000E+00 dE (1.order)= 0.000E+00
 bond charge predicted
       N       E                     dE             d eps       ncg     rms          rms(c)
DAV:   1    -0.134189737593E+03   -0.37119E-04   -0.38343E-03  4239   0.108E-01    0.201E-02
RMM:   2    -0.134189746395E+03   -0.88012E-05   -0.12843E-04  3161   0.254E-02    0.130E-02
RMM:   3    -0.134189746252E+03    0.14221E-06   -0.18585E-05  2266   0.191E-02
 283 F= -.13418975E+03 E0= -.13418726E+03  d E =-.482027E-04
quench:  g(F)=  0.000E+00 g(S)=  0.000E+00 dE (1.order)= 0.000E+00
 bond charge predicted
       N       E                     dE             d eps       ncg     rms          rms(c)
DAV:   1    -0.134189786727E+03   -0.40332E-04   -0.39577E-03  5193   0.129E-01    0.225E-02
RMM:   2    -0.134189800523E+03   -0.13796E-04   -0.15917E-04  3353   0.280E-02    0.193E-02
RMM:   3    -0.134189801253E+03   -0.72977E-06   -0.21235E-05  2352   0.202E-02
 284 F= -.13418980E+03 E0= -.13418731E+03  d E =-.550003E-04
quench:  g(F)=  0.000E+00 g(S)=  0.000E+00 dE (1.order)= 0.000E+00
 bond charge predicted
       N       E                     dE             d eps       ncg     rms          rms(c)
DAV:   1    -0.134189829569E+03   -0.29046E-04   -0.43049E-03  5274   0.163E-01    0.218E-02
RMM:   2    -0.134189844255E+03   -0.14686E-04   -0.17821E-04  3440   0.275E-02    0.142E-02
RMM:   3    -0.134189846940E+03   -0.26847E-05   -0.17033E-05  2342   0.177E-02
 285 F= -.13418985E+03 E0= -.13418735E+03  d E =-.456873E-04
quench:  g(F)=  0.000E+00 g(S)=  0.000E+00 dE (1.order)= 0.000E+00
 bond charge predicted
       N       E                     dE             d eps       ncg     rms          rms(c)
DAV:   1    -0.134189877193E+03   -0.32938E-04   -0.35415E-03  5310   0.161E-01    0.215E-02
RMM:   2    -0.134189892855E+03   -0.15662E-04   -0.16881E-04  3452   0.282E-02    0.165E-02
RMM:   3    -0.134189893873E+03   -0.10176E-05   -0.18988E-05  2337   0.187E-02
 286 F= -.13418989E+03 E0= -.13418740E+03  d E =-.469328E-04
quench:  g(F)=  0.000E+00 g(S)=  0.000E+00 dE (1.order)= 0.000E+00
 bond charge predicted
       N       E                     dE             d eps       ncg     rms          rms(c)
DAV:   1    -0.134189925415E+03   -0.32560E-04   -0.36661E-03  5364   0.158E-01    0.204E-02
RMM:   2    -0.134189938921E+03   -0.13505E-04   -0.14502E-04  3294   0.282E-02    0.157E-02
RMM:   3    -0.134189939507E+03   -0.58589E-06   -0.20549E-05  2326   0.202E-02
 287 F= -.13418994E+03 E0= -.13418745E+03  d E =-.456337E-04
quench:  g(F)=  0.000E+00 g(S)=  0.000E+00 dE (1.order)= 0.000E+00
 bond charge predicted
       N       E                     dE             d eps       ncg     rms          rms(c)
DAV:   1    -0.134189973754E+03   -0.34833E-04   -0.40264E-03  5337   0.152E-01    0.232E-02
RMM:   2    -0.134189989508E+03   -0.15755E-04   -0.19634E-04  3590   0.312E-02    0.182E-02
RMM:   3    -0.134189986473E+03    0.30355E-05   -0.22003E-05  2336   0.214E-02
 288 F= -.13418999E+03 E0= -.13418749E+03  d E =-.469661E-04
quench:  g(F)=  0.000E+00 g(S)=  0.000E+00 dE (1.order)= 0.000E+00
 bond charge predicted
       N       E                     dE             d eps       ncg     rms          rms(c)
DAV:   1    -0.134190025155E+03   -0.35647E-04   -0.45120E-03  4950   0.134E-01    0.224E-02
RMM:   2    -0.134190037003E+03   -0.11848E-04   -0.16383E-04  3326   0.293E-02    0.155E-02
RMM:   3    -0.134190035881E+03    0.11212E-05   -0.22914E-05  2377   0.215E-02
 289 F= -.13419004E+03 E0= -.13418755E+03  d E =-.494088E-04
quench:  g(F)=  0.000E+00 g(S)=  0.000E+00 dE (1.order)= 0.000E+00
 bond charge predicted
       N       E                     dE             d eps       ncg     rms          rms(c)
DAV:   1    -0.134190075566E+03   -0.38563E-04   -0.40035E-03  5364   0.145E-01    0.226E-02
RMM:   2    -0.134190093270E+03   -0.17704E-04   -0.17895E-04  3454   0.316E-02    0.216E-02
RMM:   3    -0.134190090030E+03    0.32406E-05   -0.23076E-05  2360   0.210E-02
 290 F= -.13419009E+03 E0= -.13418760E+03  d E =-.541485E-04
quench:  g(F)=  0.000E+00 g(S)=  0.000E+00 dE (1.order)= 0.000E+00
 bond charge predicted
       N       E                     dE             d eps       ncg     rms          rms(c)
DAV:   1    -0.134190122881E+03   -0.29610E-04   -0.41660E-03  5148   0.148E-01    0.213E-02
RMM:   2    -0.134190135915E+03   -0.13034E-04   -0.16929E-04  3395   0.258E-02    0.131E-02
RMM:   3    -0.134190133768E+03    0.21467E-05   -0.12139E-05  2305   0.143E-02
 291 F= -.13419013E+03 E0= -.13418764E+03  d E =-.437384E-04
quench:  g(F)=  0.000E+00 g(S)=  0.000E+00 dE (1.order)= 0.000E+00
 bond charge predicted
       N       E                     dE             d eps       ncg     rms          rms(c)
DAV:   1    -0.134190176036E+03   -0.40121E-04   -0.40387E-03  4671   0.119E-01    0.235E-02
RMM:   2    -0.134190201038E+03   -0.25002E-04   -0.18425E-04  3576   0.327E-02    0.278E-02
RMM:   3    -0.134190188280E+03    0.12758E-04   -0.25555E-05  2392   0.220E-02    0.172E-02
RMM:   4    -0.134190185223E+03    0.30569E-05   -0.98725E-06  2255   0.160E-02
 292 F= -.13419019E+03 E0= -.13418769E+03  d E =-.514552E-04
quench:  g(F)=  0.000E+00 g(S)=  0.000E+00 dE (1.order)= 0.000E+00
 bond charge predicted
       N       E                     dE             d eps       ncg     rms          rms(c)
DAV:   1    -0.134190226051E+03   -0.37771E-04   -0.44475E-03  4068   0.110E-01    0.214E-02
RMM:   2    -0.134190236436E+03   -0.10385E-04   -0.14581E-04  3280   0.261E-02    0.139E-02
RMM:   3    -0.134190236252E+03    0.18437E-06   -0.18267E-05  2262   0.187E-02
 293 F= -.13419024E+03 E0= -.13418775E+03  d E =-.510286E-04
quench:  g(F)=  0.000E+00 g(S)=  0.000E+00 dE (1.order)= 0.000E+00
 bond charge predicted
       N       E                     dE             d eps       ncg     rms          rms(c)
DAV:   1    -0.134190276647E+03   -0.40210E-04   -0.41634E-03  5148   0.128E-01    0.227E-02
RMM:   2    -0.134190292441E+03   -0.15794E-04   -0.17708E-04  3448   0.300E-02    0.180E-02
RMM:   3    -0.134190293295E+03   -0.85386E-06   -0.22135E-05  2349   0.209E-02
 294 F= -.13419029E+03 E0= -.13418780E+03  d E =-.570427E-04
quench:  g(F)=  0.000E+00 g(S)=  0.000E+00 dE (1.order)= 0.000E+00
 bond charge predicted
       N       E                     dE             d eps       ncg     rms          rms(c)
DAV:   1    -0.134190323435E+03   -0.30995E-04   -0.40852E-03  5355   0.166E-01    0.218E-02
RMM:   2    -0.134190340274E+03   -0.16839E-04   -0.16956E-04  3420   0.290E-02    0.186E-02
RMM:   3    -0.134190338538E+03    0.17363E-05   -0.20672E-05  2334   0.196E-02
 295 F= -.13419034E+03 E0= -.13418784E+03  d E =-.452432E-04
quench:  g(F)=  0.000E+00 g(S)=  0.000E+00 dE (1.order)= 0.000E+00
 bond charge predicted
       N       E                     dE             d eps       ncg     rms          rms(c)
DAV:   1    -0.134190371525E+03   -0.31250E-04   -0.36849E-03  5292   0.155E-01    0.227E-02
RMM:   2    -0.134190387141E+03   -0.15617E-04   -0.18824E-04  3519   0.313E-02    0.181E-02
RMM:   3    -0.134190384690E+03    0.24510E-05   -0.20914E-05  2342   0.201E-02
 296 F= -.13419038E+03 E0= -.13418789E+03  d E =-.461524E-04
quench:  g(F)=  0.000E+00 g(S)=  0.000E+00 dE (1.order)= 0.000E+00
 bond charge predicted
       N       E                     dE             d eps       ncg     rms          rms(c)
DAV:   1    -0.134190421450E+03   -0.34309E-04   -0.39190E-03  5355   0.156E-01    0.222E-02
RMM:   2    -0.134190448563E+03   -0.27113E-04   -0.15775E-04  3367   0.323E-02    0.279E-02
RMM:   3    -0.134190431063E+03    0.17500E-04   -0.24588E-05  2352   0.218E-02    0.154E-02
RMM:   4    -0.134190428497E+03    0.25656E-05   -0.10833E-05  2253   0.169E-02
 297 F= -.13419043E+03 E0= -.13418793E+03  d E =-.438066E-04
quench:  g(F)=  0.000E+00 g(S)=  0.000E+00 dE (1.order)= 0.000E+00
 bond charge predicted
       N       E                     dE             d eps       ncg     rms          rms(c)
DAV:   1    -0.134190472223E+03   -0.41161E-04   -0.40775E-03  4149   0.102E-01    0.223E-02
RMM:   2    -0.134190484669E+03   -0.12446E-04   -0.16483E-04  3410   0.271E-02    0.154E-02
RMM:   3    -0.134190483097E+03    0.15718E-05   -0.16072E-05  2305   0.173E-02
 298 F= -.13419048E+03 E0= -.13418799E+03  d E =-.546004E-04
quench:  g(F)=  0.000E+00 g(S)=  0.000E+00 dE (1.order)= 0.000E+00
 bond charge predicted
       N       E                     dE             d eps       ncg     rms          rms(c)
DAV:   1    -0.134190521229E+03   -0.36560E-04   -0.45175E-03  5184   0.142E-01    0.225E-02
RMM:   2    -0.134190537551E+03   -0.16322E-04   -0.16328E-04  3300   0.315E-02    0.193E-02
RMM:   3    -0.134190535109E+03    0.24414E-05   -0.24219E-05  2370   0.218E-02
 299 F= -.13419054E+03 E0= -.13418804E+03  d E =-.520118E-04
quench:  g(F)=  0.000E+00 g(S)=  0.000E+00 dE (1.order)= 0.000E+00
 bond charge predicted
       N       E                     dE             d eps       ncg     rms          rms(c)
DAV:   1    -0.134190568395E+03   -0.30844E-04   -0.40103E-03  5310   0.158E-01    0.238E-02
RMM:   2    -0.134190586588E+03   -0.18193E-04   -0.20471E-04  3630   0.344E-02    0.209E-02
RMM:   3    -0.134190584410E+03    0.21778E-05   -0.26700E-05  2436   0.228E-02
 300 F= -.13419058E+03 E0= -.13418809E+03  d E =-.493010E-04
quench:  g(F)=  0.000E+00 g(S)=  0.000E+00 dE (1.order)= 0.000E+00
 bond charge predicted
       N       E                     dE             d eps       ncg     rms          rms(c)
DAV:   1    -0.134190614635E+03   -0.28047E-04   -0.37924E-03  5184   0.157E-01    0.218E-02
RMM:   2    -0.134190636914E+03   -0.22279E-04   -0.16510E-04  3410   0.330E-02    0.219E-02
RMM:   3    -0.134190628602E+03    0.83119E-05   -0.23088E-05  2325   0.209E-02
 301 F= -.13419063E+03 E0= -.13418813E+03  d E =-.441920E-04
quench:  g(F)=  0.000E+00 g(S)=  0.000E+00 dE (1.order)= 0.000E+00
 bond charge predicted
       N       E                     dE             d eps       ncg     rms          rms(c)
DAV:   1    -0.134190664758E+03   -0.27844E-04   -0.37297E-03  5256   0.142E-01    0.233E-02
RMM:   2    -0.134190679460E+03   -0.14702E-04   -0.18417E-04  3528   0.324E-02    0.185E-02
RMM:   3    -0.134190676817E+03    0.26427E-05   -0.25724E-05  2344   0.232E-02
 302 F= -.13419068E+03 E0= -.13418819E+03  d E =-.482149E-04
quench:  g(F)=  0.000E+00 g(S)=  0.000E+00 dE (1.order)= 0.000E+00
 bond charge predicted
       N       E                     dE             d eps       ncg     rms          rms(c)
DAV:   1    -0.134190711684E+03   -0.32224E-04   -0.43281E-03  4905   0.143E-01    0.229E-02
RMM:   2    -0.134190735151E+03   -0.23467E-04   -0.17489E-04  3474   0.330E-02    0.235E-02
RMM:   3    -0.134190726247E+03    0.89033E-05   -0.23913E-05  2345   0.210E-02
 303 F= -.13419073E+03 E0= -.13418823E+03  d E =-.494303E-04
quench:  g(F)=  0.000E+00 g(S)=  0.000E+00 dE (1.order)= 0.000E+00
 bond charge predicted
       N       E                     dE             d eps       ncg     rms          rms(c)
DAV:   1    -0.134190762937E+03   -0.27786E-04   -0.41890E-03  5229   0.144E-01    0.234E-02
RMM:   2    -0.134190779142E+03   -0.16205E-04   -0.20438E-04  3570   0.286E-02    0.166E-02
RMM:   3    -0.134190777016E+03    0.21257E-05   -0.16707E-05  2331   0.167E-02
 304 F= -.13419078E+03 E0= -.13418828E+03  d E =-.507686E-04
quench:  g(F)=  0.000E+00 g(S)=  0.000E+00 dE (1.order)= 0.000E+00
 bond charge predicted
       N       E                     dE             d eps       ncg     rms          rms(c)
DAV:   1    -0.134190819068E+03   -0.39926E-04   -0.43345E-03  5238   0.148E-01    0.230E-02
RMM:   2    -0.134190851906E+03   -0.32838E-04   -0.17605E-04  3570   0.355E-02    0.319E-02
RMM:   3    -0.134190826392E+03    0.25513E-04   -0.26534E-05  2360   0.224E-02    0.145E-02
RMM:   4    -0.134190825329E+03    0.10635E-05   -0.99506E-06  2233   0.157E-02
 305 F= -.13419083E+03 E0= -.13418833E+03  d E =-.483128E-04
quench:  g(F)=  0.000E+00 g(S)=  0.000E+00 dE (1.order)= 0.000E+00
 bond charge predicted
       N       E                     dE             d eps       ncg     rms          rms(c)
DAV:   1    -0.134190874049E+03   -0.47657E-04   -0.43930E-03  4374   0.112E-01    0.235E-02
RMM:   2    -0.134190886605E+03   -0.12556E-04   -0.17212E-04  3499   0.280E-02    0.163E-02
RMM:   3    -0.134190886167E+03    0.43792E-06   -0.17830E-05  2334   0.175E-02
 306 F= -.13419089E+03 E0= -.13418839E+03  d E =-.608383E-04
quench:  g(F)=  0.000E+00 g(S)=  0.000E+00 dE (1.order)= 0.000E+00
 bond charge predicted
       N       E                     dE             d eps       ncg     rms          rms(c)
DAV:   1    -0.134190929767E+03   -0.43162E-04   -0.51711E-03  5202   0.171E-01    0.249E-02
RMM:   2    -0.134190961575E+03   -0.31808E-04   -0.20088E-04  3726   0.373E-02    0.312E-02
RMM:   3    -0.134190940413E+03    0.21162E-04   -0.28294E-05  2420   0.228E-02    0.166E-02
RMM:   4    -0.134190938067E+03    0.23454E-05   -0.10490E-05  2240   0.163E-02
 307 F= -.13419094E+03 E0= -.13418844E+03  d E =-.519005E-04
quench:  g(F)=  0.000E+00 g(S)=  0.000E+00 dE (1.order)= 0.000E+00
 bond charge predicted
       N       E                     dE             d eps       ncg     rms          rms(c)
DAV:   1    -0.134190987283E+03   -0.46870E-04   -0.49432E-03  4041   0.107E-01    0.248E-02
RMM:   2    -0.134191001325E+03   -0.14042E-04   -0.19485E-04  3566   0.272E-02    0.175E-02
RMM:   3    -0.134191001071E+03    0.25368E-06   -0.18002E-05  2362   0.169E-02
 308 F= -.13419100E+03 E0= -.13418850E+03  d E =-.630035E-04
quench:  g(F)=  0.000E+00 g(S)=  0.000E+00 dE (1.order)= 0.000E+00
 bond charge predicted
       N       E                     dE             d eps       ncg     rms          rms(c)
DAV:   1    -0.134191041277E+03   -0.39952E-04   -0.47556E-03  5301   0.178E-01    0.240E-02
RMM:   2    -0.134191072734E+03   -0.31458E-04   -0.19454E-04  3686   0.362E-02    0.308E-02
RMM:   3    -0.134191051526E+03    0.21209E-04   -0.28934E-05  2461   0.227E-02    0.159E-02
RMM:   4    -0.134191049526E+03    0.19994E-05   -0.10259E-05  2234   0.163E-02
 309 F= -.13419105E+03 E0= -.13418855E+03  d E =-.484552E-04
quench:  g(F)=  0.000E+00 g(S)=  0.000E+00 dE (1.order)= 0.000E+00
 bond charge predicted
       N       E                     dE             d eps       ncg     rms          rms(c)
DAV:   1    -0.134191098984E+03   -0.47458E-04   -0.44434E-03  4113   0.101E-01    0.236E-02
RMM:   2    -0.134191110690E+03   -0.11706E-04   -0.16561E-04  3397   0.257E-02    0.163E-02
RMM:   3    -0.134191109027E+03    0.16623E-05   -0.16829E-05  2362   0.168E-02
