 vasp.5.4.4.18Apr17-6-g9f103f2a35 (build Feb 06 2024 13:54:16) complex          
  
 POSCAR found type information on POSCAR  Cu Pd Cu N  O 
 04/POSCAR found :  5 types and      40 ions
 scaLAPACK will be used

 ----------------------------------------------------------------------------- 
|                                                                             |
|  ADVICE TO THIS USER RUNNING 'VASP/VAMP'   (HEAR YOUR MASTER'S VOICE ...):  |
|                                                                             |
|      You enforced a specific xc-type in the INCAR file,                     |
|      a different type was found on the POTCAR file                          |
|          I HOPE YOU KNOW, WHAT YOU ARE  DOING                               |
|                                                                             |
 ----------------------------------------------------------------------------- 

 LDA part: xc-table for Pade appr. of Perdew
 POSCAR found type information on POSCAR  Cu Pd Cu N  O 
 00/POSCAR found :  5 types and      40 ions
 POSCAR found type information on POSCAR  Cu Pd Cu N  O 
 06/POSCAR found :  5 types and      40 ions
 Jacobian:    19.9537150754471     
 POSCAR, INCAR and KPOINTS ok, starting setup
 FFT: planning ...
 WAVECAR not read
 entering main loop
       N       E                     dE             d eps       ncg     rms          rms(c)
  Solvation turned off during non-self-consistent phase (first NELMDL steps)
DAV:   1     0.430076449759E+04    0.43008E+04   -0.18020E+05 12096   0.211E+03
DAV:   2     0.669560168298E+03   -0.36312E+04   -0.34997E+04 12123   0.480E+02
DAV:   3    -0.224727912014E+02   -0.69203E+03   -0.63513E+03 13770   0.242E+02
DAV:   4    -0.149452706344E+03   -0.12698E+03   -0.11286E+03 20700   0.982E+01
DAV:   5    -0.164285300270E+03   -0.14833E+02   -0.13093E+02 19071   0.318E+01    0.454E+01
 Begin Solvation calculations
  rms_SCF =    8.22868250945185      tol =   0.822868250945185     
 Begin minimization
 Creating dielectric and ionic cavities
  area:      177.203468392878     
  volume:    655.954226113231     
  Acav:     9.303182090626083E-002
  Solving linear dielectric/ionic screening model
        iter                  A_solv                     rms
   LPB:       -0.383813343009151E+03   0.282379937522252E+03
   LPB:    0  -0.118289018926193E+02   0.536748467824165E+02  -0.514197E+01   0.000000E+00   0.281381E+02  -0.144686E+03
   LPB:    1  -0.181828551910087E+01   0.711315405448503E+01   0.977008E-02   0.000000E+00   0.709458E+02  -0.414938E-14
   LPB:    2  -0.638703445669478E+00   0.117676065760579E+01   0.140592E-01   0.818851E-01   0.285432E+03   0.153128E-13
   LPB:    3  -0.408517357917276E+00   0.141931102731726E+01   0.256529E-01   0.106948E+00   0.592723E+03   0.871785E-14
   LPB:    4  -0.336007783332661E+00   0.103126824770853E+01   0.242587E-01   0.333108E+00   0.759243E+02   0.846001E-14
   LPB:    5  -0.297851437515703E+00   0.603342451839177E+00   0.236309E-01   0.540207E+00   0.421526E+03  -0.705741E-14
  Finished solving LPB equations
  A_corr:   -0.204819616609442     
 End minimization
 Ecorr=   2008.97682132283     
 A_corr= -0.204819616609442     
 Ecorr_band=  -2009.18164093944     
 End Solvation calculations
RMM:   6    -0.168183889031E+03   -0.38986E+01   -0.38222E+02 12252   0.983E+01    0.441E+01
 Begin Solvation calculations
  rms_SCF =    8.22868250945185      tol =   0.822868250945185     
 Begin minimization
 Creating dielectric and ionic cavities
  area:      177.940278666454     
  volume:    667.667892618689     
  Acav:     9.341864629988833E-002
  Solving linear dielectric/ionic screening model
        iter                  A_solv                     rms
   LPB:       -0.334311185413414E+02   0.111005110639984E+03
   LPB:    0  -0.325250552017184E+02   0.109718253831696E+03   0.256287E+00   0.000000E+00   0.275890E+02   0.707070E+01
   LPB:    1  -0.291687224109215E+01   0.991173090080609E+01   0.890529E-02   0.000000E+00   0.619818E+02   0.610703E-15
   LPB:    2  -0.730682043717785E+00   0.244962852277511E+01   0.154791E-01   0.424793E-01   0.124224E+03   0.300986E-14
   LPB:    3  -0.419044027082514E+00   0.962509279491503E+00   0.229264E-01   0.962438E-01   0.103570E+03   0.293199E-14
   LPB:    4  -0.341755351264162E+00   0.964290971998751E+00   0.243857E-01   0.233167E+00   0.275505E+03   0.682117E-14
   LPB:    5  -0.308765085147023E+00   0.540075359822636E+00   0.236107E-01   0.440856E+00   0.951383E+02   0.109436E-13
  Finished solving LPB equations
  A_corr:   -0.215346438847135     
 End minimization
 Ecorr=   1911.29536935732     
 A_corr= -0.215346438847135     
 Ecorr_band=  -1911.51071579617     
 End Solvation calculations
RMM:   7    -0.158175571074E+03    0.10008E+02   -0.11348E+02 12471   0.466E+01    0.247E+01
 Begin Solvation calculations
  rms_SCF =    8.22868250945185      tol =   0.822868250945185     
 Begin minimization
 Creating dielectric and ionic cavities
  area:      183.160398543093     
  volume:    669.145139688977     
  Acav:     9.615920923512390E-002
  Solving linear dielectric/ionic screening model
        iter                  A_solv                     rms
   LPB:       -0.138223426679951E+02   0.711635036034310E+02
   LPB:    0  -0.137973712611674E+02   0.711038017282703E+02   0.426005E-01   0.000000E+00   0.275197E+02   0.117235E+01
   LPB:    1  -0.136302546986916E+01   0.663910428962437E+01   0.895529E-02   0.000000E+00   0.613228E+02  -0.420421E-16
   LPB:    2  -0.361688061614403E+00   0.120442159519955E+01   0.158859E-01   0.453967E-01   0.118957E+03   0.178197E-14
   LPB:    3  -0.216509598677190E+00   0.388362729236753E+00   0.223764E-01   0.102931E+00   0.201331E+03   0.227754E-14
   LPB:    4  -0.188091395756691E+00   0.220792250728758E+00   0.257202E-01   0.170298E+00   0.376963E+03   0.473872E-14
  Finished solving LPB equations
  A_corr:   -9.193218652156752E-002
 End minimization
 Ecorr=   1891.92438688911     
 A_corr= -9.193218652156752E-002
 Ecorr_band=  -1892.01631907563     
 End Solvation calculations
RMM:   8    -0.142269566626E+03    0.15906E+02   -0.96335E+00 12308   0.133E+01    0.169E+01
 Begin Solvation calculations
  rms_SCF =    5.07828840250472      tol =   0.507828840250472     
 Begin minimization
 Creating dielectric and ionic cavities
  area:      171.405604761906     
  volume:    669.590343578604     
  Acav:     8.998794250000081E-002
  Solving linear dielectric/ionic screening model
        iter                  A_solv                     rms
   LPB:       -0.109169531867822E+01   0.182584616973115E+02
   LPB:    0  -0.109111626016034E+01   0.182730228208089E+02   0.648961E-02   0.000000E+00   0.274989E+02   0.178457E+00
   LPB:    1  -0.261313658083785E+00   0.174089016922409E+01   0.898562E-02   0.000000E+00   0.613512E+02  -0.515701E-17
   LPB:    2  -0.188243001554234E+00   0.393580596018985E+00   0.164704E-01   0.480410E-01   0.113085E+03  -0.380449E-14
   LPB:    3  -0.176803509491716E+00   0.129995273232419E+00   0.218555E-01   0.117980E+00   0.140605E+03  -0.474562E-14
   LPB:    4  -0.173075471838556E+00   0.928389857804639E-01   0.342340E-01   0.208054E+00   0.111359E+03  -0.516136E-14
  Finished solving LPB equations
  A_corr:   -8.308752933855507E-002
 End minimization
 Ecorr=   1868.15202824110     
 A_corr= -8.308752933855507E-002
 Ecorr_band=  -1868.23511577044     
 End Solvation calculations
RMM:   9    -0.138669297815E+03    0.36003E+01   -0.37767E+00 12410   0.828E+00    0.997E+00
 Begin Solvation calculations
  rms_SCF =    5.07828840250472      tol =   0.507828840250472     
 Begin minimization
 Creating dielectric and ionic cavities
  area:      153.097587117670     
  volume:    667.451093028112     
  Acav:     8.037623323677673E-002
  Solving linear dielectric/ionic screening model
        iter                  A_solv                     rms
   LPB:       -0.941581420242958E+00   0.155914743076909E+02
   LPB:    0  -0.941388995436068E+00   0.155554430872485E+02  -0.373420E-02   0.000000E+00   0.275992E+02  -0.103061E+00
   LPB:    1  -0.284969555130536E+00   0.160188069364911E+01   0.926712E-02   0.000000E+00   0.614814E+02   0.296171E-17
   LPB:    2  -0.226415474208882E+00   0.291291966647136E+00   0.148420E-01   0.556964E-01   0.124467E+03  -0.862851E-14
   LPB:    3  -0.213680939232984E+00   0.341683598701465E+00   0.270049E-01   0.119530E+00   0.274906E+03  -0.108736E-13
   LPB:    4  -0.207810804626051E+00   0.272415587127100E+00   0.293359E-01   0.424333E+00   0.569978E+02  -0.114639E-13
  Finished solving LPB equations
  A_corr:   -0.127434571389275     
 End minimization
 Ecorr=   1823.97534419489     
 A_corr= -0.127434571389275     
 Ecorr_band=  -1824.10277876628     
 End Solvation calculations
RMM:  10    -0.135827344634E+03    0.28420E+01   -0.59570E+00 12387   0.639E+00    0.463E+00
 Begin Solvation calculations
  rms_SCF =    1.60139478323121      tol =   0.160139478323121     
 Begin minimization
 Creating dielectric and ionic cavities
  area:      153.588429306188     
  volume:    668.118612197774     
  Acav:     8.063392538574886E-002
  Solving linear dielectric/ionic screening model
        iter                  A_solv                     rms
   LPB:       -0.246505638256259E+00   0.334680389675042E+01
   LPB:    0  -0.217723261557851E+00   0.109081480100692E+01   0.456959E-01   0.000000E+00   0.275679E+02   0.125974E+01
   LPB:    1  -0.207942612905543E+00   0.254140101697012E+00   0.118514E-01   0.000000E+00   0.751284E+02   0.410089E-16
   LPB:    2  -0.204058418150699E+00   0.161198718696103E+00   0.318520E-01   0.147763E+00   0.322488E+03  -0.703269E-15
   LPB:    3  -0.201039826825390E+00   0.342550690564675E+00   0.448254E-01   0.552225E+00   0.885928E+02  -0.153450E-14
   LPB:    4  -0.198549744836381E+00   0.355695490120337E+00   0.256442E-01   0.144193E+01   0.472928E+02  -0.172994E-14
   LPB:    5  -0.196402257527047E+00   0.926529142438159E-01   0.240183E-01   0.920794E+00   0.385987E+02  -0.209909E-14
  Finished solving LPB equations
  A_corr:   -0.115768332141298     
 End minimization
 Ecorr=   1795.42177879329     
 A_corr= -0.115768332141298     
 Ecorr_band=  -1795.53754712544     
 End Solvation calculations
RMM:  11    -0.135607777113E+03    0.21957E+00   -0.53392E-01 12520   0.231E+00    0.347E+00
 Begin Solvation calculations
  rms_SCF =   0.358586633047853      tol =   3.585866330478531E-002
 Begin minimization
 Creating dielectric and ionic cavities
  area:      142.716709819689     
  volume:    664.538151920517     
  Acav:     7.492627265533694E-002
  Solving linear dielectric/ionic screening model
        iter                  A_solv                     rms
   LPB:       -0.232023338175073E+00   0.111260768946822E+01
   LPB:    0  -0.224044209880088E+00   0.109608910779940E+01   0.239868E-01   0.000000E+00   0.277357E+02   0.665292E+00
   LPB:    1  -0.211733517736478E+00   0.556938409055195E+00   0.129222E-01   0.000000E+00   0.989081E+02  -0.907789E-17
   LPB:    2  -0.209167603259335E+00   0.150554057790181E+00   0.156564E-01   0.172030E+00   0.105153E+03   0.507469E-15
   LPB:    3  -0.207984643929339E+00   0.114370212349017E+00   0.248190E-01   0.290827E+00   0.300005E+03   0.643905E-15
   LPB:    4  -0.206991321977679E+00   0.138697517837639E+00   0.372820E-01   0.558991E+00   0.100823E+03  -0.156157E-15
   LPB:    5  -0.206049702543090E+00   0.140119291132737E+00   0.312187E-01   0.113206E+01   0.285592E+03  -0.279648E-15
   LPB:    6  -0.205133514803092E+00   0.578668670166767E-01   0.347958E-01   0.872965E+00   0.621733E+02   0.123039E-15
   LPB:    7  -0.204479082304668E+00   0.384248342652143E-01   0.342393E-01   0.725909E+00   0.116426E+03  -0.172373E-14
   LPB:    8  -0.204090614246020E+00   0.195460247986288E-01   0.350289E-01   0.580216E+00   0.871705E+02  -0.278499E-14
  Finished solving LPB equations
  A_corr:   -0.129164341590683     
 End minimization
 Ecorr=   1769.46764874455     
 A_corr= -0.129164341590683     
 Ecorr_band=  -1769.59681308614     
 End Solvation calculations
RMM:  12    -0.135628118801E+03   -0.20342E-01   -0.23143E-01 12431   0.188E+00    0.239E+00
 Begin Solvation calculations
  rms_SCF =   0.358586633047853      tol =   3.585866330478531E-002
 Begin minimization
 Creating dielectric and ionic cavities
  area:      138.026923831308     
  volume:    660.250524351042     
  Acav:     7.246413501143655E-002
  Solving linear dielectric/ionic screening model
        iter                  A_solv                     rms
   LPB:       -0.270891980463500E+00   0.146045077810890E+01
   LPB:    0  -0.262238003458215E+00   0.189354066274708E+01   0.248906E-01   0.000000E+00   0.279367E+02   0.695361E+00
   LPB:    1  -0.230630881284155E+00   0.634620798588073E+00   0.152597E-01   0.000000E+00   0.575234E+02   0.684097E-17
   LPB:    2  -0.225104894161316E+00   0.266680110307002E+00   0.139417E-01   0.191362E+00   0.229417E+03  -0.317958E-14
   LPB:    3  -0.223464475696628E+00   0.199236483981987E+00   0.211406E-01   0.195768E+00   0.125188E+03  -0.351070E-14
   LPB:    4  -0.222770148162577E+00   0.102831828967780E+00   0.216403E-01   0.413488E+00   0.106805E+03  -0.360978E-14
   LPB:    5  -0.222301943411460E+00   0.557603061248252E-01   0.285169E-01   0.511721E+00   0.342714E+03  -0.298659E-14
   LPB:    6  -0.221904079935295E+00   0.296240766350769E-01   0.371560E-01   0.652187E+00   0.181486E+03  -0.222646E-14
  Finished solving LPB equations
  A_corr:   -0.149439944923859     
 End minimization
 Ecorr=   1743.52454161311     
 A_corr= -0.149439944923859     
 Ecorr_band=  -1743.67398155803     
 End Solvation calculations
RMM:  13    -0.135585368021E+03    0.42751E-01   -0.22338E-01 12270   0.209E+00    0.239E+00
 Begin Solvation calculations
  rms_SCF =   0.358586633047853      tol =   3.585866330478531E-002
 Begin minimization
 Creating dielectric and ionic cavities
  area:      138.087893922006     
  volume:    657.737413196346     
  Acav:     7.249614430905310E-002
  Solving linear dielectric/ionic screening model
        iter                  A_solv                     rms
   LPB:       -0.250934503432146E+00   0.868651205719630E+00
   LPB:    0  -0.250171031916042E+00   0.115844320674282E+01   0.737751E-02   0.000000E+00   0.280545E+02   0.206973E+00
   LPB:    1  -0.237872039235472E+00   0.324076803853886E+00   0.147408E-01   0.000000E+00   0.550939E+02   0.225374E-18
   LPB:    2  -0.235847488311542E+00   0.117781342565547E+00   0.162194E-01   0.149605E+00   0.184849E+03   0.185361E-14
   LPB:    3  -0.235229454173557E+00   0.134021185157035E+00   0.253770E-01   0.195109E+00   0.110403E+03   0.127403E-14
   LPB:    4  -0.234731006175366E+00   0.158639974668191E+00   0.307508E-01   0.665566E+00   0.117380E+03   0.101332E-14
   LPB:    5  -0.234232751493557E+00   0.834206751847591E-01   0.258723E-01   0.118810E+01   0.140584E+03   0.627885E-15
   LPB:    6  -0.233762872434672E+00   0.306739822223397E-01   0.317823E-01   0.767688E+00   0.156030E+03  -0.919592E-16
  Finished solving LPB equations
  A_corr:   -0.161266728125619     
 End minimization
 Ecorr=   1727.24803350939     
 A_corr= -0.161266728125619     
 Ecorr_band=  -1727.40930023751     
 End Solvation calculations
RMM:  14    -0.135479817099E+03    0.10555E+00   -0.15733E-01 12474   0.143E+00    0.118E+00
 Begin Solvation calculations
  rms_SCF =   0.250094553300178      tol =   2.500945533001779E-002
 Begin minimization
 Creating dielectric and ionic cavities
  area:      138.586197915132     
  volume:    656.177442387760     
  Acav:     7.275775390544413E-002
  Solving linear dielectric/ionic screening model
        iter                  A_solv                     rms
   LPB:       -0.252856640198942E+00   0.969289509732107E+00
   LPB:    0  -0.252378418758045E+00   0.111031339906395E+01   0.583126E-02   0.000000E+00   0.281277E+02   0.164020E+00
   LPB:    1  -0.244613668852402E+00   0.383501635957099E+00   0.113708E-01   0.000000E+00   0.789594E+02   0.557392E-17
   LPB:    2  -0.243393818529308E+00   0.727912111332042E-01   0.141989E-01   0.125809E+00   0.106187E+03  -0.652644E-15
   LPB:    3  -0.243114170393442E+00   0.625890772021069E-01   0.207362E-01   0.156976E+00   0.303630E+03  -0.643655E-15
   LPB:    4  -0.242930816871847E+00   0.748108550617631E-01   0.316216E-01   0.429954E+00   0.740823E+02  -0.843207E-15
   LPB:    5  -0.242632580385474E+00   0.572513246348401E-01   0.429118E-01   0.119861E+01   0.176148E+03  -0.809670E-15
   LPB:    6  -0.242317744114627E+00   0.225073091653198E-01   0.404454E-01   0.112004E+01   0.714764E+02  -0.191845E-14
  Finished solving LPB equations
  A_corr:   -0.169559990209183     
 End minimization
 Ecorr=   1714.92632430900     
 A_corr= -0.169559990209183     
 Ecorr_band=  -1715.09588429921     
 End Solvation calculations
RMM:  15    -0.135474233370E+03    0.55837E-02   -0.10160E-01 12549   0.886E-01    0.625E-01
 Begin Solvation calculations
  rms_SCF =   0.250094553300178      tol =   2.500945533001779E-002
 Begin minimization
 Creating dielectric and ionic cavities
  area:      138.517721462162     
  volume:    655.786265260725     
  Acav:     7.272180376763498E-002
  Solving linear dielectric/ionic screening model
        iter                  A_solv                     rms
   LPB:       -0.244509724056370E+00   0.219925710886018E+00
   LPB:    0  -0.244505679132399E+00   0.196936208586577E+00  -0.536120E-03   0.000000E+00   0.281460E+02  -0.150896E-01
   LPB:    1  -0.243921244370941E+00   0.937020673579597E-01   0.144546E-01   0.000000E+00   0.100572E+03   0.129339E-17
   LPB:    2  -0.243825072440211E+00   0.315476470929227E-01   0.160597E-01   0.148109E+00   0.949816E+02   0.125524E-15
   LPB:    3  -0.243791860007013E+00   0.275643988706219E-01   0.235950E-01   0.235056E+00   0.236991E+03   0.200752E-15
   LPB:    4  -0.243742819229063E+00   0.515274898918894E-01   0.409461E-01   0.850872E+00   0.825917E+02   0.296041E-15
   LPB:    5  -0.243677248092256E+00   0.322079135632936E-01   0.305862E-01   0.178995E+01   0.257031E+03   0.480362E-15
   LPB:    6  -0.243609361380391E+00   0.161962545456367E-01   0.386850E-01   0.818568E+00   0.748506E+02   0.670506E-15
  Finished solving LPB equations
  A_corr:   -0.170887557612756     
 End minimization
 Ecorr=   1712.23737752075     
 A_corr= -0.170887557612756     
 Ecorr_band=  -1712.40826507836     
 End Solvation calculations
RMM:  16    -0.135474058877E+03    0.17449E-03   -0.13411E-02 15567   0.275E-01    0.582E-01
 Begin Solvation calculations
  rms_SCF =   0.250094553300178      tol =   2.500945533001779E-002
 Begin minimization
 Creating dielectric and ionic cavities
  area:      138.594919402872     
  volume:    655.407982543145     
  Acav:     7.276233268650770E-002
  Solving linear dielectric/ionic screening model
        iter                  A_solv                     rms
   LPB:       -0.244880583733829E+00   0.391644784507531E+00
   LPB:    0  -0.244871419882788E+00   0.379847014010932E+00  -0.806694E-03   0.000000E+00   0.281638E+02  -0.227195E-01
   LPB:    1  -0.244153640312936E+00   0.942982622370355E-01   0.124051E-01   0.000000E+00   0.628956E+02  -0.118416E-18
   LPB:    2  -0.244018019300729E+00   0.267915964061695E-01   0.140723E-01   0.166561E+00   0.223058E+03  -0.150797E-15
   LPB:    3  -0.243987937158413E+00   0.164389919785815E-01   0.201752E-01   0.154713E+00   0.202296E+03  -0.182770E-15
   LPB:    4  -0.243973393640226E+00   0.192461352542564E-01   0.284016E-01   0.343429E+00   0.140322E+03  -0.186463E-15
  Finished solving LPB equations
  A_corr:   -0.171211060953718     
 End minimization
 Ecorr=   1711.67478950812     
 A_corr= -0.171211060953718     
 Ecorr_band=  -1711.84600056907     
 End Solvation calculations
RMM:  17    -0.135469059092E+03    0.49998E-02   -0.35957E-03 12293   0.186E-01    0.377E-01
 Begin Solvation calculations
  rms_SCF =   0.250094553300178      tol =   2.500945533001779E-002
 Begin minimization
 Creating dielectric and ionic cavities
  area:      139.185339446924     
  volume:    653.958774495003     
  Acav:     7.307230320963523E-002
  Solving linear dielectric/ionic screening model
        iter                  A_solv                     rms
   LPB:       -0.258779707499434E+00   0.912017075973343E+00
   LPB:    0  -0.258779525213558E+00   0.915028310633433E+00   0.113638E-03   0.000000E+00   0.282317E+02   0.320819E-02
   LPB:    1  -0.249959329290723E+00   0.239087373089784E+00   0.144868E-01   0.000000E+00   0.872903E+02  -0.152223E-18
   LPB:    2  -0.248892891431854E+00   0.109709091016812E+00   0.146041E-01   0.119937E+00   0.172323E+03  -0.173516E-14
   LPB:    3  -0.248650853672341E+00   0.705328784822381E-01   0.192948E-01   0.171784E+00   0.963432E+02  -0.124671E-14
   LPB:    4  -0.248553274336152E+00   0.577318421370639E-01   0.205733E-01   0.378105E+00   0.194537E+03  -0.124905E-14
   LPB:    5  -0.248491706757445E+00   0.257807283019265E-01   0.233078E-01   0.556925E+00   0.105683E+03  -0.121138E-14
   LPB:    6  -0.248446694465240E+00   0.976797362779597E-02   0.337645E-01   0.504685E+00   0.225324E+03  -0.102051E-14
  Finished solving LPB equations
  A_corr:   -0.175374391255605     
 End minimization
 Ecorr=   1707.69772471745     
 A_corr= -0.175374391255605     
 Ecorr_band=  -1707.87309910870     
 End Solvation calculations
RMM:  18    -0.135467716503E+03    0.13426E-02   -0.55947E-03 12396   0.210E-01    0.198E-01
 Begin Solvation calculations
  rms_SCF =   0.250094553300178      tol =   2.500945533001779E-002
 Begin minimization
 Creating dielectric and ionic cavities
  area:      139.918150612567     
  volume:    652.264562447077     
  Acav:     7.345702907159786E-002
  Solving linear dielectric/ionic screening model
        iter                  A_solv                     rms
   LPB:       -0.274118931433380E+00   0.124323196871309E+01
   LPB:    0  -0.274118845394616E+00   0.124101701910855E+01  -0.779621E-04   0.000000E+00   0.283111E+02  -0.220719E-02
   LPB:    1  -0.258133133346460E+00   0.321907871905124E+00   0.143427E-01   0.000000E+00   0.860494E+02  -0.118747E-18
   LPB:    2  -0.256182464183451E+00   0.136129415937414E+00   0.147128E-01   0.118956E+00   0.166604E+03  -0.304938E-14
   LPB:    3  -0.255791919720025E+00   0.870150279636136E-01   0.191065E-01   0.154170E+00   0.968497E+02  -0.264559E-14
   LPB:    4  -0.255630360932640E+00   0.806827501512448E-01   0.213871E-01   0.369564E+00   0.193947E+03  -0.309209E-14
   LPB:    5  -0.255516582742958E+00   0.386214830363691E-01   0.237727E-01   0.633580E+00   0.980632E+02  -0.325028E-14
   LPB:    6  -0.255422093785875E+00   0.141088479871595E-01   0.343032E-01   0.575526E+00   0.186495E+03  -0.345260E-14
  Finished solving LPB equations
  A_corr:   -0.181965064714277     
 End minimization
 Ecorr=   1701.86605150918     
 A_corr= -0.181965064714277     
 Ecorr_band=  -1702.04801657389     
 End Solvation calculations
RMM:  19    -0.135468310924E+03   -0.59442E-03   -0.47724E-03 12337   0.156E-01    0.246E-01
 Begin Solvation calculations
  rms_SCF =   0.201419489550984      tol =   2.014194895509837E-002
 Begin minimization
 Creating dielectric and ionic cavities
  area:      140.084254292272     
  volume:    651.978691342907     
  Acav:     7.354423350344295E-002
  Solving linear dielectric/ionic screening model
        iter                  A_solv                     rms
   LPB:       -0.258404277110349E+00   0.374383155019767E+00
   LPB:    0  -0.258396841369973E+00   0.387256690573999E+00   0.724596E-03   0.000000E+00   0.283245E+02   0.205238E-01
   LPB:    1  -0.257265198384377E+00   0.898743348977412E-01   0.140644E-01   0.000000E+00   0.702950E+02  -0.149943E-17
   LPB:    2  -0.257116463494038E+00   0.457851802918007E-01   0.141435E-01   0.130698E+00   0.211074E+03   0.308199E-15
   LPB:    3  -0.257077761927477E+00   0.280941998607061E-01   0.192292E-01   0.191387E+00   0.941203E+02   0.359035E-15
   LPB:    4  -0.257035986904481E+00   0.453296001748973E-01   0.385169E-01   0.538887E+00   0.103935E+03   0.393968E-15
   LPB:    5  -0.256973148627807E+00   0.342420636713153E-01   0.361139E-01   0.160429E+01   0.663365E+02   0.426131E-15
   LPB:    6  -0.256921999286924E+00   0.939681996448645E-02   0.303038E-01   0.970048E+00   0.941532E+02   0.606010E-15
  Finished solving LPB equations
  A_corr:   -0.183377765783481     
 End minimization
 Ecorr=   1699.69213648776     
 A_corr= -0.183377765783481     
 Ecorr_band=  -1699.87551425354     
 End Solvation calculations
RMM:  20    -0.135468106404E+03    0.20452E-03   -0.38659E-04  7901   0.678E-02    0.204E-01
 Begin Solvation calculations
  rms_SCF =   0.201419489550984      tol =   2.014194895509837E-002
 Begin minimization
 Creating dielectric and ionic cavities
  area:      140.113289063263     
  volume:    651.947814944072     
  Acav:     7.355947675821323E-002
  Solving linear dielectric/ionic screening model
        iter                  A_solv                     rms
   LPB:       -0.257413550044380E+00   0.195596801965360E+00
   LPB:    0  -0.257413087307135E+00   0.193603707232492E+00  -0.180755E-03   0.000000E+00   0.283260E+02  -0.512006E-02
   LPB:    1  -0.257247392430843E+00   0.414706728024941E-01   0.122107E-01   0.000000E+00   0.580693E+02   0.219316E-18
   LPB:    2  -0.257221255415395E+00   0.121945425315923E-01   0.134424E-01   0.143287E+00   0.233108E+03  -0.104636E-15
   LPB:    3  -0.257214989895396E+00   0.691091473997630E-02   0.207526E-01   0.155277E+00   0.190338E+03  -0.112791E-15
   LPB:    4  -0.257205782332026E+00   0.200998473693412E-01   0.628067E-01   0.485572E+00   0.105719E+03  -0.109224E-15
  Finished solving LPB equations
  A_corr:   -0.183646305573813     
 End minimization
 Ecorr=   1699.18597506912     
 A_corr= -0.183646305573813     
 Ecorr_band=  -1699.36962137470     
 End Solvation calculations
RMM:  21    -0.135467841370E+03    0.26503E-03   -0.15950E-04  7229   0.481E-02    0.164E-01
 Begin Solvation calculations
  rms_SCF =   0.201419489550984      tol =   2.014194895509837E-002
 Begin minimization
 Creating dielectric and ionic cavities
  area:      140.545119788933     
  volume:    651.361763072589     
  Acav:     7.378618788919004E-002
  Solving linear dielectric/ionic screening model
        iter                  A_solv                     rms
   LPB:       -0.280261302504396E+00   0.165887911268259E+01
   LPB:    0  -0.280201906509929E+00   0.162222038439685E+01  -0.204687E-02   0.000000E+00   0.283534E+02  -0.580359E-01
   LPB:    1  -0.264895581366271E+00   0.363822107785292E+00   0.134001E-01   0.000000E+00   0.612124E+02  -0.565231E-17
   LPB:    2  -0.262945069495622E+00   0.145772369839094E+00   0.130523E-01   0.130827E+00   0.214839E+03   0.682552E-15
   LPB:    3  -0.262559660155317E+00   0.624885399608433E-01   0.172144E-01   0.149820E+00   0.118722E+03   0.114739E-14
   LPB:    4  -0.262428495862707E+00   0.578063009294438E-01   0.216141E-01   0.271050E+00   0.156443E+03   0.127507E-14
   LPB:    5  -0.262362217030342E+00   0.264702699598195E-01   0.240723E-01   0.453710E+00   0.828158E+02   0.120764E-14
   LPB:    6  -0.262319934379670E+00   0.101850177749841E-01   0.319663E-01   0.480410E+00   0.195598E+03   0.614037E-15
  Finished solving LPB equations
  A_corr:   -0.188533746490480     
 End minimization
 Ecorr=   1695.64351382829     
 A_corr= -0.188533746490480     
 Ecorr_band=  -1695.83204757479     
 End Solvation calculations
RMM:  22    -0.135468915826E+03   -0.10745E-02   -0.40721E-03 12100   0.128E-01    0.133E-01
 Begin Solvation calculations
  rms_SCF =   9.299290703859781E-002 tol =   9.299290703859781E-003
 Begin minimization
 Creating dielectric and ionic cavities
  area:      140.637369353763     
  volume:    651.272088510907     
  Acav:     7.383461891072539E-002
  Solving linear dielectric/ionic screening model
        iter                  A_solv                     rms
   LPB:       -0.264067474910436E+00   0.285306823266217E+00
   LPB:    0  -0.264062948355945E+00   0.273111576997906E+00  -0.565020E-03   0.000000E+00   0.283577E+02  -0.160226E-01
   LPB:    1  -0.263451531367514E+00   0.537543522706272E-01   0.141443E-01   0.000000E+00   0.760706E+02   0.226388E-18
   LPB:    2  -0.263382177651587E+00   0.312359568444466E-01   0.152054E-01   0.105515E+00   0.180262E+03  -0.222968E-15
   LPB:    3  -0.263363680645167E+00   0.215625178117247E-01   0.201370E-01   0.201388E+00   0.745314E+02  -0.392582E-15
   LPB:    4  -0.263341566619939E+00   0.365487652105111E-01   0.382914E-01   0.628725E+00   0.121316E+03  -0.405336E-15
   LPB:    5  -0.263313511048152E+00   0.254156765173593E-01   0.302698E-01   0.160488E+01   0.492282E+02  -0.427593E-15
   LPB:    6  -0.263292328334582E+00   0.625118381586991E-02   0.280315E-01   0.815316E+00   0.113509E+03  -0.610460E-15
  Finished solving LPB equations
  A_corr:   -0.189457709423857     
 End minimization
 Ecorr=   1694.81120548805     
 A_corr= -0.189457709423857     
 Ecorr_band=  -1695.00066319748     
 End Solvation calculations
RMM:  23    -0.135469073473E+03   -0.15765E-03   -0.21493E-04  7500   0.621E-02    0.123E-01
 Begin Solvation calculations
  rms_SCF =   9.299290703859781E-002 tol =   9.299290703859781E-003
 Begin minimization
 Creating dielectric and ionic cavities
  area:      140.725044859614     
  volume:    651.240217697746     
  Acav:     7.388064855129726E-002
  Solving linear dielectric/ionic screening model
        iter                  A_solv                     rms
   LPB:       -0.265615262546238E+00   0.454689428039655E+00
   LPB:    0  -0.265589520086260E+00   0.430076609839254E+00  -0.134739E-02   0.000000E+00   0.283591E+02  -0.382108E-01
   LPB:    1  -0.264551924997367E+00   0.867980561561769E-01   0.132307E-01   0.000000E+00   0.612064E+02  -0.237245E-17
   LPB:    2  -0.264435140028583E+00   0.378546916860858E-01   0.129223E-01   0.115240E+00   0.224755E+03  -0.940150E-16
   LPB:    3  -0.264414331523961E+00   0.126656850493415E-01   0.157385E-01   0.146295E+00   0.112151E+03  -0.622463E-16
   LPB:    4  -0.264407814252955E+00   0.141473185675325E-01   0.235886E-01   0.208972E+00   0.126694E+03  -0.636299E-16
   LPB:    5  -0.264402459829680E+00   0.104196953527904E-01   0.313360E-01   0.618450E+00   0.770225E+02  -0.130600E-15
   LPB:    6  -0.264394459804039E+00   0.555526854608261E-02   0.472058E-01   0.991806E+00   0.835983E+02  -0.257889E-15
  Finished solving LPB equations
  A_corr:   -0.190513811252742     
 End minimization
 Ecorr=   1694.18408506716     
 A_corr= -0.190513811252742     
 Ecorr_band=  -1694.37459887841     
 End Solvation calculations
RMM:  24    -0.135469181399E+03   -0.10793E-03   -0.25720E-04  7499   0.528E-02    0.791E-02
 Begin Solvation calculations
  rms_SCF =   9.299290703859781E-002 tol =   9.299290703859781E-003
 Begin minimization
 Creating dielectric and ionic cavities
  area:      140.829352345871     
  volume:    651.244174651387     
  Acav:     7.393540998158230E-002
  Solving linear dielectric/ionic screening model
        iter                  A_solv                     rms
   LPB:       -0.268634139385679E+00   0.697141153688179E+00
   LPB:    0  -0.268551244130841E+00   0.652523501499199E+00  -0.241788E-02   0.000000E+00   0.283590E+02  -0.685686E-01
   LPB:    1  -0.266364168840272E+00   0.130619414969723E+00   0.129858E-01   0.000000E+00   0.582366E+02  -0.286434E-17
   LPB:    2  -0.266111395730249E+00   0.539432546131103E-01   0.127883E-01   0.117361E+00   0.219334E+03  -0.147564E-14
   LPB:    3  -0.266065363143598E+00   0.178043818617303E-01   0.161887E-01   0.143859E+00   0.112863E+03  -0.171181E-14
   LPB:    4  -0.266051640833252E+00   0.196977517254878E-01   0.232284E-01   0.207756E+00   0.124467E+03  -0.169279E-14
   LPB:    5  -0.266042944444204E+00   0.117026119748098E-01   0.271536E-01   0.542129E+00   0.751213E+02  -0.164212E-14
   LPB:    6  -0.266034904068455E+00   0.492561228761664E-02   0.359555E-01   0.698232E+00   0.107904E+03  -0.196748E-14
  Finished solving LPB equations
  A_corr:   -0.192099494086873     
 End minimization
 Ecorr=   1693.46568477010     
 A_corr= -0.192099494086873     
 Ecorr_band=  -1693.65778426419     
 End Solvation calculations
RMM:  25    -0.135469520849E+03   -0.33945E-03   -0.66876E-04  9640   0.567E-02    0.567E-02
 Begin Solvation calculations
  rms_SCF =   8.795790165181007E-002 tol =   8.795790165181007E-003
 Begin minimization
 Creating dielectric and ionic cavities
  area:      140.955870580653     
  volume:    651.262033274655     
  Acav:     7.400183205484266E-002
  Solving linear dielectric/ionic screening model
        iter                  A_solv                     rms
   LPB:       -0.272851785054612E+00   0.916458223457987E+00
   LPB:    0  -0.272729302014622E+00   0.862113353576603E+00  -0.293910E-02   0.000000E+00   0.283581E+02  -0.833473E-01
   LPB:    1  -0.269034133683936E+00   0.172892557757549E+00   0.129300E-01   0.000000E+00   0.566315E+02  -0.569017E-17
   LPB:    2  -0.268594787617397E+00   0.694744658768794E-01   0.127998E-01   0.120107E+00   0.216397E+03  -0.207570E-14
   LPB:    3  -0.268513084633369E+00   0.240127520799056E-01   0.165342E-01   0.143963E+00   0.114496E+03  -0.247722E-14
   LPB:    4  -0.268487780022639E+00   0.262850382794606E-01   0.233139E-01   0.219650E+00   0.124197E+03  -0.253666E-14
   LPB:    5  -0.268472748020816E+00   0.148234107472120E-01   0.261909E-01   0.528789E+00   0.777019E+02  -0.254993E-14
   LPB:    6  -0.268460325081889E+00   0.603703770060692E-02   0.341212E-01   0.634357E+00   0.119069E+03  -0.254879E-14
  Finished solving LPB equations
  A_corr:   -0.194458493027046     
 End minimization
 Ecorr=   1692.29913034544     
 A_corr= -0.194458493027046     
 Ecorr_band=  -1692.49358883847     
 End Solvation calculations
RMM:  26    -0.135469819272E+03   -0.29842E-03   -0.21992E-04  7322   0.533E-02    0.343E-02
 Begin Solvation calculations
  rms_SCF =   5.621734692103252E-002 tol =   5.621734692103252E-003
 Begin minimization
 Creating dielectric and ionic cavities
  area:      140.953046901303     
  volume:    651.332459071545     
  Acav:     7.400034962318421E-002
  Solving linear dielectric/ionic screening model
        iter                  A_solv                     rms
   LPB:       -0.268972861334765E+00   0.235501801870263E+00
   LPB:    0  -0.268961260019241E+00   0.223017431468715E+00  -0.904597E-03   0.000000E+00   0.283548E+02  -0.256497E-01
   LPB:    1  -0.268763182473188E+00   0.393737899671459E-01   0.115977E-01   0.000000E+00   0.577754E+02   0.144722E-18
   LPB:    2  -0.268741431480714E+00   0.143283086604103E-01   0.125060E-01   0.101835E+00   0.203297E+03   0.840465E-16
   LPB:    3  -0.268735811264888E+00   0.436550188566027E-02   0.212117E-01   0.152340E+00   0.972063E+02   0.939074E-16
   LPB:    4  -0.268729839604447E+00   0.117727276008623E-01   0.587485E-01   0.383638E+00   0.810130E+02   0.130824E-15
   LPB:    5  -0.268721218367283E+00   0.136127623200613E-01   0.409255E-01   0.207242E+01   0.615148E+02   0.133127E-15
   LPB:    6  -0.268715541102279E+00   0.791890175717599E-02   0.250279E-01   0.107681E+01   0.702706E+02   0.167617E-15
   LPB:    7  -0.268712415522877E+00   0.243636564635223E-02   0.274183E-01   0.502544E+00   0.167148E+03   0.459163E-16
  Finished solving LPB equations
  A_corr:   -0.194712065899693     
 End minimization
 Ecorr=   1692.01773158747     
 A_corr= -0.194712065899693     
 Ecorr_band=  -1692.21244365337     
 End Solvation calculations
RMM:  27    -0.135469934716E+03   -0.11544E-03   -0.14463E-04  7277   0.370E-02    0.409E-02
 Begin Solvation calculations
  rms_SCF =   5.621734692103252E-002 tol =   5.621734692103252E-003
 Begin minimization
 Creating dielectric and ionic cavities
  area:      140.980187134860     
  volume:    651.383808506386     
  Acav:     7.401459824580155E-002
  Solving linear dielectric/ionic screening model
        iter                  A_solv                     rms
   LPB:       -0.270877742995044E+00   0.538050184289873E+00
   LPB:    0  -0.270819447217172E+00   0.505045021434807E+00  -0.202786E-02   0.000000E+00   0.283524E+02  -0.574948E-01
   LPB:    1  -0.269883054540697E+00   0.896531489611740E-01   0.115647E-01   0.000000E+00   0.529610E+02  -0.206044E-17
   LPB:    2  -0.269763754620016E+00   0.271290328083476E-01   0.127177E-01   0.115854E+00   0.195860E+03  -0.354667E-15
   LPB:    3  -0.269743934863955E+00   0.893598451961534E-02   0.177712E-01   0.118892E+00   0.137547E+03  -0.396891E-15
   LPB:    4  -0.269739726162061E+00   0.888775208964383E-02   0.220019E-01   0.171516E+00   0.130788E+03  -0.400027E-15
   LPB:    5  -0.269737997795702E+00   0.486538597206520E-02   0.230390E-01   0.392179E+00   0.106143E+03  -0.376647E-15
  Finished solving LPB equations
  A_corr:   -0.195723399549900     
 End minimization
 Ecorr=   1691.71042654606     
 A_corr= -0.195723399549900     
 Ecorr_band=  -1691.90614994561     
 End Solvation calculations
RMM:  28    -0.135469969210E+03   -0.34494E-04   -0.60798E-05  7034   0.259E-02
 Begin Solvation calculations
  rms_SCF =   5.621734692103252E-002 tol =   5.621734692103252E-003
 Begin minimization
 Creating dielectric and ionic cavities
  area:      140.987236774794     
  volume:    651.437228105899     
  Acav:     7.401829930676665E-002
  Solving linear dielectric/ionic screening model
        iter                  A_solv                     rms
   LPB:       -0.270767913645891E+00   0.349136872457946E+00
   LPB:    0  -0.270739068816403E+00   0.325211873991535E+00  -0.142650E-02   0.000000E+00   0.283499E+02  -0.404413E-01
   LPB:    1  -0.270369010138200E+00   0.535583870544712E-01   0.111241E-01   0.000000E+00   0.542720E+02  -0.277925E-18
   LPB:    2  -0.270326951981255E+00   0.166836898871259E-01   0.124780E-01   0.101320E+00   0.186196E+03   0.213085E-16
   LPB:    3  -0.270319738576843E+00   0.553393808104554E-02   0.190400E-01   0.112401E+00   0.107697E+03   0.530714E-17
   LPB:    4  -0.270317310213932E+00   0.714036324405082E-02   0.286687E-01   0.223579E+00   0.834734E+02  -0.110695E-16
   LPB:    5  -0.270315713763024E+00   0.549635845321550E-02   0.281566E-01   0.669376E+00   0.104931E+03  -0.138604E-16
  Finished solving LPB equations
  A_corr:   -0.196297414456257     
 End minimization
 Ecorr=   1691.44754953060     
 A_corr= -0.196297414456257     
 Ecorr_band=  -1691.64384694506     
 End Solvation calculations
   1 F= -.13546997E+03 E0= -.13546628E+03  d E =-.135470E+03
quench:  g(F)=  0.000E+00 g(S)=  0.000E+00 dE (1.order)= 0.000E+00
 bond charge predicted
       N       E                     dE             d eps       ncg     rms          rms(c)
 Begin Solvation calculations
  rms_SCF =   5.621734692103252E-002 tol =   5.621734692103252E-003
 Begin minimization
 Creating dielectric and ionic cavities
  area:      140.990992630972     
  volume:    651.440042143340     
  Acav:     7.402027113126007E-002
  Solving linear dielectric/ionic screening model
        iter                  A_solv                     rms
   LPB:       -0.270336184746915E+00   0.562241699505650E-02
   LPB:    0  -0.270336184744916E+00   0.563835653762295E-02   0.375517E-06   0.000000E+00   0.283498E+02   0.106458E-04
   LPB:    1  -0.270304010692806E+00   0.387529921697264E-02   0.158432E-01   0.000000E+00   0.544527E+04  -0.723363E-21
   LPB:    2  -0.270300474522824E+00   0.552229600393708E-02   0.260298E-01   0.668959E-01   0.577221E+03  -0.116033E-16
   LPB:    3  -0.270299091905524E+00   0.625828359801249E-02   0.260936E-01   0.390037E+00   0.152934E+03  -0.254324E-16
   LPB:    4  -0.270297876925221E+00   0.355387824288434E-02   0.295279E-01   0.776549E+00   0.186330E+03   0.135803E-16
  Finished solving LPB equations
  A_corr:   -0.196277605793961     
 End minimization
 Ecorr=   1691.42085924953     
 A_corr= -0.196277605793961     
 Ecorr_band=  -1691.61713685532     
 End Solvation calculations
DAV:   1    -0.135470039721E+03   -0.10500E-03   -0.26026E-03 13950   0.125E-01    0.168E-02
 Begin Solvation calculations
  rms_SCF =   1.064801194585023E-002 tol =   1.064801194585023E-003
 Begin minimization
 Creating dielectric and ionic cavities
  area:      140.990579417869     
  volume:    651.441975387209     
  Acav:     7.402005419438122E-002
  Solving linear dielectric/ionic screening model
        iter                  A_solv                     rms
   LPB:       -0.270446944245757E+00   0.917867732516704E-01
   LPB:    0  -0.270446702412902E+00   0.904121728611720E-01  -0.130617E-03   0.000000E+00   0.283497E+02  -0.370294E-02
   LPB:    1  -0.270422142150210E+00   0.113116257762006E-01   0.960442E-02   0.000000E+00   0.631634E+02   0.117174E-18
   LPB:    2  -0.270419665221272E+00   0.306536909156453E-02   0.138359E-01   0.700074E-01   0.159009E+03   0.601171E-17
   LPB:    3  -0.270418868914521E+00   0.158610328699515E-02   0.301763E-01   0.147404E+00   0.103497E+03  -0.786213E-17
   LPB:    4  -0.270417940901837E+00   0.246776024675647E-02   0.553212E-01   0.635694E+00   0.130154E+03  -0.120286E-16
   LPB:    5  -0.270416498321773E+00   0.452889987063627E-02   0.549059E-01   0.156624E+01   0.123285E+03  -0.199972E-16
   LPB:    6  -0.270414912962960E+00   0.577333029568141E-02   0.375405E-01   0.160734E+01   0.601059E+02  -0.669934E-16
   LPB:    7  -0.270413764270016E+00   0.328163618593756E-02   0.267823E-01   0.101561E+01   0.124283E+03  -0.102268E-15
   LPB:    8  -0.270412847867398E+00   0.198637030284352E-02   0.329034E-01   0.649365E+00   0.183610E+03  -0.150707E-15
   LPB:    9  -0.270412017752643E+00   0.129667804378652E-02   0.435346E-01   0.684635E+00   0.364287E+03  -0.208300E-15
   LPB:   10  -0.270411165113384E+00   0.118641520605369E-02   0.473643E-01   0.944084E+00   0.112859E+04  -0.262648E-15
   LPB:   11  -0.270410321678798E+00   0.121576154860670E-02   0.453016E-01   0.103424E+01   0.642835E+03  -0.313091E-15
   LPB:   12  -0.270409522426269E+00   0.916500921586910E-03   0.451091E-01   0.951660E+00   0.234045E+04  -0.348988E-15
  Finished solving LPB equations
  A_corr:   -0.196389468231887     
 End minimization
 Ecorr=   1691.14830489087     
 A_corr= -0.196389468231887     
 Ecorr_band=  -1691.34469435910     
 End Solvation calculations
RMM:   2    -0.135470065803E+03   -0.26082E-04   -0.13668E-04  6966   0.392E-02
 Begin Solvation calculations
  rms_SCF =   1.064801194585023E-002 tol =   1.064801194585023E-003
 Begin minimization
 Creating dielectric and ionic cavities
  area:      140.991202880045     
  volume:    651.431994210416     
  Acav:     7.402038151202364E-002
  Solving linear dielectric/ionic screening model
        iter                  A_solv                     rms
   LPB:       -0.270532477143931E+00   0.433547931836623E-01
   LPB:    0  -0.270530933544178E+00   0.335422582417123E-01  -0.329993E-03   0.000000E+00   0.283502E+02  -0.935535E-02
   LPB:    1  -0.270527226039388E+00   0.548217757240816E-02   0.101691E-01   0.000000E+00   0.557551E+02  -0.709314E-18
   LPB:    2  -0.270526595619854E+00   0.186681638049883E-02   0.164452E-01   0.105146E+00   0.109412E+03   0.168474E-16
   LPB:    3  -0.270526283263203E+00   0.223359053957746E-02   0.297953E-01   0.273472E+00   0.271633E+03   0.188633E-16
   LPB:    4  -0.270525920748296E+00   0.294419815434299E-02   0.414408E-01   0.834439E+00   0.143006E+03   0.200148E-16
   LPB:    5  -0.270525610494254E+00   0.222051212307841E-02   0.299922E-01   0.118253E+01   0.182847E+03   0.140939E-16
   LPB:    6  -0.270525282198397E+00   0.101702565032080E-02   0.354792E-01   0.894505E+00   0.222200E+03   0.381090E-16
  Finished solving LPB equations
  A_corr:   -0.196504900686373     
 End minimization
 Ecorr=   1691.10278417034     
 A_corr= -0.196504900686373     
 Ecorr_band=  -1691.29928907102     
 End Solvation calculations
   2 F= -.13547007E+03 E0= -.13546635E+03  d E =-.965930E-04
quench:  g(F)=  0.000E+00 g(S)=  0.000E+00 dE (1.order)= 0.000E+00
 bond charge predicted
       N       E                     dE             d eps       ncg     rms          rms(c)
 Begin Solvation calculations
  rms_SCF =   1.064801194585023E-002 tol =   1.064801194585023E-003
 Begin minimization
 Creating dielectric and ionic cavities
  area:      140.996249407896     
  volume:    651.434256035445     
  Acav:     7.402303093914553E-002
  Solving linear dielectric/ionic screening model
        iter                  A_solv                     rms
   LPB:       -0.270592065631391E+00   0.138079562046189E-02
   LPB:    0  -0.270592065630899E+00   0.137485372101259E-02   0.186230E-06   0.000000E+00   0.283500E+02   0.527962E-05
   LPB:    1  -0.270533729066000E+00   0.675447170870001E-03   0.160337E-01   0.000000E+00   0.190179E+06  -0.323396E-22
   LPB:    2  -0.270527655655351E+00   0.971968487391247E-03   0.263498E-01   0.633501E-01   0.380384E+05  -0.431014E-17
   LPB:    3  -0.270525774991519E+00   0.170041297224539E-02   0.322179E-01   0.253256E+00   0.302431E+04  -0.788360E-17
   LPB:    4  -0.270524968238307E+00   0.329134818592585E-02   0.330905E-01   0.417661E+00   0.593450E+03  -0.654908E-17
   LPB:    5  -0.270524585129247E+00   0.348116926522385E-02   0.249186E-01   0.630609E+00   0.142212E+03   0.579971E-18
   LPB:    6  -0.270524283262777E+00   0.213842135109032E-02   0.264148E-01   0.743309E+00   0.232679E+03  -0.680158E-17
   LPB:    7  -0.270524060120821E+00   0.319750081020131E-02   0.306059E-01   0.637981E+00   0.293170E+03  -0.376221E-16
   LPB:    8  -0.270523882176039E+00   0.199781857650209E-02   0.232737E-01   0.104868E+01   0.137599E+03  -0.573289E-16
   LPB:    9  -0.270523663253089E+00   0.819819133934041E-03   0.382826E-01   0.747948E+00   0.547428E+03  -0.822719E-16
  Finished solving LPB equations
  A_corr:   -0.196500632313944     
 End minimization
 Ecorr=   1691.13056706136     
 A_corr= -0.196500632313944     
 Ecorr_band=  -1691.32706769368     
 End Solvation calculations
DAV:   1    -0.135470087143E+03   -0.47422E-04   -0.41494E-03 14679   0.157E-01    0.236E-02
 Begin Solvation calculations
  rms_SCF =   5.637681696306016E-003 tol =   5.637681696306015E-004
 Begin minimization
 Creating dielectric and ionic cavities
  area:      140.998720873016     
  volume:    651.428967079166     
  Acav:     7.402432845833329E-002
  Solving linear dielectric/ionic screening model
        iter                  A_solv                     rms
   LPB:       -0.270602339267600E+00   0.336113776703747E-01
   LPB:    0  -0.270601516184720E+00   0.256899024646592E-01  -0.240967E-03   0.000000E+00   0.283503E+02  -0.683149E-02
   LPB:    1  -0.270597064584994E+00   0.687712715450017E-02   0.114235E-01   0.000000E+00   0.837187E+02  -0.213192E-18
   LPB:    2  -0.270596458215841E+00   0.274748511898143E-02   0.137863E-01   0.112869E+00   0.164399E+03  -0.572652E-16
   LPB:    3  -0.270596228579294E+00   0.144740874517022E-02   0.238991E-01   0.218459E+00   0.187884E+03  -0.591713E-16
   LPB:    4  -0.270596095828643E+00   0.137766550152392E-02   0.332961E-01   0.414939E+00   0.141165E+03  -0.532053E-16
   LPB:    5  -0.270595993152320E+00   0.144740364592027E-02   0.316641E-01   0.813317E+00   0.308521E+03  -0.504304E-16
   LPB:    6  -0.270595865390099E+00   0.105834633804816E-02   0.369076E-01   0.106754E+01   0.128429E+03  -0.574111E-16
   LPB:    7  -0.270595689783538E+00   0.774576423963946E-03   0.506450E-01   0.100165E+01   0.892569E+03  -0.587038E-16
   LPB:    8  -0.270595458215047E+00   0.835224510045565E-03   0.520060E-01   0.128417E+01   0.243607E+03  -0.703383E-16
   LPB:    9  -0.270595144995594E+00   0.619543847205167E-03   0.522828E-01   0.134544E+01   0.811186E+03  -0.906958E-16
   LPB:   10  -0.270594738664840E+00   0.626470851863380E-03   0.518836E-01   0.130725E+01   0.625968E+03  -0.117440E-15
   LPB:   11  -0.270594318182641E+00   0.633456038944926E-03   0.457572E-01   0.117338E+01   0.808078E+03  -0.150255E-15
   LPB:   12  -0.270593965243857E+00   0.606753511560433E-03   0.420202E-01   0.914014E+00   0.151639E+04  -0.183844E-15
   LPB:   13  -0.270593686267438E+00   0.562439020627391E-03   0.399944E-01   0.830476E+00   0.201891E+04  -0.211833E-15
  Finished solving LPB equations
  A_corr:   -0.196569357809105     
 End minimization
 Ecorr=   1691.00151526934     
 A_corr= -0.196569357809105     
 Ecorr_band=  -1691.19808462714     
 End Solvation calculations
RMM:   2    -0.135470124070E+03   -0.36927E-04   -0.25879E-04  7390   0.505E-02
 Begin Solvation calculations
  rms_SCF =   5.637681696306016E-003 tol =   5.637681696306015E-004
 Begin minimization
 Creating dielectric and ionic cavities
  area:      140.996408804257     
  volume:    651.429872778665     
  Acav:     7.402311462223517E-002
  Solving linear dielectric/ionic screening model
        iter                  A_solv                     rms
   LPB:       -0.270680308768596E+00   0.797013045085454E-01
   LPB:    0  -0.270680153785564E+00   0.790656475144522E-01  -0.104563E-03   0.000000E+00   0.283503E+02  -0.296439E-02
   LPB:    1  -0.270664975087009E+00   0.799919409405498E-02   0.886427E-02   0.000000E+00   0.613429E+02  -0.707947E-19
   LPB:    2  -0.270663631417508E+00   0.155721623655659E-02   0.157377E-01   0.498609E-01   0.110254E+03  -0.694654E-17
   LPB:    3  -0.270663409461884E+00   0.509893980212950E-03   0.234581E-01   0.110821E+00   0.151573E+03   0.544338E-17
   LPB:    4  -0.270663291387097E+00   0.610234530898795E-03   0.384021E-01   0.324959E+00   0.281875E+03   0.114509E-16
   LPB:    5  -0.270663188513358E+00   0.615650073056647E-03   0.420561E-01   0.795562E+00   0.183805E+03   0.142811E-16
   LPB:    6  -0.270663092354225E+00   0.929018461678522E-03   0.428102E-01   0.918263E+00   0.272733E+03   0.227570E-16
   LPB:    7  -0.270663012894641E+00   0.122666443816865E-02   0.365597E-01   0.967611E+00   0.102450E+03   0.279617E-16
   LPB:    8  -0.270662957914260E+00   0.852365053688157E-03   0.260381E-01   0.971527E+00   0.228515E+03   0.307062E-16
   LPB:    9  -0.270662913587851E+00   0.358831630293855E-03   0.322825E-01   0.650275E+00   0.138803E+03   0.266414E-16
  Finished solving LPB equations
  A_corr:   -0.196639798965616     
 End minimization
 Ecorr=   1690.99247976293     
 A_corr= -0.196639798965616     
 Ecorr_band=  -1691.18911956190     
 End Solvation calculations
   3 F= -.13547012E+03 E0= -.13546643E+03  d E =-.582668E-04
quench:  g(F)=  0.000E+00 g(S)=  0.000E+00 dE (1.order)= 0.000E+00
 reached required accuracy - stopping structural energy minimisation
