 vasp.5.4.4.18Apr17-6-g9f103f2a35 (build Feb 06 2024 13:54:16) complex          
  
 POSCAR found type information on POSCAR  Cu Ni Cu N  O 
 04/POSCAR found :  5 types and      40 ions
 scaLAPACK will be used

 ----------------------------------------------------------------------------- 
|                                                                             |
|  ADVICE TO THIS USER RUNNING 'VASP/VAMP'   (HEAR YOUR MASTER'S VOICE ...):  |
|                                                                             |
|      You enforced a specific xc-type in the INCAR file,                     |
|      a different type was found on the POTCAR file                          |
|          I HOPE YOU KNOW, WHAT YOU ARE  DOING                               |
|                                                                             |
 ----------------------------------------------------------------------------- 

 LDA part: xc-table for Pade appr. of Perdew
 POSCAR found type information on POSCAR  Cu Ni Cu N  O 
 00/POSCAR found :  5 types and      40 ions
 POSCAR found type information on POSCAR  Cu Ni Cu N  O 
 06/POSCAR found :  5 types and      40 ions
 Jacobian:    20.5888137679208     
 POSCAR, INCAR and KPOINTS ok, starting setup
 FFT: planning ...
 WAVECAR not read
 entering main loop
       N       E                     dE             d eps       ncg     rms          rms(c)
  Solvation turned off during non-self-consistent phase (first NELMDL steps)
DAV:   1     0.412198599372E+04    0.41220E+04   -0.17859E+05  4032   0.203E+03
DAV:   2     0.565590526678E+03   -0.35564E+04   -0.34335E+04  4032   0.455E+02
DAV:   3    -0.413056840659E+02   -0.60690E+03   -0.56109E+03  4770   0.228E+02
DAV:   4    -0.150283575938E+03   -0.10898E+03   -0.94857E+02  7038   0.897E+01
DAV:   5    -0.162578308165E+03   -0.12295E+02   -0.11984E+02  6192   0.311E+01    0.432E+01
 Begin Solvation calculations
  rms_SCF =    5.59303378519145      tol =   0.559303378519145     
 Begin minimization
 Creating dielectric and ionic cavities
  area:      165.523218254661     
  volume:    682.822845452870     
  Acav:     8.689968958369718E-002
  Solving linear dielectric/ionic screening model
        iter                  A_solv                     rms
   LPB:       -0.349928283690232E+03   0.228772048466764E+03
   LPB:    0  -0.900088848209738E+01   0.355667186699538E+02  -0.456760E+01   0.000000E+00   0.326826E+02  -0.149281E+03
   LPB:    1  -0.171497873534213E+01   0.758500613263635E+01   0.108977E-01   0.000000E+00   0.928496E+02   0.137601E-13
   LPB:    2  -0.696422907609588E+00   0.124472454566624E+01   0.136075E-01   0.111959E+00   0.338208E+03   0.154481E-13
   LPB:    3  -0.427011801396930E+00   0.133047427665026E+01   0.270952E-01   0.132836E+00   0.604917E+03   0.203539E-13
   LPB:    4  -0.341450500875339E+00   0.110090827632824E+01   0.250140E-01   0.344009E+00   0.864249E+02   0.215056E-13
   LPB:    5  -0.299641667422293E+00   0.644784766436204E+00   0.226435E-01   0.539797E+00   0.463039E+03   0.100842E-13
   LPB:    6  -0.273996298495831E+00   0.217971333088825E+00   0.302725E-01   0.458813E+00   0.115618E+03   0.376310E-14
  Finished solving LPB equations
  A_corr:   -0.187096608912134     
 End minimization
 Ecorr=   1762.89585258703     
 A_corr= -0.187096608912134     
 Ecorr_band=  -1763.08294919594     
 End Solvation calculations
RMM:   6    -0.155099548752E+03    0.74788E+01   -0.34829E+02  4082   0.931E+01    0.356E+01
 Begin Solvation calculations
  rms_SCF =    5.59303378519145      tol =   0.559303378519145     
 Begin minimization
 Creating dielectric and ionic cavities
  area:      177.216432586207     
  volume:    699.780354550229     
  Acav:     9.303862710775855E-002
  Solving linear dielectric/ionic screening model
        iter                  A_solv                     rms
   LPB:       -0.117882668810401E+02   0.585202973662915E+02
   LPB:    0  -0.107466220185482E+02   0.560248107736765E+02   0.255602E+00   0.000000E+00   0.318876E+02   0.815052E+01
   LPB:    1  -0.111418062287802E+01   0.503121287743606E+01   0.907804E-02   0.000000E+00   0.740180E+02  -0.704739E-16
   LPB:    2  -0.388572251374368E+00   0.140371435480482E+01   0.156930E-01   0.435766E-01   0.158071E+03   0.120264E-13
   LPB:    3  -0.278188472049621E+00   0.928606801213191E+00   0.230062E-01   0.103768E+00   0.124089E+03   0.138719E-13
   LPB:    4  -0.242225240716323E+00   0.695910644969900E+00   0.222879E-01   0.336301E+00   0.245625E+03   0.296321E-14
   LPB:    5  -0.223187182398998E+00   0.251421707512922E+00   0.254463E-01   0.463671E+00   0.135041E+03   0.309082E-14
  Finished solving LPB equations
  A_corr:   -0.130148555291240     
 End minimization
 Ecorr=   1678.87261372961     
 A_corr= -0.130148555291240     
 Ecorr_band=  -1679.00276228490     
 End Solvation calculations
RMM:   7    -0.152809716356E+03    0.22898E+01   -0.94127E+01  4073   0.467E+01    0.345E+01
 Begin Solvation calculations
  rms_SCF =    5.59303378519145      tol =   0.559303378519145     
 Begin minimization
 Creating dielectric and ionic cavities
  area:      172.007440810041     
  volume:    700.769757995195     
  Acav:     9.030390642527161E-002
  Solving linear dielectric/ionic screening model
        iter                  A_solv                     rms
   LPB:       -0.179331235545736E+01   0.218471770116343E+02
   LPB:    0  -0.178563629555444E+01   0.218312041354852E+02   0.219578E-01   0.000000E+00   0.318412E+02   0.699164E+00
   LPB:    1  -0.345502199926411E+00   0.205581866488139E+01   0.910409E-02   0.000000E+00   0.729089E+02  -0.446245E-16
   LPB:    2  -0.225490929385840E+00   0.328839989508625E+00   0.161967E-01   0.468412E-01   0.143020E+03   0.163199E-14
   LPB:    3  -0.205073310628295E+00   0.160180191715918E+00   0.241718E-01   0.113999E+00   0.341614E+03   0.332210E-14
   LPB:    4  -0.199283850226873E+00   0.115440476654837E+00   0.292296E-01   0.234487E+00   0.326667E+03   0.359753E-14
  Finished solving LPB equations
  A_corr:   -0.108979943801602     
 End minimization
 Ecorr=   1659.00780829073     
 A_corr= -0.108979943801602     
 Ecorr_band=  -1659.11678823454     
 End Solvation calculations
RMM:   8    -0.141393442606E+03    0.11416E+02   -0.74850E+00  4092   0.952E+00    0.207E+01
 Begin Solvation calculations
  rms_SCF =    5.59303378519145      tol =   0.559303378519145     
 Begin minimization
 Creating dielectric and ionic cavities
  area:      175.065255738610     
  volume:    698.724592159679     
  Acav:     9.190925926277022E-002
  Solving linear dielectric/ionic screening model
        iter                  A_solv                     rms
   LPB:       -0.354723391253408E+00   0.326442817571274E+01
   LPB:    0  -0.351941142322083E+00   0.268398923773126E+01  -0.131997E-01   0.000000E+00   0.319371E+02  -0.421561E+00
   LPB:    1  -0.258847284733789E+00   0.783644862122852E+00   0.154143E-01   0.000000E+00   0.664045E+02   0.125851E-16
   LPB:    2  -0.240202333501099E+00   0.421349050782476E+00   0.189501E-01   0.162912E+00   0.295138E+03   0.386716E-14
   LPB:    3  -0.231710515369422E+00   0.216125023896670E+00   0.260090E-01   0.331840E+00   0.117313E+03   0.228106E-15
   LPB:    4  -0.227321870309050E+00   0.242965972005241E+00   0.350438E-01   0.383567E+00   0.109718E+03   0.133124E-14
  Finished solving LPB equations
  A_corr:   -0.135412611046280     
 End minimization
 Ecorr=   1626.04248046101     
 A_corr= -0.135412611046280     
 Ecorr_band=  -1626.17789307205     
 End Solvation calculations
RMM:   9    -0.135902425849E+03    0.54910E+01   -0.11381E+01  4086   0.102E+01    0.788E+00
 Begin Solvation calculations
  rms_SCF =    5.59303378519145      tol =   0.559303378519145     
 Begin minimization
 Creating dielectric and ionic cavities
  area:      168.293005703747     
  volume:    697.132308376398     
  Acav:     8.835382799446692E-002
  Solving linear dielectric/ionic screening model
        iter                  A_solv                     rms
   LPB:       -0.143743589049888E+01   0.185407618538603E+02
   LPB:    0  -0.143549831620591E+01   0.185554758397962E+02   0.110025E-01   0.000000E+00   0.320117E+02   0.352208E+00
   LPB:    1  -0.379184357429336E+00   0.176638865483891E+01   0.917451E-02   0.000000E+00   0.728166E+02   0.522896E-17
   LPB:    2  -0.288234317000103E+00   0.294891826134918E+00   0.156293E-01   0.505422E-01   0.158959E+03   0.266328E-14
   LPB:    3  -0.273744641719420E+00   0.191148732038765E+00   0.250891E-01   0.992452E-01   0.290462E+03   0.663189E-15
   LPB:    4  -0.268120289752212E+00   0.128265604121173E+00   0.322848E-01   0.301648E+00   0.149547E+03   0.332584E-15
  Finished solving LPB equations
  A_corr:   -0.179766461757745     
 End minimization
 Ecorr=   1605.79950816233     
 A_corr= -0.179766461757745     
 Ecorr_band=  -1605.97927462409     
 End Solvation calculations
RMM:  10    -0.134547429780E+03    0.13550E+01   -0.15147E+00  4136   0.524E+00    0.524E+00
 Begin Solvation calculations
  rms_SCF =   0.906723464610623      tol =   9.067234646106234E-002
 Begin minimization
 Creating dielectric and ionic cavities
  area:      157.050376863489     
  volume:    693.097411037076     
  Acav:     8.245144785333175E-002
  Solving linear dielectric/ionic screening model
        iter                  A_solv                     rms
   LPB:       -0.514462880415568E+00   0.461472132843705E+01
   LPB:    0  -0.512825733523567E+00   0.438600929743086E+01  -0.100838E-01   0.000000E+00   0.322009E+02  -0.324708E+00
   LPB:    1  -0.357215203231779E+00   0.144384597785554E+01   0.126415E-01   0.000000E+00   0.894858E+02   0.964997E-17
   LPB:    2  -0.334758753934458E+00   0.310211442465803E+00   0.135812E-01   0.134327E+00   0.175793E+03  -0.132573E-13
   LPB:    3  -0.324340551385701E+00   0.289273801343240E+00   0.298715E-01   0.210927E+00   0.237423E+03  -0.157002E-13
   LPB:    4  -0.318593774356399E+00   0.338999972115253E+00   0.306010E-01   0.538459E+00   0.637210E+02  -0.170693E-13
   LPB:    5  -0.314185916686278E+00   0.243230445186201E+00   0.269297E-01   0.871580E+00   0.232030E+03  -0.184730E-13
   LPB:    6  -0.310697739804068E+00   0.882527594809521E-01   0.340905E-01   0.625127E+00   0.618488E+02  -0.197201E-13
  Finished solving LPB equations
  A_corr:   -0.228246291950736     
 End minimization
 Ecorr=   1568.05537532674     
 A_corr= -0.228246291950736     
 Ecorr_band=  -1568.28362161869     
 End Solvation calculations
RMM:  11    -0.134365664916E+03    0.18176E+00   -0.56414E-01  4097   0.225E+00    0.371E+00
 Begin Solvation calculations
  rms_SCF =   0.906723464610623      tol =   9.067234646106234E-002
 Begin minimization
 Creating dielectric and ionic cavities
  area:      150.174459774445     
  volume:    689.774237753085     
  Acav:     7.884159138158379E-002
  Solving linear dielectric/ionic screening model
        iter                  A_solv                     rms
   LPB:       -0.471580013225648E+00   0.316604211253417E+01
   LPB:    0  -0.471188680550519E+00   0.305689335005716E+01  -0.491820E-02   0.000000E+00   0.323567E+02  -0.159137E+00
   LPB:    1  -0.375282372737153E+00   0.120892686076471E+01   0.130632E-01   0.000000E+00   0.107042E+03  -0.806731E-17
   LPB:    2  -0.362087201646625E+00   0.251644893828298E+00   0.133338E-01   0.134792E+00   0.155695E+03   0.233068E-14
   LPB:    3  -0.357756920377992E+00   0.156301303511351E+00   0.228419E-01   0.191569E+00   0.308396E+03   0.357773E-14
   LPB:    4  -0.355671978806865E+00   0.189555582461583E+00   0.326738E-01   0.336596E+00   0.833288E+02   0.403379E-14
   LPB:    5  -0.353559519594195E+00   0.210350934334836E+00   0.322697E-01   0.102589E+01   0.202736E+03   0.305897E-14
   LPB:    6  -0.351444610240860E+00   0.102597767514994E+00   0.349937E-01   0.923225E+00   0.409597E+02   0.167798E-14
   LPB:    7  -0.350044804834923E+00   0.466435376520506E-01   0.321527E-01   0.720359E+00   0.135522E+03  -0.567950E-14
  Finished solving LPB equations
  A_corr:   -0.271203213453339     
 End minimization
 Ecorr=   1539.71612652065     
 A_corr= -0.271203213453339     
 Ecorr_band=  -1539.98732973411     
 End Solvation calculations
RMM:  12    -0.134303745870E+03    0.61919E-01   -0.32134E-01  4102   0.193E+00    0.398E+00
 Begin Solvation calculations
  rms_SCF =   0.906723464610623      tol =   9.067234646106234E-002
 Begin minimization
 Creating dielectric and ionic cavities
  area:      146.312785097143     
  volume:    685.105608739024     
  Acav:     7.681421217599983E-002
  Solving linear dielectric/ionic screening model
        iter                  A_solv                     rms
   LPB:       -0.573488436002643E+00   0.356319025475170E+01
   LPB:    0  -0.570129022667741E+00   0.309167580980402E+01  -0.143615E-01   0.000000E+00   0.325756E+02  -0.467835E+00
   LPB:    1  -0.437231236589328E+00   0.127266362927695E+01   0.139493E-01   0.000000E+00   0.113945E+03  -0.202455E-16
   LPB:    2  -0.421414330304271E+00   0.361097899431558E+00   0.138516E-01   0.119855E+00   0.146517E+03   0.301335E-14
   LPB:    3  -0.416026259864370E+00   0.217959952202008E+00   0.205841E-01   0.229234E+00   0.320411E+03   0.190104E-14
   LPB:    4  -0.414273853139457E+00   0.191869524155706E+00   0.222836E-01   0.300433E+00   0.990106E+02   0.464271E-15
   LPB:    5  -0.412859317317824E+00   0.140173622340987E+00   0.285465E-01   0.630103E+00   0.267851E+03   0.458449E-15
   LPB:    6  -0.411564319745876E+00   0.583889657667812E-01   0.394594E-01   0.662305E+00   0.647986E+02   0.109866E-15
  Finished solving LPB equations
  A_corr:   -0.334750107569876     
 End minimization
 Ecorr=   1517.53701435591     
 A_corr= -0.334750107569876     
 Ecorr_band=  -1517.87176446348     
 End Solvation calculations
RMM:  13    -0.134252808926E+03    0.50937E-01   -0.20758E-01  4096   0.147E+00    0.220E+00
 Begin Solvation calculations
  rms_SCF =   0.355947821470090      tol =   3.559478214700897E-002
 Begin minimization
 Creating dielectric and ionic cavities
  area:      146.072623463850     
  volume:    682.797409080963     
  Acav:     7.668812731852141E-002
  Solving linear dielectric/ionic screening model
        iter                  A_solv                     rms
   LPB:       -0.500664448694794E+00   0.171197588218967E+01
   LPB:    0  -0.500289708181376E+00   0.156328229026303E+01  -0.478866E-02   0.000000E+00   0.326838E+02  -0.156512E+00
   LPB:    1  -0.454545939300995E+00   0.792701396721308E+00   0.143061E-01   0.000000E+00   0.149598E+03  -0.567742E-17
   LPB:    2  -0.449354708091801E+00   0.233252504911852E+00   0.138934E-01   0.116856E+00   0.106611E+03   0.200590E-14
   LPB:    3  -0.447503597686835E+00   0.115240370714102E+00   0.202324E-01   0.244863E+00   0.232282E+03   0.188144E-14
   LPB:    4  -0.446421179493581E+00   0.147760588097203E+00   0.320309E-01   0.369353E+00   0.839612E+02   0.209183E-14
   LPB:    5  -0.445316519202563E+00   0.155277000050464E+00   0.315141E-01   0.103728E+01   0.185513E+03   0.287250E-14
   LPB:    6  -0.444266469999566E+00   0.738165886291297E-01   0.336079E-01   0.891341E+00   0.442788E+02   0.346483E-14
   LPB:    7  -0.443575880164614E+00   0.374477424847276E-01   0.324918E-01   0.680266E+00   0.182549E+03   0.234440E-14
   LPB:    8  -0.443140209952720E+00   0.218182505216718E-01   0.350622E-01   0.584618E+00   0.166381E+03   0.274866E-14
  Finished solving LPB equations
  A_corr:   -0.366452082634199     
 End minimization
 Ecorr=   1497.97462763005     
 A_corr= -0.366452082634199     
 Ecorr_band=  -1498.34107971268     
 End Solvation calculations
RMM:  14    -0.134228775470E+03    0.24033E-01   -0.86334E-02  4093   0.131E+00    0.127E+00
 Begin Solvation calculations
  rms_SCF =   0.319288783044128      tol =   3.192887830441280E-002
 Begin minimization
 Creating dielectric and ionic cavities
  area:      146.574783053765     
  volume:    679.849524435553     
  Acav:     7.695176110322659E-002
  Solving linear dielectric/ionic screening model
        iter                  A_solv                     rms
   LPB:       -0.585922655940653E+00   0.242324962353417E+01
   LPB:    0  -0.584268204944093E+00   0.207084365270216E+01  -0.100406E-01   0.000000E+00   0.328220E+02  -0.329552E+00
   LPB:    1  -0.504932135895127E+00   0.103948255429708E+01   0.143384E-01   0.000000E+00   0.140864E+03   0.199439E-16
   LPB:    2  -0.495674510132509E+00   0.293787418949349E+00   0.139689E-01   0.119776E+00   0.106828E+03   0.316749E-17
   LPB:    3  -0.492813244215432E+00   0.151783902967531E+00   0.192071E-01   0.224781E+00   0.278779E+03   0.586265E-16
   LPB:    4  -0.491865490622466E+00   0.127460837820294E+00   0.215109E-01   0.295760E+00   0.124357E+03   0.409505E-15
   LPB:    5  -0.491301841945077E+00   0.997243576562041E-01   0.252447E-01   0.506760E+00   0.267918E+03   0.207296E-15
   LPB:    6  -0.490813094176845E+00   0.410122929157567E-01   0.363871E-01   0.601587E+00   0.717812E+02  -0.439237E-15
   LPB:    7  -0.490376888386657E+00   0.316634765569260E-01   0.391650E-01   0.829192E+00   0.129794E+03  -0.185383E-14
  Finished solving LPB equations
  A_corr:   -0.413425127283431     
 End minimization
 Ecorr=   1481.99514336131     
 A_corr= -0.413425127283431     
 Ecorr_band=  -1482.40856848859     
 End Solvation calculations
RMM:  15    -0.134221957662E+03    0.68178E-02   -0.30152E-02  4083   0.718E-01    0.560E-01
 Begin Solvation calculations
  rms_SCF =   0.272999884641277      tol =   2.729998846412767E-002
 Begin minimization
 Creating dielectric and ionic cavities
  area:      147.014701881861     
  volume:    678.484085470053     
  Acav:     7.718271848797689E-002
  Solving linear dielectric/ionic screening model
        iter                  A_solv                     rms
   LPB:       -0.553556737327844E+00   0.148221028303563E+01
   LPB:    0  -0.552784083273469E+00   0.122703481638950E+01  -0.685492E-02   0.000000E+00   0.328860E+02  -0.225431E+00
   LPB:    1  -0.524110217630518E+00   0.632800960611399E+00   0.145694E-01   0.000000E+00   0.136393E+03   0.886462E-17
   LPB:    2  -0.520584665326804E+00   0.183450252473089E+00   0.142136E-01   0.126031E+00   0.982157E+02  -0.595454E-14
   LPB:    3  -0.519553739566177E+00   0.102949456435639E+00   0.191482E-01   0.217058E+00   0.250898E+03  -0.698118E-14
   LPB:    4  -0.519112934584596E+00   0.999277629410358E-01   0.240322E-01   0.340686E+00   0.960168E+02  -0.699047E-14
   LPB:    5  -0.518695170629545E+00   0.905856288715323E-01   0.307491E-01   0.740704E+00   0.218490E+03  -0.684525E-14
   LPB:    6  -0.518235461749688E+00   0.393991429120098E-01   0.389823E-01   0.867996E+00   0.515566E+02  -0.692843E-14
   LPB:    7  -0.517894593843963E+00   0.256943505688383E-01   0.352694E-01   0.819544E+00   0.132520E+03  -0.650175E-14
  Finished solving LPB equations
  A_corr:   -0.440711875355987     
 End minimization
 Ecorr=   1470.18863528429     
 A_corr= -0.440711875355987     
 Ecorr_band=  -1470.62934715965     
 End Solvation calculations
RMM:  16    -0.134224516285E+03   -0.25586E-02   -0.86467E-03  4161   0.289E-01    0.347E-01
 Begin Solvation calculations
  rms_SCF =   0.272999884641277      tol =   2.729998846412767E-002
 Begin minimization
 Creating dielectric and ionic cavities
  area:      147.423515407742     
  volume:    677.494999486000     
  Acav:     7.739734558906461E-002
  Solving linear dielectric/ionic screening model
        iter                  A_solv                     rms
   LPB:       -0.571458365449950E+00   0.134739202479987E+01
   LPB:    0  -0.570724537491100E+00   0.109683986323133E+01  -0.667576E-02   0.000000E+00   0.329323E+02  -0.219848E+00
   LPB:    1  -0.546946197799190E+00   0.496191562627600E+00   0.151802E-01   0.000000E+00   0.130360E+03  -0.637845E-17
   LPB:    2  -0.544229351686601E+00   0.163830206114264E+00   0.147782E-01   0.117366E+00   0.103595E+03   0.153770E-14
   LPB:    3  -0.543523756928409E+00   0.858969796625921E-01   0.187126E-01   0.205105E+00   0.211408E+03   0.164521E-14
   LPB:    4  -0.543243761604018E+00   0.832502183708644E-01   0.224533E-01   0.330713E+00   0.116833E+03   0.190168E-14
   LPB:    5  -0.543010403403688E+00   0.747638780268263E-01   0.276856E-01   0.675924E+00   0.216820E+03   0.225300E-14
   LPB:    6  -0.542739357578707E+00   0.331197713152142E-01   0.387163E-01   0.830576E+00   0.546423E+02   0.237894E-14
   LPB:    7  -0.542503854926174E+00   0.218454575771106E-01   0.378458E-01   0.888853E+00   0.118571E+03   0.227654E-14
  Finished solving LPB equations
  A_corr:   -0.465106509337110     
 End minimization
 Ecorr=   1460.78539306508     
 A_corr= -0.465106509337110     
 Ecorr_band=  -1461.25049957442     
 End Solvation calculations
RMM:  17    -0.134227736472E+03   -0.32202E-02   -0.44220E-03  4097   0.187E-01    0.215E-01
 Begin Solvation calculations
  rms_SCF =   0.272999884641277      tol =   2.729998846412767E-002
 Begin minimization
 Creating dielectric and ionic cavities
  area:      148.433115619558     
  volume:    675.975334223307     
  Acav:     7.792738570026798E-002
  Solving linear dielectric/ionic screening model
        iter                  A_solv                     rms
   LPB:       -0.762121705620125E+00   0.338769595945425E+01
   LPB:    0  -0.756944278916057E+00   0.275108871623902E+01  -0.177130E-01   0.000000E+00   0.330036E+02  -0.584592E+00
   LPB:    1  -0.624103890930354E+00   0.103243140337109E+01   0.155287E-01   0.000000E+00   0.114008E+03  -0.311389E-16
   LPB:    2  -0.609160377191122E+00   0.357335847005272E+00   0.150990E-01   0.115694E+00   0.115818E+03   0.776590E-14
   LPB:    3  -0.605427215002289E+00   0.185808691184880E+00   0.201412E-01   0.187278E+00   0.167517E+03   0.777990E-14
   LPB:    4  -0.603914522180274E+00   0.190715795771653E+00   0.228514E-01   0.357147E+00   0.154978E+03   0.966371E-14
   LPB:    5  -0.602996340587717E+00   0.162688392126455E+00   0.225646E-01   0.614699E+00   0.215492E+03   0.103939E-13
   LPB:    6  -0.602192207929729E+00   0.594698281265103E-01   0.298670E-01   0.661662E+00   0.787343E+02   0.113135E-13
   LPB:    7  -0.601578187139844E+00   0.341652279935152E-01   0.360498E-01   0.632622E+00   0.214369E+03   0.127208E-13
   LPB:    8  -0.601155674904312E+00   0.251500362929424E-01   0.364528E-01   0.680500E+00   0.171666E+03   0.137977E-13
  Finished solving LPB equations
  A_corr:   -0.523228289204044     
 End minimization
 Ecorr=   1441.72744207808     
 A_corr= -0.523228289204044     
 Ecorr_band=  -1442.25067036729     
 End Solvation calculations
RMM:  18    -0.134237119154E+03   -0.93827E-02   -0.12757E-02  4073   0.228E-01    0.298E-01
 Begin Solvation calculations
  rms_SCF =   0.272999884641277      tol =   2.729998846412767E-002
 Begin minimization
 Creating dielectric and ionic cavities
  area:      149.142748758695     
  volume:    675.557305710855     
  Acav:     7.829994309831503E-002
  Solving linear dielectric/ionic screening model
        iter                  A_solv                     rms
   LPB:       -0.705024262682505E+00   0.228904165634808E+01
   LPB:    0  -0.702769568382078E+00   0.190421753021986E+01  -0.116856E-01   0.000000E+00   0.330232E+02  -0.385894E+00
   LPB:    1  -0.647994823704986E+00   0.573812906833517E+00   0.157113E-01   0.000000E+00   0.100037E+03   0.135411E-16
   LPB:    2  -0.642031495379992E+00   0.218346226767255E+00   0.153055E-01   0.111757E+00   0.134670E+03   0.595431E-14
   LPB:    3  -0.640534569598268E+00   0.104778673262620E+00   0.213918E-01   0.179602E+00   0.134445E+03   0.697413E-14
   LPB:    4  -0.639885676114592E+00   0.998241854474802E-01   0.255360E-01   0.363134E+00   0.197735E+03   0.703963E-14
   LPB:    5  -0.639436889899545E+00   0.148359711974847E+00   0.278090E-01   0.635088E+00   0.182891E+03   0.726870E-14
   LPB:    6  -0.638976824182430E+00   0.757828504753520E-01   0.266523E-01   0.106963E+01   0.622742E+02   0.744979E-14
   LPB:    7  -0.638521966936391E+00   0.304521922513051E-01   0.350626E-01   0.751529E+00   0.160332E+03   0.728003E-14
   LPB:    8  -0.638232372719956E+00   0.199268687313605E-01   0.344153E-01   0.648644E+00   0.155255E+03   0.774980E-14
  Finished solving LPB equations
  A_corr:   -0.559932429621641     
 End minimization
 Ecorr=   1428.64963178020     
 A_corr= -0.559932429621641     
 Ecorr_band=  -1429.20956420982     
 End Solvation calculations
RMM:  19    -0.134241586996E+03   -0.44678E-02   -0.46159E-03  4062   0.179E-01    0.267E-01
 Begin Solvation calculations
  rms_SCF =   0.272999884641277      tol =   2.729998846412767E-002
 Begin minimization
 Creating dielectric and ionic cavities
  area:      149.585948210225     
  volume:    675.551441858329     
  Acav:     7.853262281036838E-002
  Solving linear dielectric/ionic screening model
        iter                  A_solv                     rms
   LPB:       -0.691662805753672E+00   0.182831317220249E+01
   LPB:    0  -0.690231689192911E+00   0.157262143874592E+01  -0.930982E-02   0.000000E+00   0.330235E+02  -0.307442E+00
   LPB:    1  -0.664280422960158E+00   0.335356676576446E+00   0.154546E-01   0.000000E+00   0.769677E+02   0.270560E-16
   LPB:    2  -0.661578249577828E+00   0.163590499477622E+00   0.144380E-01   0.111457E+00   0.238620E+03  -0.278427E-14
   LPB:    3  -0.660971449997210E+00   0.909611640337635E-01   0.186557E-01   0.173790E+00   0.115828E+03  -0.505356E-14
   LPB:    4  -0.660733818655495E+00   0.763264798413161E-01   0.207484E-01   0.352117E+00   0.200985E+03  -0.673961E-14
   LPB:    5  -0.660579242135176E+00   0.606229624636919E-01   0.263057E-01   0.513065E+00   0.123086E+03  -0.741086E-14
   LPB:    6  -0.660398306616738E+00   0.303248093236163E-01   0.361966E-01   0.850673E+00   0.846100E+02  -0.761451E-14
   LPB:    7  -0.660203233303973E+00   0.173659365955144E-01   0.413063E-01   0.944769E+00   0.113104E+03  -0.779068E-14
  Finished solving LPB equations
  A_corr:   -0.581670610493605     
 End minimization
 Ecorr=   1421.93730964798     
 A_corr= -0.581670610493605     
 Ecorr_band=  -1422.51898025848     
 End Solvation calculations
RMM:  20    -0.134243701976E+03   -0.21150E-02   -0.26368E-03  4077   0.107E-01    0.149E-01
 Begin Solvation calculations
  rms_SCF =   0.256405135009501      tol =   2.564051350095011E-002
 Begin minimization
 Creating dielectric and ionic cavities
  area:      149.938377734536     
  volume:    675.667899309614     
  Acav:     7.871764831063130E-002
  Solving linear dielectric/ionic screening model
        iter                  A_solv                     rms
   LPB:       -0.704173728416135E+00   0.181855935310021E+01
   LPB:    0  -0.702848087484319E+00   0.159914531220212E+01  -0.896092E-02   0.000000E+00   0.330180E+02  -0.295872E+00
   LPB:    1  -0.681435582658612E+00   0.345364764791079E+00   0.148821E-01   0.000000E+00   0.682395E+02  -0.170136E-16
   LPB:    2  -0.679142062994797E+00   0.157555870025241E+00   0.134454E-01   0.118556E+00   0.263068E+03   0.457225E-14
   LPB:    3  -0.678646841263799E+00   0.740494951383334E-01   0.173393E-01   0.167433E+00   0.133306E+03   0.510857E-14
   LPB:    4  -0.678452644507882E+00   0.654733838948546E-01   0.225262E-01   0.301846E+00   0.147802E+03   0.523419E-14
   LPB:    5  -0.678310486741011E+00   0.521335866207287E-01   0.290294E-01   0.568041E+00   0.122308E+03   0.548766E-14
   LPB:    6  -0.678154341250505E+00   0.242542959328537E-01   0.366127E-01   0.870893E+00   0.794771E+02   0.558547E-14
  Finished solving LPB equations
  A_corr:   -0.599436692939874     
 End minimization
 Ecorr=   1416.87337287355     
 A_corr= -0.599436692939874     
 Ecorr_band=  -1417.47280956649     
 End Solvation calculations
RMM:  21    -0.134245509151E+03   -0.18072E-02   -0.19359E-03  4057   0.894E-02    0.148E-01
 Begin Solvation calculations
  rms_SCF =   0.154471828819596      tol =   1.544718288195957E-002
 Begin minimization
 Creating dielectric and ionic cavities
  area:      150.301194465625     
  volume:    675.832485077700     
  Acav:     7.890812709445302E-002
  Solving linear dielectric/ionic screening model
        iter                  A_solv                     rms
   LPB:       -0.735184558211926E+00   0.220719917684372E+01
   LPB:    0  -0.733271651671833E+00   0.195556305204182E+01  -0.107656E-01   0.000000E+00   0.330103E+02  -0.355375E+00
   LPB:    1  -0.703977682176253E+00   0.402746200195114E+00   0.145076E-01   0.000000E+00   0.662467E+02   0.626088E-17
   LPB:    2  -0.700855231358255E+00   0.186629710689299E+00   0.133327E-01   0.115983E+00   0.269781E+03  -0.313754E-14
   LPB:    3  -0.700191442557045E+00   0.830421025489063E-01   0.171191E-01   0.165566E+00   0.129641E+03  -0.327712E-14
   LPB:    4  -0.699870344607891E+00   0.825768628784449E-01   0.259024E-01   0.319705E+00   0.133084E+03  -0.287749E-14
   LPB:    5  -0.699633816098469E+00   0.687640529530917E-01   0.288585E-01   0.661169E+00   0.117108E+03  -0.277613E-14
   LPB:    6  -0.699409712030487E+00   0.292477934003619E-01   0.326287E-01   0.837992E+00   0.875300E+02  -0.243847E-14
   LPB:    7  -0.699232758522405E+00   0.151568659236313E-01   0.364822E-01   0.706201E+00   0.206565E+03  -0.217374E-14
  Finished solving LPB equations
  A_corr:   -0.620324631427952     
 End minimization
 Ecorr=   1410.52741983090     
 A_corr= -0.620324631427952     
 Ecorr_band=  -1411.14774446233     
 End Solvation calculations
RMM:  22    -0.134247100679E+03   -0.15915E-02   -0.15404E-03  4081   0.806E-02    0.124E-01
 Begin Solvation calculations
  rms_SCF =   0.153829680134529      tol =   1.538296801345292E-002
 Begin minimization
 Creating dielectric and ionic cavities
  area:      150.452020773922     
  volume:    676.003458809436     
  Acav:     7.898731090630927E-002
  Solving linear dielectric/ionic screening model
        iter                  A_solv                     rms
   LPB:       -0.723954610312495E+00   0.157474581327531E+01
   LPB:    0  -0.723259182248222E+00   0.145461819395461E+01  -0.649186E-02   0.000000E+00   0.330023E+02  -0.214246E+00
   LPB:    1  -0.711046325852167E+00   0.298138149710781E+00   0.132264E-01   0.000000E+00   0.622075E+02  -0.554982E-17
   LPB:    2  -0.709643684598360E+00   0.103987504571711E+00   0.125308E-01   0.121225E+00   0.259933E+03   0.298120E-14
   LPB:    3  -0.709366676150264E+00   0.397584689042714E-01   0.176498E-01   0.140212E+00   0.163551E+03   0.317646E-14
   LPB:    4  -0.709272968435025E+00   0.414167470367254E-01   0.255458E-01   0.233724E+00   0.132112E+03   0.332949E-14
   LPB:    5  -0.709194748726595E+00   0.431649062443097E-01   0.331708E-01   0.642843E+00   0.122247E+03   0.374155E-14
   LPB:    6  -0.709083856123196E+00   0.234721363456609E-01   0.410486E-01   0.114563E+01   0.661082E+02   0.383559E-14
   LPB:    7  -0.708980133177693E+00   0.114689975520685E-01   0.362907E-01   0.105797E+01   0.114323E+03   0.400987E-14
  Finished solving LPB equations
  A_corr:   -0.629992822271384     
 End minimization
 Ecorr=   1406.87364141290     
 A_corr= -0.629992822271384     
 Ecorr_band=  -1407.50363423517     
 End Solvation calculations
RMM:  23    -0.134247520347E+03   -0.41967E-03   -0.54942E-04  4039   0.555E-02    0.954E-02
 Begin Solvation calculations
  rms_SCF =   0.134025670215089      tol =   1.340256702150887E-002
 Begin minimization
 Creating dielectric and ionic cavities
  area:      150.449614071430     
  volume:    676.127869774644     
  Acav:     7.898604738750099E-002
  Solving linear dielectric/ionic screening model
        iter                  A_solv                     rms
   LPB:       -0.718106036143644E+00   0.128516262856251E+01
   LPB:    0  -0.717823479859739E+00   0.123759085668192E+01  -0.413841E-02   0.000000E+00   0.329964E+02  -0.136553E+00
   LPB:    1  -0.711250041879620E+00   0.202957847947512E+00   0.112814E-01   0.000000E+00   0.660035E+02   0.632913E-17
   LPB:    2  -0.710546109460620E+00   0.528446819891155E-01   0.121767E-01   0.992138E-01   0.258944E+03   0.444207E-15
   LPB:    3  -0.710448753804128E+00   0.150443555438804E-01   0.181617E-01   0.927265E-01   0.183932E+03   0.488334E-15
   LPB:    4  -0.710430143158009E+00   0.148444541090663E-01   0.235764E-01   0.147258E+00   0.178435E+03   0.467999E-15
   LPB:    5  -0.710417963489546E+00   0.181691920336224E-01   0.333035E-01   0.463299E+00   0.138874E+03   0.484228E-15
   LPB:    6  -0.710398461692304E+00   0.138602538511894E-01   0.439102E-01   0.121441E+01   0.762883E+02   0.597470E-15
   LPB:    7  -0.710371699893372E+00   0.708688047811429E-02   0.409713E-01   0.147071E+01   0.887300E+02   0.673393E-15
  Finished solving LPB equations
  A_corr:   -0.631385652505871     
 End minimization
 Ecorr=   1405.90911824462     
 A_corr= -0.631385652505871     
 Ecorr_band=  -1406.54050389713     
 End Solvation calculations
RMM:  24    -0.134247748148E+03   -0.22780E-03   -0.24451E-04  4021   0.377E-02    0.601E-02
 Begin Solvation calculations
  rms_SCF =   9.359451335519769E-002 tol =   9.359451335519769E-003
 Begin minimization
 Creating dielectric and ionic cavities
  area:      150.458829811072     
  volume:    676.203094668531     
  Acav:     7.899088565081284E-002
  Solving linear dielectric/ionic screening model
        iter                  A_solv                     rms
   LPB:       -0.722860443188094E+00   0.147651965309278E+01
   LPB:    0  -0.722503548730211E+00   0.142109542593969E+01  -0.465130E-02   0.000000E+00   0.329929E+02  -0.153460E+00
   LPB:    1  -0.714231331594551E+00   0.225730526089348E+00   0.110539E-01   0.000000E+00   0.654503E+02   0.660410E-17
   LPB:    2  -0.713322846475020E+00   0.594911107297661E-01   0.123929E-01   0.979579E-01   0.240232E+03  -0.687132E-15
   LPB:    3  -0.713202321643841E+00   0.176330366912374E-01   0.180027E-01   0.913259E-01   0.174478E+03  -0.823016E-15
   LPB:    4  -0.713179295917756E+00   0.162363017579892E-01   0.232206E-01   0.148116E+00   0.156204E+03  -0.808135E-15
   LPB:    5  -0.713169491405287E+00   0.135360235659983E-01   0.253491E-01   0.390053E+00   0.144139E+03  -0.836861E-15
   LPB:    6  -0.713162008862279E+00   0.676137345819442E-02   0.300145E-01   0.644547E+00   0.992084E+02  -0.798258E-15
  Finished solving LPB equations
  A_corr:   -0.634171123211466     
 End minimization
 Ecorr=   1404.86001562399     
 A_corr= -0.634171123211466     
 Ecorr_band=  -1405.49418674720     
 End Solvation calculations
RMM:  25    -0.134248023447E+03   -0.27530E-03   -0.37629E-04  4023   0.406E-02    0.113E-01
 Begin Solvation calculations
  rms_SCF =   6.728277049338068E-002 tol =   6.728277049338068E-003
 Begin minimization
 Creating dielectric and ionic cavities
  area:      150.410940809392     
  volume:    676.153061612238     
  Acav:     7.896574392493093E-002
  Solving linear dielectric/ionic screening model
        iter                  A_solv                     rms
   LPB:       -0.711067269478565E+00   0.212328929517061E+00
   LPB:    0  -0.711058076551554E+00   0.198902548446958E+00   0.746476E-03   0.000000E+00   0.329953E+02   0.246302E-01
   LPB:    1  -0.710693347740433E+00   0.510923472537596E-01   0.148848E-01   0.000000E+00   0.793834E+02  -0.138564E-17
   LPB:    2  -0.710647141146213E+00   0.228864584810798E-01   0.133523E-01   0.141228E+00   0.265744E+03  -0.337771E-15
   LPB:    3  -0.710634244324980E+00   0.108703383780118E-01   0.189450E-01   0.196717E+00   0.155194E+03  -0.448814E-15
   LPB:    4  -0.710629422498489E+00   0.805387406762540E-02   0.227494E-01   0.311353E+00   0.354957E+03  -0.538772E-15
   LPB:    5  -0.710627160748915E+00   0.636161117473539E-02   0.253613E-01   0.420758E+00   0.154500E+03  -0.592432E-15
  Finished solving LPB equations
  A_corr:   -0.631661416823984     
 End minimization
 Ecorr=   1405.17404097351     
 A_corr= -0.631661416823984     
 Ecorr_band=  -1405.80570239033     
 End Solvation calculations
RMM:  26    -0.134248081438E+03   -0.57991E-04   -0.78817E-05  3216   0.205E-02    0.206E-02
 Begin Solvation calculations
  rms_SCF =   1.408377159410163E-002 tol =   1.408377159410163E-003
 Begin minimization
 Creating dielectric and ionic cavities
  area:      150.418681962581     
  volume:    676.148659137046     
  Acav:     7.896980803035505E-002
  Solving linear dielectric/ionic screening model
        iter                  A_solv                     rms
   LPB:       -0.712333413815017E+00   0.473459523255557E+00
   LPB:    0  -0.712291821350276E+00   0.452439450009085E+00  -0.158780E-02   0.000000E+00   0.329955E+02  -0.523901E-01
   LPB:    1  -0.711455319749111E+00   0.651601370482615E-01   0.105793E-01   0.000000E+00   0.707084E+02   0.642238E-18
   LPB:    2  -0.711380823463476E+00   0.191071295239900E-01   0.121113E-01   0.777918E-01   0.236734E+03   0.226471E-15
   LPB:    3  -0.711370469823356E+00   0.584454893346838E-02   0.187120E-01   0.899553E-01   0.133197E+03   0.247459E-15
   LPB:    4  -0.711367829064465E+00   0.586699907713853E-02   0.268217E-01   0.177939E+00   0.115155E+03   0.241097E-15
   LPB:    5  -0.711366203468903E+00   0.605816305460611E-02   0.297447E-01   0.555085E+00   0.171722E+03   0.219866E-15
   LPB:    6  -0.711364198102921E+00   0.393346839242513E-02   0.381419E-01   0.962031E+00   0.803265E+02   0.210779E-15
   LPB:    7  -0.711361483929248E+00   0.194666194411089E-02   0.442490E-01   0.116665E+01   0.115373E+03   0.252198E-15
   LPB:    8  -0.711359219494039E+00   0.147416756178011E-02   0.393586E-01   0.937964E+00   0.138324E+03   0.257200E-15
   LPB:    9  -0.711357998526790E+00   0.981235486503776E-03   0.344860E-01   0.615378E+00   0.340606E+03   0.256325E-15
  Finished solving LPB equations
  A_corr:   -0.632388190496435     
 End minimization
 Ecorr=   1404.55739941823     
 A_corr= -0.632388190496435     
 Ecorr_band=  -1405.18978760873     
 End Solvation calculations
RMM:  27    -0.134248190867E+03   -0.10943E-03   -0.34523E-05  2539   0.187E-02    0.341E-02
 Begin Solvation calculations
  rms_SCF =   1.408377159410163E-002 tol =   1.408377159410163E-003
 Begin minimization
 Creating dielectric and ionic cavities
  area:      150.422655899039     
  volume:    676.104170823729     
  Acav:     7.897189434699545E-002
  Solving linear dielectric/ionic screening model
        iter                  A_solv                     rms
   LPB:       -0.711532494069190E+00   0.566387809528996E-01
   LPB:    0  -0.711530671480867E+00   0.436983239317119E-01  -0.332367E-03   0.000000E+00   0.329976E+02  -0.109673E-01
   LPB:    1  -0.711489499840316E+00   0.207497323020402E-01   0.122667E-01   0.000000E+00   0.193720E+03   0.571304E-18
   LPB:    2  -0.711486076052160E+00   0.726209536598599E-02   0.154149E-01   0.661755E-01   0.716134E+02   0.726975E-17
   LPB:    3  -0.711484842081758E+00   0.259596393075430E-02   0.180280E-01   0.308170E+00   0.277505E+03   0.901497E-17
   LPB:    4  -0.711484249731325E+00   0.290775609705504E-02   0.277588E-01   0.311760E+00   0.237312E+03   0.183812E-16
   LPB:    5  -0.711483909697772E+00   0.248633915308460E-02   0.239277E-01   0.665953E+00   0.300510E+03   0.494783E-17
   LPB:    6  -0.711483677374877E+00   0.125455773716267E-02   0.285335E-01   0.572949E+00   0.138666E+03   0.563688E-17
  Finished solving LPB equations
  A_corr:   -0.632511783027882     
 End minimization
 Ecorr=   1404.36330574086     
 A_corr= -0.632511783027882     
 Ecorr_band=  -1404.99581752389     
 End Solvation calculations
RMM:  28    -0.134248265361E+03   -0.74493E-04   -0.24173E-05  2487   0.166E-02    0.140E-02
 Begin Solvation calculations
  rms_SCF =   9.930033816878469E-003 tol =   9.930033816878468E-004
 Begin minimization
 Creating dielectric and ionic cavities
  area:      150.437801281108     
  volume:    676.075879882108     
  Acav:     7.897984567258190E-002
  Solving linear dielectric/ionic screening model
        iter                  A_solv                     rms
   LPB:       -0.712376632108342E+00   0.126170057057474E+00
   LPB:    0  -0.712369653765683E+00   0.107563436690771E+00  -0.650342E-03   0.000000E+00   0.329989E+02  -0.214605E-01
   LPB:    1  -0.712314419972217E+00   0.164671169876130E-01   0.101448E-01   0.000000E+00   0.778451E+02  -0.648073E-18
   LPB:    2  -0.712310297710383E+00   0.512729823605427E-02   0.126437E-01   0.598825E-01   0.167586E+03   0.372334E-15
   LPB:    3  -0.712309541837027E+00   0.273105308787509E-02   0.186545E-01   0.124280E+00   0.155773E+03   0.395181E-15
   LPB:    4  -0.712309264281846E+00   0.219774640962745E-02   0.265596E-01   0.257907E+00   0.686241E+02   0.404884E-15
   LPB:    5  -0.712309048970888E+00   0.137390638473262E-02   0.277301E-01   0.742998E+00   0.274026E+03   0.412355E-15
   LPB:    6  -0.712308827900101E+00   0.654956747627930E-03   0.427072E-01   0.666676E+00   0.673517E+02   0.408380E-15
  Finished solving LPB equations
  A_corr:   -0.633328982227519     
 End minimization
 Ecorr=   1403.98611772499     
 A_corr= -0.633328982227519     
 Ecorr_band=  -1404.61944670721     
 End Solvation calculations
RMM:  29    -0.134248312922E+03   -0.47561E-04   -0.11792E-05  2389   0.109E-02    0.185E-02
 Begin Solvation calculations
  rms_SCF =   9.930033816878469E-003 tol =   9.930033816878468E-004
 Begin minimization
 Creating dielectric and ionic cavities
  area:      150.449363648406     
  volume:    676.065746314203     
  Acav:     7.898591591541330E-002
  Solving linear dielectric/ionic screening model
        iter                  A_solv                     rms
   LPB:       -0.713189549117077E+00   0.201175582890243E+00
   LPB:    0  -0.713178262708652E+00   0.184854293090084E+00  -0.827066E-03   0.000000E+00   0.329994E+02  -0.272926E-01
   LPB:    1  -0.713052853680446E+00   0.239675662042167E-01   0.985899E-02   0.000000E+00   0.699189E+02   0.192623E-18
   LPB:    2  -0.713041855894471E+00   0.699878500937321E-02   0.130811E-01   0.660946E-01   0.169720E+03   0.457070E-15
   LPB:    3  -0.713040508431756E+00   0.301817345482775E-02   0.170206E-01   0.941628E-01   0.151761E+03   0.547632E-15
   LPB:    4  -0.713040217113739E+00   0.214220683933362E-02   0.233632E-01   0.157505E+00   0.716334E+02   0.560172E-15
   LPB:    5  -0.713040027283931E+00   0.148332151435066E-02   0.271150E-01   0.561460E+00   0.195881E+03   0.563562E-15
   LPB:    6  -0.713039819293089E+00   0.650361795488227E-03   0.417077E-01   0.712319E+00   0.551861E+02   0.577602E-15
  Finished solving LPB equations
  A_corr:   -0.634053903377676     
 End minimization
 Ecorr=   1403.63541286519     
 A_corr= -0.634053903377676     
 Ecorr_band=  -1404.26946676857     
 End Solvation calculations
RMM:  30    -0.134248324334E+03   -0.11412E-04   -0.97735E-06  2415   0.993E-03    0.879E-03
 Begin Solvation calculations
  rms_SCF =   9.930033816878469E-003 tol =   9.930033816878468E-004
 Begin minimization
 Creating dielectric and ionic cavities
  area:      150.445014428060     
  volume:    676.042944287156     
  Acav:     7.898363257473139E-002
  Solving linear dielectric/ionic screening model
        iter                  A_solv                     rms
   LPB:       -0.712671679381388E+00   0.704889102563021E-01
   LPB:    0  -0.712671394882299E+00   0.685523259869057E-01  -0.131309E-03   0.000000E+00   0.330004E+02  -0.433326E-02
   LPB:    1  -0.712598006825470E+00   0.216864789541167E-01   0.152757E-01   0.000000E+00   0.125732E+03   0.257382E-18
   LPB:    2  -0.712591692265422E+00   0.104352721607915E-01   0.163379E-01   0.804492E-01   0.701626E+02   0.118061E-15
   LPB:    3  -0.712590000679779E+00   0.509199172302468E-02   0.171330E-01   0.255455E+00   0.265375E+03   0.200791E-15
   LPB:    4  -0.712589261631948E+00   0.282702779731582E-02   0.220607E-01   0.339307E+00   0.163081E+03   0.237192E-15
   LPB:    5  -0.712588908364471E+00   0.228805653483821E-02   0.232886E-01   0.452801E+00   0.343004E+03   0.260432E-15
   LPB:    6  -0.712588676992735E+00   0.137918243121893E-02   0.275370E-01   0.553902E+00   0.138534E+03   0.274211E-15
   LPB:    7  -0.712588506613749E+00   0.996400366351967E-03   0.315252E-01   0.643228E+00   0.443636E+03   0.295575E-15
   LPB:    8  -0.712588364222571E+00   0.519510595891598E-03   0.378198E-01   0.696635E+00   0.158787E+03   0.312368E-15
  Finished solving LPB equations
  A_corr:   -0.633604731647839     
 End minimization
 Ecorr=   1403.52167171212     
 A_corr= -0.633604731647839     
 Ecorr_band=  -1404.15527644377     
 End Solvation calculations
RMM:  31    -0.134248381618E+03   -0.57285E-04   -0.13572E-05  2455   0.904E-03    0.103E-02
 Begin Solvation calculations
  rms_SCF =   9.930033816878469E-003 tol =   9.930033816878468E-004
 Begin minimization
 Creating dielectric and ionic cavities
  area:      150.451250522200     
  volume:    676.038202192267     
  Acav:     7.898690652415520E-002
  Solving linear dielectric/ionic screening model
        iter                  A_solv                     rms
   LPB:       -0.713157553975007E+00   0.105212809702460E+00
   LPB:    0  -0.713152791052361E+00   0.910259641436081E-01  -0.537267E-03   0.000000E+00   0.330006E+02  -0.177302E-01
   LPB:    1  -0.713123707959966E+00   0.117192442100457E-01   0.948551E-02   0.000000E+00   0.677543E+02  -0.143091E-17
   LPB:    2  -0.713121059133731E+00   0.397679913675870E-02   0.145734E-01   0.592805E-01   0.111680E+03   0.145704E-15
   LPB:    3  -0.713120693441375E+00   0.205287790951769E-02   0.165813E-01   0.121341E+00   0.155837E+03   0.159775E-15
   LPB:    4  -0.713120556011232E+00   0.117464985867115E-02   0.255390E-01   0.243994E+00   0.836764E+02   0.160820E-15
   LPB:    5  -0.713120457457545E+00   0.679702633543853E-03   0.292247E-01   0.626679E+00   0.210732E+03   0.164698E-15
  Finished solving LPB equations
  A_corr:   -0.634133550933390     
 End minimization
 Ecorr=   1403.31160310399     
 A_corr= -0.634133550933390     
 Ecorr_band=  -1403.94573665492     
 End Solvation calculations
RMM:  32    -0.134248388704E+03   -0.70852E-05   -0.33370E-06  2335   0.722E-03
 Begin Solvation calculations
  rms_SCF =   9.930033816878469E-003 tol =   9.930033816878468E-004
 Begin minimization
 Creating dielectric and ionic cavities
  area:      150.454518854710     
  volume:    676.037935697412     
  Acav:     7.898862239872254E-002
  Solving linear dielectric/ionic screening model
        iter                  A_solv                     rms
   LPB:       -0.713478525530674E+00   0.772990406632973E-01
   LPB:    0  -0.713476175278731E+00   0.676925803405644E-01  -0.377408E-03   0.000000E+00   0.330007E+02  -0.124547E-01
   LPB:    1  -0.713460874968685E+00   0.838796867274160E-02   0.938327E-02   0.000000E+00   0.665359E+02  -0.872356E-18
   LPB:    2  -0.713459464443287E+00   0.284200200912851E-02   0.148668E-01   0.581859E-01   0.106434E+03   0.741734E-16
   LPB:    3  -0.713459291540949E+00   0.161446337646149E-02   0.163862E-01   0.111214E+00   0.144420E+03   0.118322E-15
   LPB:    4  -0.713459202823064E+00   0.905412643591867E-03   0.290580E-01   0.289349E+00   0.698043E+02   0.121062E-15
  Finished solving LPB equations
  A_corr:   -0.634470580424342     
 End minimization
 Ecorr=   1403.16617041684     
 A_corr= -0.634470580424342     
 Ecorr_band=  -1403.80064099726     
 End Solvation calculations
   1 F= -.13424839E+03 E0= -.13424241E+03  d E =-.134248E+03
quench:  g(F)=  0.000E+00 g(S)=  0.000E+00 dE (1.order)= 0.000E+00
 bond charge predicted
       N       E                     dE             d eps       ncg     rms          rms(c)
 Begin Solvation calculations
  rms_SCF =   9.930033816878469E-003 tol =   9.930033816878468E-004
 Begin minimization
 Creating dielectric and ionic cavities
  area:      150.494271262798     
  volume:    676.043717650565     
  Acav:     7.900949241296905E-002
  Solving linear dielectric/ionic screening model
        iter                  A_solv                     rms
   LPB:       -0.714575368829199E+00   0.314394652955819E-02
   LPB:    0  -0.714575368824660E+00   0.314161272606092E-02   0.524486E-06   0.000000E+00   0.330004E+02   0.173082E-04
   LPB:    1  -0.713781436413503E+00   0.128333341129735E-02   0.157422E-01   0.000000E+00   0.649142E+06   0.140893E-20
   LPB:    2  -0.713698120127413E+00   0.141607078372062E-02   0.266602E-01   0.619655E-01   0.138272E+06   0.318853E-18
   LPB:    3  -0.713673115110954E+00   0.264485345730144E-02   0.320017E-01   0.250027E+00   0.253483E+05   0.287734E-17
   LPB:    4  -0.713663065130044E+00   0.714236805641392E-02   0.341425E-01   0.376718E+00   0.288381E+04   0.343659E-17
   LPB:    5  -0.713658960481031E+00   0.133399777355298E-01   0.278190E-01   0.501263E+00   0.285805E+03   0.893570E-17
   LPB:    6  -0.713656597264524E+00   0.587233173310102E-02   0.186663E-01   0.858045E+00   0.199746E+03   0.996736E-17
   LPB:    7  -0.713654532164258E+00   0.176662397158686E-02   0.328658E-01   0.496310E+00   0.771707E+03   0.119621E-16
   LPB:    8  -0.713653241562232E+00   0.311550209249170E-02   0.373252E-01   0.550292E+00   0.166228E+04   0.871312E-17
   LPB:    9  -0.713652533130248E+00   0.401076592616951E-02   0.294690E-01   0.695254E+00   0.159780E+03  -0.142945E-17
   LPB:   10  -0.713652019824699E+00   0.202176391865767E-02   0.257372E-01   0.829625E+00   0.307475E+03   0.181024E-16
   LPB:   11  -0.713651616549457E+00   0.784386184062884E-03   0.355139E-01   0.569360E+00   0.379737E+03   0.194786E-16
  Finished solving LPB equations
  A_corr:   -0.634642124136488     
 End minimization
 Ecorr=   1403.04358908980     
 A_corr= -0.634642124136488     
 Ecorr_band=  -1403.67823121394     
 End Solvation calculations
DAV:   1    -0.134252765893E+03   -0.43843E-02   -0.69382E-02  4212   0.419E-01    0.865E-02
 Begin Solvation calculations
  rms_SCF =   9.930033816878469E-003 tol =   9.930033816878468E-004
 Begin minimization
 Creating dielectric and ionic cavities
  area:      150.464904909756     
  volume:    676.004625048699     
  Acav:     7.899407507762179E-002
  Solving linear dielectric/ionic screening model
        iter                  A_solv                     rms
   LPB:       -0.714960492754274E+00   0.131777196124386E+00
   LPB:    0  -0.714948791167277E+00   0.112390740558988E+00  -0.842104E-03   0.000000E+00   0.330022E+02  -0.277913E-01
   LPB:    1  -0.714862873172700E+00   0.314097996843701E-01   0.119762E-01   0.000000E+00   0.884993E+02  -0.152982E-17
   LPB:    2  -0.714850678455859E+00   0.616651531159679E-02   0.132357E-01   0.128428E+00   0.259577E+03  -0.120868E-15
   LPB:    3  -0.714846947376836E+00   0.482695162965573E-02   0.244723E-01   0.165476E+00   0.592789E+03  -0.143715E-15
   LPB:    4  -0.714845719985425E+00   0.456852876303231E-02   0.232732E-01   0.345913E+00   0.170944E+03  -0.159901E-15
   LPB:    5  -0.714845030185441E+00   0.249732979923489E-02   0.242149E-01   0.540149E+00   0.249416E+03  -0.168823E-15
   LPB:    6  -0.714844603649874E+00   0.112910313165364E-02   0.315185E-01   0.475062E+00   0.242802E+03  -0.185774E-15
   LPB:    7  -0.714844339022925E+00   0.653571547975291E-03   0.339758E-01   0.575539E+00   0.899530E+03  -0.211774E-15
  Finished solving LPB equations
  A_corr:   -0.635850263945304     
 End minimization
 Ecorr=   1402.92334318198     
 A_corr= -0.635850263945304     
 Ecorr_band=  -1403.55919344592     
 End Solvation calculations
RMM:   2    -0.134253162685E+03   -0.39679E-03   -0.46665E-03  5845   0.119E-01    0.947E-02
 Begin Solvation calculations
  rms_SCF =   9.930033816878469E-003 tol =   9.930033816878468E-004
 Begin minimization
 Creating dielectric and ionic cavities
  area:      150.467129859645     
  volume:    676.005125853176     
  Acav:     7.899524317631365E-002
  Solving linear dielectric/ionic screening model
        iter                  A_solv                     rms
   LPB:       -0.715083732702701E+00   0.429599433786921E-01
   LPB:    0  -0.715083171093712E+00   0.402344545180957E-01  -0.184485E-03   0.000000E+00   0.330022E+02  -0.608840E-02
   LPB:    1  -0.715076724400537E+00   0.614940882622603E-02   0.954622E-02   0.000000E+00   0.849332E+02  -0.141856E-18
   LPB:    2  -0.715075561248213E+00   0.126188959669389E-02   0.180660E-01   0.953387E-01   0.167521E+03   0.508747E-16
   LPB:    3  -0.715075331401482E+00   0.112254167574256E-02   0.276744E-01   0.128999E+00   0.312420E+03   0.491677E-16
   LPB:    4  -0.715075212817238E+00   0.133140712139835E-02   0.306836E-01   0.465330E+00   0.201116E+03   0.494137E-16
   LPB:    5  -0.715075111313049E+00   0.135452318540744E-02   0.311152E-01   0.844094E+00   0.299226E+03   0.495050E-16
   LPB:    6  -0.715075008059747E+00   0.780310930345156E-03   0.346157E-01   0.914365E+00   0.124794E+03   0.426034E-16
  Finished solving LPB equations
  A_corr:   -0.636079764883434     
 End minimization
 Ecorr=   1402.86270243682     
 A_corr= -0.636079764883434     
 Ecorr_band=  -1403.49878220170     
 End Solvation calculations
RMM:   3    -0.134253257187E+03   -0.94501E-04   -0.43636E-04  4263   0.471E-02    0.210E-01
 Begin Solvation calculations
  rms_SCF =   9.930033816878469E-003 tol =   9.930033816878468E-004
 Begin minimization
 Creating dielectric and ionic cavities
  area:      150.469690301871     
  volume:    676.003816597426     
  Acav:     7.899658740848224E-002
  Solving linear dielectric/ionic screening model
        iter                  A_solv                     rms
   LPB:       -0.715452265730956E+00   0.623046262703763E-01
   LPB:    0  -0.715451530740013E+00   0.597034553431487E-01  -0.211049E-03   0.000000E+00   0.330023E+02  -0.696511E-02
   LPB:    1  -0.715438827902179E+00   0.704069533074293E-02   0.962374E-02   0.000000E+00   0.754403E+02  -0.268444E-18
   LPB:    2  -0.715437485087399E+00   0.140537332270732E-02   0.141115E-01   0.720919E-01   0.244362E+03  -0.281230E-16
   LPB:    3  -0.715437222514314E+00   0.136656966944788E-02   0.260741E-01   0.105827E+00   0.391917E+03  -0.508177E-16
   LPB:    4  -0.715437125876968E+00   0.120350451506363E-02   0.250486E-01   0.383108E+00   0.139334E+03  -0.528705E-16
   LPB:    5  -0.715437061932420E+00   0.796889065832834E-03   0.269781E-01   0.614370E+00   0.315566E+03  -0.603721E-16
  Finished solving LPB equations
  A_corr:   -0.636440474523938     
 End minimization
 Ecorr=   1402.82783365770     
 A_corr= -0.636440474523938     
 Ecorr_band=  -1403.46427413223     
 End Solvation calculations
RMM:   4    -0.134253039901E+03    0.21729E-03   -0.20390E-04  3379   0.349E-02    0.424E-02
 Begin Solvation calculations
  rms_SCF =   9.930033816878469E-003 tol =   9.930033816878468E-004
 Begin minimization
 Creating dielectric and ionic cavities
  area:      150.462814594447     
  volume:    675.992798399590     
  Acav:     7.899297766208446E-002
  Solving linear dielectric/ionic screening model
        iter                  A_solv                     rms
   LPB:       -0.716837073695012E+00   0.105969899674843E+00
   LPB:    0  -0.716823886929751E+00   0.739248228957304E-01  -0.893941E-03   0.000000E+00   0.330028E+02  -0.295025E-01
   LPB:    1  -0.716759096915207E+00   0.263006294381493E-01   0.137519E-01   0.000000E+00   0.100088E+03  -0.455376E-20
   LPB:    2  -0.716752372559936E+00   0.710965542398325E-02   0.132926E-01   0.107374E+00   0.163414E+03   0.121354E-15
   LPB:    3  -0.716750192308238E+00   0.435367663974834E-02   0.204840E-01   0.210402E+00   0.388313E+03   0.142582E-15
   LPB:    4  -0.716749445937368E+00   0.390515822250663E-02   0.214891E-01   0.326320E+00   0.132654E+03   0.142907E-15
   LPB:    5  -0.716749034264339E+00   0.196315969314545E-02   0.233968E-01   0.506593E+00   0.246169E+03   0.130818E-15
   LPB:    6  -0.716748793192236E+00   0.714988707901037E-03   0.315797E-01   0.433855E+00   0.185016E+03   0.144740E-15
  Finished solving LPB equations
  A_corr:   -0.637755815530151     
 End minimization
 Ecorr=   1402.62093149228     
 A_corr= -0.637755815530151     
 Ecorr_band=  -1403.25868730781     
 End Solvation calculations
RMM:   5    -0.134253019609E+03    0.20292E-04   -0.56516E-05  2713   0.194E-02    0.198E-02
 Begin Solvation calculations
  rms_SCF =   9.930033816878469E-003 tol =   9.930033816878468E-004
 Begin minimization
 Creating dielectric and ionic cavities
  area:      150.465606595059     
  volume:    675.996486579874     
  Acav:     7.899444346240612E-002
  Solving linear dielectric/ionic screening model
        iter                  A_solv                     rms
   LPB:       -0.717671848224035E+00   0.902709840967664E-01
   LPB:    0  -0.717667065856293E+00   0.769565075467172E-01  -0.538347E-03   0.000000E+00   0.330026E+02  -0.177669E-01
   LPB:    1  -0.717631967442775E+00   0.190824124290050E-01   0.112978E-01   0.000000E+00   0.841430E+02  -0.804103E-18
   LPB:    2  -0.717627813983774E+00   0.304809201784482E-02   0.126483E-01   0.105702E+00   0.197209E+03  -0.942461E-16
   LPB:    3  -0.717626931560758E+00   0.258249501119957E-02   0.226706E-01   0.118532E+00   0.444337E+03  -0.105887E-15
   LPB:    4  -0.717626615490611E+00   0.233750781972748E-02   0.248889E-01   0.326260E+00   0.979904E+02  -0.108237E-15
   LPB:    5  -0.717626384169893E+00   0.162469135266610E-02   0.279525E-01   0.651652E+00   0.290323E+03  -0.104417E-15
   LPB:    6  -0.717626214719753E+00   0.685334839433548E-03   0.323777E-01   0.632416E+00   0.107904E+03  -0.976884E-16
  Finished solving LPB equations
  A_corr:   -0.638631771257346     
 End minimization
 Ecorr=   1402.42446269290     
 A_corr= -0.638631771257346     
 Ecorr_band=  -1403.06309446416     
 End Solvation calculations
RMM:   6    -0.134253014014E+03    0.55954E-05   -0.45183E-05  3048   0.314E-02
 Begin Solvation calculations
  rms_SCF =   9.930033816878469E-003 tol =   9.930033816878468E-004
 Begin minimization
 Creating dielectric and ionic cavities
  area:      150.470259866181     
  volume:    676.002022242759     
  Acav:     7.899688642974477E-002
  Solving linear dielectric/ionic screening model
        iter                  A_solv                     rms
   LPB:       -0.718250149285325E+00   0.455445188861402E-01
   LPB:    0  -0.718247663713153E+00   0.301311054650642E-01  -0.388111E-03   0.000000E+00   0.330023E+02  -0.128086E-01
   LPB:    1  -0.718236633481545E+00   0.101796308604748E-01   0.138226E-01   0.000000E+00   0.926491E+02   0.630517E-18
   LPB:    2  -0.718235628451583E+00   0.292422434526834E-02   0.135600E-01   0.928801E-01   0.137904E+03   0.493702E-16
   LPB:    3  -0.718235353038318E+00   0.168912384864304E-02   0.185817E-01   0.199977E+00   0.255730E+03   0.585068E-16
   LPB:    4  -0.718235232730844E+00   0.174805812266578E-02   0.247800E-01   0.327562E+00   0.849352E+02   0.572468E-16
   LPB:    5  -0.718235126780911E+00   0.129131606843974E-02   0.290304E-01   0.751718E+00   0.202673E+03   0.486616E-16
   LPB:    6  -0.718235023254447E+00   0.562178365240937E-03   0.367405E-01   0.772073E+00   0.706848E+02   0.496721E-16
  Finished solving LPB equations
  A_corr:   -0.639238136824702     
 End minimization
 Ecorr=   1402.26422980200     
 A_corr= -0.639238136824702     
 Ecorr_band=  -1402.90346793883     
 End Solvation calculations
   2 F= -.13425301E+03 E0= -.13424702E+03  d E =-.462531E-02
quench:  g(F)=  0.000E+00 g(S)=  0.000E+00 dE (1.order)= 0.000E+00
 bond charge predicted
       N       E                     dE             d eps       ncg     rms          rms(c)
 Begin Solvation calculations
  rms_SCF =   9.930033816878469E-003 tol =   9.930033816878468E-004
 Begin minimization
 Creating dielectric and ionic cavities
  area:      150.563103870529     
  volume:    676.002568414882     
  Acav:     7.904562953202780E-002
  Solving linear dielectric/ionic screening model
        iter                  A_solv                     rms
   LPB:       -0.721673307955072E+00   0.535871070076405E-02
   LPB:    0  -0.721673307955069E+00   0.535866577488986E-02   0.114789E-07   0.000000E+00   0.330023E+02   0.378831E-06
   LPB:    1  -0.719112301233995E+00   0.194887942745553E-02   0.155904E-01   0.000000E+00   0.732881E+06   0.191207E-22
   LPB:    2  -0.718867690865817E+00   0.176450128234970E-02   0.263695E-01   0.564703E-01   0.172143E+06  -0.155685E-17
   LPB:    3  -0.718795633946294E+00   0.258689373784558E-02   0.318797E-01   0.243662E+00   0.384596E+05   0.365535E-17
   LPB:    4  -0.718766332088113E+00   0.743808669708120E-02   0.346997E-01   0.373601E+00   0.936957E+04  -0.547490E-17
   LPB:    5  -0.718753189313014E+00   0.173965990139938E-01   0.328454E-01   0.473852E+00   0.516637E+03  -0.111717E-16
   LPB:    6  -0.718747243420328E+00   0.145487600010333E-01   0.199366E-01   0.745338E+00   0.182752E+03   0.378609E-16
   LPB:    7  -0.718741765985133E+00   0.497921215728798E-02   0.266273E-01   0.689739E+00   0.426512E+03   0.518742E-16
   LPB:    8  -0.718738093765576E+00   0.643390231203121E-02   0.352232E-01   0.506815E+00   0.434383E+03   0.721274E-16
   LPB:    9  -0.718736077339436E+00   0.693142962881818E-02   0.268460E-01   0.720448E+00   0.222715E+03   0.936730E-16
   LPB:   10  -0.718734476709013E+00   0.261437317348965E-02   0.273901E-01   0.778027E+00   0.206108E+03   0.173626E-15
   LPB:   11  -0.718733290816753E+00   0.106352306421109E-02   0.370756E-01   0.547344E+00   0.210672E+04   0.187726E-15
   LPB:   12  -0.718732476689791E+00   0.100598575323894E-02   0.400702E-01   0.635203E+00   0.120157E+04   0.177730E-15
   LPB:   13  -0.718731932030029E+00   0.113638883404921E-02   0.367592E-01   0.729271E+00   0.137917E+04   0.159269E-15
   LPB:   14  -0.718731539717217E+00   0.870448590176655E-03   0.348499E-01   0.759753E+00   0.949570E+03   0.145086E-15
  Finished solving LPB equations
  A_corr:   -0.639685910185189     
 End minimization
 Ecorr=   1402.10159934908     
 A_corr= -0.639685910185189     
 Ecorr_band=  -1402.74128525927     
 End Solvation calculations
DAV:   1    -0.134257378382E+03   -0.43588E-02   -0.20711E-01  4158   0.775E-01    0.143E-01
 Begin Solvation calculations
  rms_SCF =   9.930033816878469E-003 tol =   9.930033816878468E-004
 Begin minimization
 Creating dielectric and ionic cavities
  area:      150.500127731114     
  volume:    675.945045600126     
  Acav:     7.901256705883510E-002
  Solving linear dielectric/ionic screening model
        iter                  A_solv                     rms
   LPB:       -0.721590766560300E+00   0.210754629679911E+00
   LPB:    0  -0.721548541368153E+00   0.166078627086861E+00  -0.159960E-02   0.000000E+00   0.330050E+02  -0.527948E-01
   LPB:    1  -0.721301370933359E+00   0.610786660702290E-01   0.126896E-01   0.000000E+00   0.998322E+02   0.911400E-18
   LPB:    2  -0.721265733799549E+00   0.114058186482565E-01   0.131156E-01   0.139497E+00   0.183329E+03   0.113655E-15
   LPB:    3  -0.721254547196254E+00   0.807101044636015E-02   0.235867E-01   0.174549E+00   0.525766E+03   0.140282E-15
   LPB:    4  -0.721250960665349E+00   0.794152264328531E-02   0.232990E-01   0.324569E+00   0.168443E+03   0.158114E-15
   LPB:    5  -0.721249075221708E+00   0.424906787807761E-02   0.231002E-01   0.530225E+00   0.232926E+03   0.150666E-15
   LPB:    6  -0.721247953900567E+00   0.169779889524161E-02   0.312346E-01   0.439842E+00   0.228965E+03   0.776344E-16
   LPB:    7  -0.721247324170658E+00   0.100378084086056E-02   0.332954E-01   0.526837E+00   0.869678E+03   0.427864E-16
   LPB:    8  -0.721246929826218E+00   0.649029391640090E-03   0.346839E-01   0.601143E+00   0.599799E+03   0.219859E-16
  Finished solving LPB equations
  A_corr:   -0.642234362767383     
 End minimization
 Ecorr=   1401.82691969085     
 A_corr= -0.642234362767383     
 Ecorr_band=  -1402.46915405362     
 End Solvation calculations
RMM:   2    -0.134258504882E+03   -0.11265E-02   -0.14018E-02  5843   0.215E-01    0.136E-01
 Begin Solvation calculations
  rms_SCF =   9.930033816878469E-003 tol =   9.930033816878468E-004
 Begin minimization
 Creating dielectric and ionic cavities
  area:      150.505886586746     
  volume:    675.951720195442     
  Acav:     7.901559045804184E-002
  Solving linear dielectric/ionic screening model
        iter                  A_solv                     rms
   LPB:       -0.721969825050629E+00   0.652333185635675E-01
   LPB:    0  -0.721966761877778E+00   0.553316538663078E-01  -0.430837E-03   0.000000E+00   0.330047E+02  -0.142196E-01
   LPB:    1  -0.721946632660438E+00   0.168567060267487E-01   0.119109E-01   0.000000E+00   0.862151E+02  -0.506222E-18
   LPB:    2  -0.721942334739741E+00   0.369091587718314E-02   0.142668E-01   0.178258E+00   0.191288E+03  -0.175956E-15
   LPB:    3  -0.721941461069402E+00   0.220050136547721E-02   0.255641E-01   0.113445E+00   0.206675E+03  -0.210614E-15
   LPB:    4  -0.721941140448112E+00   0.183055204983067E-02   0.269333E-01   0.348327E+00   0.192973E+03  -0.214754E-15
   LPB:    5  -0.721940950180179E+00   0.188860450285599E-02   0.279740E-01   0.571356E+00   0.307112E+03  -0.214505E-15
   LPB:    6  -0.721940777936131E+00   0.107127683388936E-02   0.320690E-01   0.789675E+00   0.109374E+03  -0.228812E-15
   LPB:    7  -0.721940632804772E+00   0.720538177168313E-03   0.363620E-01   0.743112E+00   0.462459E+03  -0.237836E-15
  Finished solving LPB equations
  A_corr:   -0.642925042346730     
 End minimization
 Ecorr=   1401.70240642597     
 A_corr= -0.642925042346730     
 Ecorr_band=  -1402.34533146832     
 End Solvation calculations
RMM:   3    -0.134258575242E+03   -0.70360E-04   -0.11258E-03  4611   0.764E-02    0.290E-01
 Begin Solvation calculations
  rms_SCF =   9.930033816878469E-003 tol =   9.930033816878468E-004
 Begin minimization
 Creating dielectric and ionic cavities
  area:      150.510271053343     
  volume:    675.951973169084     
  Acav:     7.901789230300521E-002
  Solving linear dielectric/ionic screening model
        iter                  A_solv                     rms
   LPB:       -0.722549792607826E+00   0.889673177859681E-01
   LPB:    0  -0.722548232545303E+00   0.849491441393243E-01  -0.307467E-03   0.000000E+00   0.330047E+02  -0.101478E-01
   LPB:    1  -0.722522454817489E+00   0.977400731765002E-02   0.942474E-02   0.000000E+00   0.785447E+02  -0.230002E-18
   LPB:    2  -0.722519871121337E+00   0.184980549730451E-02   0.143980E-01   0.656093E-01   0.225262E+03   0.344264E-16
   LPB:    3  -0.722519391964364E+00   0.188668318268933E-02   0.257582E-01   0.103662E+00   0.480599E+03  -0.555769E-17
   LPB:    4  -0.722519231794487E+00   0.153503403390869E-02   0.237555E-01   0.362455E+00   0.126222E+03  -0.184193E-16
   LPB:    5  -0.722519126033349E+00   0.998719918839682E-03   0.272680E-01   0.575251E+00   0.339893E+03  -0.119393E-16
   LPB:    6  -0.722519043995881E+00   0.523184205058567E-03   0.339966E-01   0.622163E+00   0.171567E+03  -0.168690E-16
  Finished solving LPB equations
  A_corr:   -0.643501151692875     
 End minimization
 Ecorr=   1401.61706476077     
 A_corr= -0.643501151692875     
 Ecorr_band=  -1402.26056591247     
 End Solvation calculations
RMM:   4    -0.134258187400E+03    0.38784E-03   -0.51927E-04  4069   0.541E-02    0.936E-02
 Begin Solvation calculations
  rms_SCF =   9.930033816878469E-003 tol =   9.930033816878468E-004
 Begin minimization
 Creating dielectric and ionic cavities
  area:      150.505730193845     
  volume:    675.944294128943     
  Acav:     7.901550835176868E-002
  Solving linear dielectric/ionic screening model
        iter                  A_solv                     rms
   LPB:       -0.724886096468709E+00   0.145867216983594E+00
   LPB:    0  -0.724856271198869E+00   0.942875847332392E-01  -0.134436E-02   0.000000E+00   0.330050E+02  -0.443708E-01
   LPB:    1  -0.724719918397330E+00   0.427263171547568E-01   0.145112E-01   0.000000E+00   0.111750E+03   0.458620E-18
   LPB:    2  -0.724705196856697E+00   0.111610948525851E-01   0.132983E-01   0.117814E+00   0.118760E+03  -0.286079E-15
   LPB:    3  -0.724700428553323E+00   0.578309803180737E-02   0.198419E-01   0.217083E+00   0.362741E+03  -0.304461E-15
   LPB:    4  -0.724698825054054E+00   0.534637942587330E-02   0.224790E-01   0.296831E+00   0.134836E+03  -0.303985E-15
   LPB:    5  -0.724698018536631E+00   0.313942898390039E-02   0.223776E-01   0.505254E+00   0.260974E+03  -0.310220E-15
   LPB:    6  -0.724697531442234E+00   0.104090372946014E-02   0.307558E-01   0.439426E+00   0.140495E+03  -0.295945E-15
   LPB:    7  -0.724697255066513E+00   0.685951642237003E-03   0.334901E-01   0.521071E+00   0.418096E+03  -0.279330E-15
  Finished solving LPB equations
  A_corr:   -0.645681746714745     
 End minimization
 Ecorr=   1401.28580910216     
 A_corr= -0.645681746714745     
 Ecorr_band=  -1401.93149084887     
 End Solvation calculations
RMM:   5    -0.134258120763E+03    0.66637E-04   -0.19581E-04  3881   0.455E-02    0.470E-02
 Begin Solvation calculations
  rms_SCF =   9.930033816878469E-003 tol =   9.930033816878468E-004
 Begin minimization
 Creating dielectric and ionic cavities
  area:      150.509551269606     
  volume:    675.952971995920     
  Acav:     7.901751441654295E-002
  Solving linear dielectric/ionic screening model
        iter                  A_solv                     rms
   LPB:       -0.726671162581210E+00   0.123935028291961E+00
   LPB:    0  -0.726653088218783E+00   0.854605831133399E-01  -0.104655E-02   0.000000E+00   0.330046E+02  -0.345409E-01
   LPB:    1  -0.726562440389237E+00   0.384534695249152E-01   0.137413E-01   0.000000E+00   0.102535E+03  -0.250366E-17
   LPB:    2  -0.726551804574242E+00   0.755792510662970E-02   0.127081E-01   0.126870E+00   0.115143E+03  -0.147855E-15
   LPB:    3  -0.726548769496985E+00   0.472708900273675E-02   0.205613E-01   0.176372E+00   0.346595E+03  -0.164118E-15
   LPB:    4  -0.726547800208525E+00   0.406308431544706E-02   0.229488E-01   0.286137E+00   0.105772E+03  -0.170698E-15
   LPB:    5  -0.726547234860933E+00   0.271971108016425E-02   0.246016E-01   0.544075E+00   0.284920E+03  -0.172504E-15
   LPB:    6  -0.726546817004992E+00   0.954880981304852E-03   0.338254E-01   0.537565E+00   0.102653E+03  -0.198588E-15
  Finished solving LPB equations
  A_corr:   -0.647529302588449     
 End minimization
 Ecorr=   1400.93086376027     
 A_corr= -0.647529302588449     
 Ecorr_band=  -1401.57839306286     
 End Solvation calculations
RMM:   6    -0.134258086369E+03    0.34393E-04   -0.14108E-04  3864   0.537E-02    0.270E-02
 Begin Solvation calculations
  rms_SCF =   9.556327393736375E-003 tol =   9.556327393736375E-004
 Begin minimization
 Creating dielectric and ionic cavities
  area:      150.526951102163     
  volume:    675.972869027065     
  Acav:     7.902664932863532E-002
  Solving linear dielectric/ionic screening model
        iter                  A_solv                     rms
   LPB:       -0.728558435785688E+00   0.127923584868477E+00
   LPB:    0  -0.728540787967071E+00   0.912095014467656E-01  -0.103414E-02   0.000000E+00   0.330037E+02  -0.341304E-01
   LPB:    1  -0.728453737989483E+00   0.399029812482116E-01   0.129586E-01   0.000000E+00   0.985502E+02   0.111455E-17
   LPB:    2  -0.728442747805939E+00   0.657721657390264E-02   0.126058E-01   0.129784E+00   0.107064E+03   0.317671E-16
   LPB:    3  -0.728440104733371E+00   0.452166317053330E-02   0.205392E-01   0.147602E+00   0.294647E+03   0.236189E-16
   LPB:    4  -0.728439159427357E+00   0.386808902958842E-02   0.251106E-01   0.292543E+00   0.855084E+02   0.222563E-16
   LPB:    5  -0.728438547268873E+00   0.296199870982534E-02   0.261422E-01   0.622022E+00   0.271624E+03   0.577730E-16
   LPB:    6  -0.728438066866058E+00   0.112066169742143E-02   0.332699E-01   0.616641E+00   0.766564E+02   0.574355E-16
   LPB:    7  -0.728437738231803E+00   0.747638414409617E-03   0.347737E-01   0.654497E+00   0.174920E+03   0.674618E-16
  Finished solving LPB equations
  A_corr:   -0.649411088903167     
 End minimization
 Ecorr=   1400.48488496843     
 A_corr= -0.649411088903167     
 Ecorr_band=  -1401.13429605733     
 End Solvation calculations
RMM:   7    -0.134258080416E+03    0.59531E-05   -0.38193E-05  2736   0.259E-02
 Begin Solvation calculations
  rms_SCF =   9.556327393736375E-003 tol =   9.556327393736375E-004
 Begin minimization
 Creating dielectric and ionic cavities
  area:      150.537064417658     
  volume:    675.983919362801     
  Acav:     7.903195881927054E-002
  Solving linear dielectric/ionic screening model
        iter                  A_solv                     rms
   LPB:       -0.729111680770989E+00   0.424400255643535E-01
   LPB:    0  -0.729109452079558E+00   0.267165764892939E-01  -0.367504E-03   0.000000E+00   0.330032E+02  -0.121288E-01
   LPB:    1  -0.729099542549398E+00   0.791383274749594E-02   0.155438E-01   0.000000E+00   0.770104E+02   0.500771E-18
   LPB:    2  -0.729098590539088E+00   0.298306918611983E-02   0.155629E-01   0.959523E-01   0.133388E+03   0.161844E-15
   LPB:    3  -0.729098328805253E+00   0.112481228519500E-02   0.205948E-01   0.207755E+00   0.126551E+03   0.165381E-15
   LPB:    4  -0.729098180078747E+00   0.193893611461338E-02   0.313142E-01   0.373719E+00   0.115260E+03   0.170098E-15
   LPB:    5  -0.729098034442517E+00   0.285931564289375E-02   0.295361E-01   0.103817E+01   0.106173E+03   0.173973E-15
   LPB:    6  -0.729097838237054E+00   0.118153520385756E-02   0.315303E-01   0.126202E+01   0.416188E+02   0.177607E-15
   LPB:    7  -0.729097685091997E+00   0.471308224688681E-03   0.331654E-01   0.742052E+00   0.953171E+02   0.183633E-15
  Finished solving LPB equations
  A_corr:   -0.650065726272726     
 End minimization
 Ecorr=   1400.23244403582     
 A_corr= -0.650065726272726     
 Ecorr_band=  -1400.88250976210     
 End Solvation calculations
   3 F= -.13425808E+03 E0= -.13425207E+03  d E =-.506640E-02
quench:  g(F)=  0.000E+00 g(S)=  0.000E+00 dE (1.order)= 0.000E+00
 bond charge predicted
       N       E                     dE             d eps       ncg     rms          rms(c)
 Begin Solvation calculations
  rms_SCF =   9.556327393736375E-003 tol =   9.556327393736375E-004
 Begin minimization
 Creating dielectric and ionic cavities
  area:      150.684944113790     
  volume:    675.945218274419     
  Acav:     7.910959565973998E-002
  Solving linear dielectric/ionic screening model
        iter                  A_solv                     rms
   LPB:       -0.734643756202838E+00   0.695753772320223E-02
   LPB:    0  -0.734643755980324E+00   0.699862404703713E-02  -0.367201E-05   0.000000E+00   0.330050E+02  -0.121195E-03
   LPB:    1  -0.730756627531686E+00   0.271777876797510E-02   0.152927E-01   0.000000E+00   0.647181E+06   0.432143E-20
   LPB:    2  -0.730469494063702E+00   0.329082601119309E-02   0.254602E-01   0.443689E-01   0.116174E+06  -0.114682E-16
   LPB:    3  -0.730388751795357E+00   0.651373696892506E-02   0.316297E-01   0.226352E+00   0.163594E+05  -0.112175E-16
   LPB:    4  -0.730355421225923E+00   0.180056514309970E-01   0.342426E-01   0.381303E+00   0.177925E+04  -0.280064E-16
   LPB:    5  -0.730341793979222E+00   0.259281974011871E-01   0.243655E-01   0.574589E+00   0.200144E+03  -0.345382E-16
   LPB:    6  -0.730331759528771E+00   0.856447803040587E-02   0.206118E-01   0.870452E+00   0.270284E+03  -0.425585E-16
   LPB:    7  -0.730323811822966E+00   0.305539087043026E-02   0.357574E-01   0.456561E+00   0.132803E+04  -0.419846E-16
   LPB:    8  -0.730318904345665E+00   0.526768718695287E-02   0.382503E-01   0.577228E+00   0.559815E+03  -0.453570E-16
   LPB:    9  -0.730316207314803E+00   0.798013508346483E-02   0.304374E-01   0.690646E+00   0.334563E+03  -0.407211E-16
   LPB:   10  -0.730314370753546E+00   0.396489590092213E-02   0.249945E-01   0.829245E+00   0.140433E+03  -0.274183E-16
   LPB:   11  -0.730312906337962E+00   0.153804846006150E-02   0.346388E-01   0.575360E+00   0.109432E+04  -0.126596E-16
   LPB:   12  -0.730311886837908E+00   0.101732136748357E-02   0.400254E-01   0.602490E+00   0.625660E+03   0.233987E-16
   LPB:   13  -0.730311235469200E+00   0.114996815165887E-02   0.376393E-01   0.679413E+00   0.121310E+04   0.483248E-16
   LPB:   14  -0.730310799769120E+00   0.980485182362683E-03   0.351908E-01   0.715438E+00   0.641820E+03   0.582564E-16
   LPB:   15  -0.730310487844457E+00   0.598094996188448E-03   0.353159E-01   0.713380E+00   0.105085E+04   0.663617E-16
  Finished solving LPB equations
  A_corr:   -0.651200892184717     
 End minimization
 Ecorr=   1399.97460753864     
 A_corr= -0.651200892184717     
 Ecorr_band=  -1400.62580843082     
 End Solvation calculations
DAV:   1    -0.134260686294E+03   -0.25999E-02   -0.25424E-01  4149   0.102E+00    0.126E-01
 Begin Solvation calculations
  rms_SCF =   9.556327393736375E-003 tol =   9.556327393736375E-004
 Begin minimization
 Creating dielectric and ionic cavities
  area:      150.583675647903     
  volume:    675.899696444184     
  Acav:     7.905642971514919E-002
  Solving linear dielectric/ionic screening model
        iter                  A_solv                     rms
   LPB:       -0.733450419007337E+00   0.220037338399138E+00
   LPB:    0  -0.733402472013562E+00   0.169362703717802E+00  -0.170448E-02   0.000000E+00   0.330071E+02  -0.562600E-01
   LPB:    1  -0.733179253601385E+00   0.587537762252825E-01   0.120676E-01   0.000000E+00   0.934402E+02   0.128259E-17
   LPB:    2  -0.733145804705764E+00   0.993116054114013E-02   0.133163E-01   0.135796E+00   0.162845E+03  -0.672483E-16
   LPB:    3  -0.733136819650667E+00   0.832120467553511E-02   0.233011E-01   0.153514E+00   0.436856E+03  -0.987055E-16
   LPB:    4  -0.733133911855005E+00   0.717506250770530E-02   0.223112E-01   0.337985E+00   0.133169E+03  -0.956892E-16
   LPB:    5  -0.733132316508516E+00   0.353803890255795E-02   0.239068E-01   0.512025E+00   0.263867E+03  -0.147253E-15
   LPB:    6  -0.733131399112683E+00   0.130784826629350E-02   0.320418E-01   0.429049E+00   0.235460E+03  -0.176952E-15
   LPB:    7  -0.733130888758044E+00   0.822895483412657E-03   0.333182E-01   0.534997E+00   0.683583E+03  -0.131834E-15
  Finished solving LPB equations
  A_corr:   -0.654074459042895     
 End minimization
 Ecorr=   1399.63926511287     
 A_corr= -0.654074459042895     
 Ecorr_band=  -1400.29333957191     
 End Solvation calculations
RMM:   2    -0.134261949407E+03   -0.12631E-02   -0.14655E-02  5255   0.287E-01    0.137E-01
 Begin Solvation calculations
  rms_SCF =   9.556327393736375E-003 tol =   9.556327393736375E-004
 Begin minimization
 Creating dielectric and ionic cavities
  area:      150.583527227780     
  volume:    675.910643276711     
  Acav:     7.905635179458428E-002
  Solving linear dielectric/ionic screening model
        iter                  A_solv                     rms
   LPB:       -0.733742269690789E+00   0.828897429112427E-01
   LPB:    0  -0.733740185731841E+00   0.776075042589108E-01  -0.355352E-03   0.000000E+00   0.330066E+02  -0.117290E-01
   LPB:    1  -0.733715973544162E+00   0.150199452135692E-01   0.104771E-01   0.000000E+00   0.710230E+02  -0.704385E-18
   LPB:    2  -0.733710836910045E+00   0.234323579672603E-02   0.160737E-01   0.138284E+00   0.150472E+03   0.462186E-18
   LPB:    3  -0.733710036051952E+00   0.139026645102115E-02   0.255319E-01   0.981543E-01   0.311006E+03   0.266774E-16
   LPB:    4  -0.733709709659336E+00   0.133299751151275E-02   0.295019E-01   0.352711E+00   0.208039E+03   0.305304E-16
   LPB:    5  -0.733709481080581E+00   0.196741929580497E-02   0.332344E-01   0.621666E+00   0.301425E+03   0.245760E-16
   LPB:    6  -0.733709311257058E+00   0.152636835760713E-02   0.289270E-01   0.853585E+00   0.815590E+02   0.207088E-16
   LPB:    7  -0.733709174250551E+00   0.880902544813921E-03   0.307304E-01   0.759413E+00   0.321783E+03   0.153711E-16
  Finished solving LPB equations
  A_corr:   -0.654652822455967     
 End minimization
 Ecorr=   1399.48862112421     
 A_corr= -0.654652822455967     
[...]
   LPB:    5  -0.813051080755930E+00   0.387737119170538E-03   0.229881E-01   0.492022E+00   0.249812E+03   0.431886E-17
   LPB:    6  -0.813051072226852E+00   0.180981511584656E-03   0.281200E-01   0.499837E+00   0.278014E+03   0.426397E-17
   LPB:    7  -0.813051067225581E+00   0.114635017409507E-03   0.318031E-01   0.518472E+00   0.734303E+03   0.494071E-17
   LPB:    8  -0.813051063957949E+00   0.624741816908022E-04   0.347348E-01   0.598215E+00   0.512930E+03   0.595807E-17
  Finished solving LPB equations
  A_corr:   -0.733532092847121     
 End minimization
 Ecorr=   1386.31835889638     
 A_corr= -0.733532092847121     
 Ecorr_band=  -1387.05189098923     
 End Solvation calculations
RMM:   2    -0.134283399106E+03   -0.32211E-04   -0.29930E-04  4192   0.464E-02    0.320E-02
 Begin Solvation calculations
  rms_SCF =   8.928193378754825E-004 tol =   8.928193378754825E-005
 Begin minimization
 Creating dielectric and ionic cavities
  area:      151.465363317174     
  volume:    675.179674667948     
  Acav:     7.951931574151634E-002
  Solving linear dielectric/ionic screening model
        iter                  A_solv                     rms
   LPB:       -0.813053655259805E+00   0.208305844024765E-01
   LPB:    0  -0.813053654124628E+00   0.208255735264099E-01   0.828936E-05   0.000000E+00   0.330409E+02   0.273888E-03
   LPB:    1  -0.813052391700435E+00   0.209076105271492E-02   0.891888E-02   0.000000E+00   0.731826E+02   0.220110E-19
   LPB:    2  -0.813052267600869E+00   0.411615583888289E-03   0.167470E-01   0.523527E-01   0.134127E+03   0.738492E-18
   LPB:    3  -0.813052250451921E+00   0.214873956772905E-03   0.229695E-01   0.100752E+00   0.214879E+03   0.109230E-17
   LPB:    4  -0.813052244875281E+00   0.166995568537828E-03   0.287650E-01   0.259670E+00   0.306858E+03   0.185704E-17
   LPB:    5  -0.813052242445722E+00   0.168922417678146E-03   0.269808E-01   0.464477E+00   0.260043E+03   0.246206E-18
   LPB:    6  -0.813052240957136E+00   0.138862250416870E-03   0.272545E-01   0.606544E+00   0.208629E+03  -0.746786E-18
   LPB:    7  -0.813052239862508E+00   0.824082540134135E-04   0.301354E-01   0.665050E+00   0.239128E+03  -0.638259E-18
  Finished solving LPB equations
  A_corr:   -0.733532924120992     
 End minimization
 Ecorr=   1386.32069523182     
 A_corr= -0.733532924120992     
 Ecorr_band=  -1387.05422815594     
 End Solvation calculations
RMM:   3    -0.134283397256E+03    0.18500E-05   -0.28091E-05  2511   0.158E-02
 Begin Solvation calculations
  rms_SCF =   8.928193378754825E-004 tol =   8.928193378754825E-005
 Begin minimization
 Creating dielectric and ionic cavities
  area:      151.464346941118     
  volume:    675.179499209558     
  Acav:     7.951878214408679E-002
  Solving linear dielectric/ionic screening model
        iter                  A_solv                     rms
   LPB:       -0.812994547226578E+00   0.457811270698750E-02
   LPB:    0  -0.812994531434300E+00   0.379567798526853E-02   0.309180E-04   0.000000E+00   0.330409E+02   0.102156E-02
   LPB:    1  -0.812994365741734E+00   0.174426457376484E-02   0.149697E-01   0.000000E+00   0.928535E+02   0.189797E-19
   LPB:    2  -0.812994330992284E+00   0.423484129128306E-03   0.134604E-01   0.233240E+00   0.242221E+03  -0.984703E-17
   LPB:    3  -0.812994321630042E+00   0.245038772430076E-03   0.223572E-01   0.162208E+00   0.368961E+03  -0.107992E-16
   LPB:    4  -0.812994318158928E+00   0.212496906223002E-03   0.244256E-01   0.339359E+00   0.216025E+03  -0.112581E-16
   LPB:    5  -0.812994316313329E+00   0.155779707659118E-03   0.259318E-01   0.500820E+00   0.220098E+03  -0.118362E-16
   LPB:    6  -0.812994315017605E+00   0.755069198860544E-04   0.290992E-01   0.625644E+00   0.253241E+03  -0.136942E-16
  Finished solving LPB equations
  A_corr:   -0.733475532873519     
 End minimization
 Ecorr=   1386.32769443615     
 A_corr= -0.733475532873519     
 Ecorr_band=  -1387.06116996902     
 End Solvation calculations
  78 F= -.13428340E+03 E0= -.13427781E+03  d E =-.561469E-03
quench:  g(F)=  0.000E+00 g(S)=  0.000E+00 dE (1.order)= 0.000E+00
 bond charge predicted
       N       E                     dE             d eps       ncg     rms          rms(c)
 Begin Solvation calculations
  rms_SCF =   8.928193378754825E-004 tol =   8.928193378754825E-005
 Begin minimization
 Creating dielectric and ionic cavities
  area:      151.464449996690     
  volume:    675.176538653587     
  Acav:     7.951883624826239E-002
  Solving linear dielectric/ionic screening model
        iter                  A_solv                     rms
   LPB:       -0.813097267157082E+00   0.940151791330826E-03
   LPB:    0  -0.813097267155351E+00   0.942011144968389E-03  -0.323726E-06   0.000000E+00   0.330410E+02  -0.106963E-04
   LPB:    1  -0.813016974307303E+00   0.330164198473330E-03   0.154699E-01   0.000000E+00   0.740672E+06   0.446645E-21
   LPB:    2  -0.813009743430658E+00   0.185705453991658E-03   0.263982E-01   0.527750E-01   0.172132E+06  -0.672655E-18
   LPB:    3  -0.813007456748585E+00   0.299564510257428E-03   0.329999E-01   0.252974E+00   0.843564E+05  -0.119464E-17
   LPB:    4  -0.813006420126724E+00   0.780839578996669E-03   0.363863E-01   0.411140E+00   0.171190E+05  -0.102162E-17
   LPB:    5  -0.813005896307490E+00   0.223484757240995E-02   0.363845E-01   0.505339E+00   0.179366E+04  -0.147593E-17
   LPB:    6  -0.813005665157406E+00   0.340095697319381E-02   0.251262E-01   0.639002E+00   0.218801E+03  -0.239286E-17
   LPB:    7  -0.813005497182264E+00   0.113303966504773E-02   0.203576E-01   0.896916E+00   0.256470E+03  -0.342070E-17
   LPB:    8  -0.813005364738554E+00   0.318953780728568E-03   0.351968E-01   0.456047E+00   0.182712E+04  -0.466727E-17
   LPB:    9  -0.813005284483164E+00   0.443536969117796E-03   0.381892E-01   0.558477E+00   0.221432E+04  -0.656484E-17
   LPB:   10  -0.813005239616733E+00   0.764434873313153E-03   0.340330E-01   0.627318E+00   0.520134E+03  -0.753275E-17
   LPB:   11  -0.813005211933825E+00   0.663279705370431E-03   0.267589E-01   0.784731E+00   0.205823E+03  -0.765691E-17
   LPB:   12  -0.813005191075227E+00   0.373971393126685E-03   0.293578E-01   0.686782E+00   0.324877E+03  -0.583005E-17
   LPB:   13  -0.813005176190204E+00   0.249756181855369E-03   0.335898E-01   0.623707E+00   0.549721E+03  -0.273450E-17
   LPB:   14  -0.813005166439451E+00   0.151890571046429E-03   0.318474E-01   0.690911E+00   0.973687E+03  -0.842703E-17
   LPB:   15  -0.813005159390394E+00   0.770549455081538E-04   0.356861E-01   0.645161E+00   0.184451E+04  -0.125609E-16
  Finished solving LPB equations
  A_corr:   -0.733486323142132     
 End minimization
 Ecorr=   1386.33571529080     
 A_corr= -0.733486323142132     
 Ecorr_band=  -1387.06920161394     
 End Solvation calculations
DAV:   1    -0.134283950910E+03   -0.55180E-03   -0.57005E-03  4032   0.160E-01    0.178E-02
 Begin Solvation calculations
  rms_SCF =   8.928193378754825E-004 tol =   8.928193378754825E-005
 Begin minimization
 Creating dielectric and ionic cavities
  area:      151.461009274805     
  volume:    675.176719494805     
  Acav:     7.951702986927267E-002
  Solving linear dielectric/ionic screening model
        iter                  A_solv                     rms
   LPB:       -0.812955111369320E+00   0.182541019514817E-01
   LPB:    0  -0.812955100219331E+00   0.181464622035165E-01   0.259792E-04   0.000000E+00   0.330410E+02   0.858379E-03
   LPB:    1  -0.812953492150872E+00   0.392241037936566E-02   0.105264E-01   0.000000E+00   0.879952E+02  -0.474849E-19
   LPB:    2  -0.812953090970580E+00   0.706498541474299E-03   0.174001E-01   0.150926E+00   0.399553E+03  -0.105714E-17
   LPB:    3  -0.812953009632973E+00   0.573899404548140E-03   0.261311E-01   0.135004E+00   0.571409E+03  -0.275640E-17
   LPB:    4  -0.812952982122661E+00   0.476709671107864E-03   0.268269E-01   0.329452E+00   0.245385E+03  -0.331308E-17
   LPB:    5  -0.812952969863298E+00   0.414194878859109E-03   0.263182E-01   0.454241E+00   0.261218E+03  -0.837824E-17
   LPB:    6  -0.812952962849737E+00   0.226550097204964E-03   0.253673E-01   0.593544E+00   0.237086E+03  -0.392670E-17
   LPB:    7  -0.812952958078351E+00   0.124000618155864E-03   0.309617E-01   0.557385E+00   0.670542E+03  -0.371046E-17
   LPB:    8  -0.812952954830754E+00   0.731200153710792E-04   0.349758E-01   0.602525E+00   0.555639E+03  -0.419104E-17
  Finished solving LPB equations
  A_corr:   -0.733435924961481     
 End minimization
 Ecorr=   1386.34025421671     
 A_corr= -0.733435924961481     
 Ecorr_band=  -1387.07369014167     
 End Solvation calculations
RMM:   2    -0.134283983423E+03   -0.32514E-04   -0.32897E-04  4358   0.464E-02    0.223E-02
 Begin Solvation calculations
  rms_SCF =   8.928193378754825E-004 tol =   8.928193378754825E-005
 Begin minimization
 Creating dielectric and ionic cavities
  area:      151.461380082966     
  volume:    675.176000361414     
  Acav:     7.951722454355727E-002
  Solving linear dielectric/ionic screening model
        iter                  A_solv                     rms
   LPB:       -0.812910559626883E+00   0.440153380272043E-02
   LPB:    0  -0.812910555481248E+00   0.409860628188318E-02   0.158410E-04   0.000000E+00   0.330411E+02   0.523405E-03
   LPB:    1  -0.812910450256975E+00   0.130402456108464E-02   0.125399E-01   0.000000E+00   0.739504E+02  -0.230152E-19
   LPB:    2  -0.812910422415350E+00   0.253240649646375E-03   0.152087E-01   0.218162E+00   0.232643E+03   0.687630E-17
   LPB:    3  -0.812910415845490E+00   0.197849234254291E-03   0.245211E-01   0.146357E+00   0.456725E+03   0.840603E-17
   LPB:    4  -0.812910413239928E+00   0.182038741336285E-03   0.253760E-01   0.383232E+00   0.197259E+03   0.879510E-17
   LPB:    5  -0.812910411614041E+00   0.163182469150566E-03   0.291949E-01   0.542381E+00   0.226471E+03   0.104113E-16
   LPB:    6  -0.812910410158268E+00   0.849660873973065E-04   0.319179E-01   0.818985E+00   0.231559E+03   0.109460E-16
  Finished solving LPB equations
  A_corr:   -0.733393185614710     
 End minimization
 Ecorr=   1386.35254445160     
 A_corr= -0.733393185614710     
 Ecorr_band=  -1387.08593763721     
 End Solvation calculations
RMM:   3    -0.134283984201E+03   -0.77813E-06   -0.23950E-05  2438   0.150E-02
 Begin Solvation calculations
  rms_SCF =   8.928193378754825E-004 tol =   8.928193378754825E-005
 Begin minimization
 Creating dielectric and ionic cavities
  area:      151.461765060013     
  volume:    675.175606800230     
  Acav:     7.951742665650682E-002
  Solving linear dielectric/ionic screening model
        iter                  A_solv                     rms
   LPB:       -0.812901782980435E+00   0.151788355753756E-01
   LPB:    0  -0.812901781933623E+00   0.151629685916710E-01   0.796017E-05   0.000000E+00   0.330411E+02   0.263013E-03
   LPB:    1  -0.812901086948385E+00   0.163384225210816E-02   0.911185E-02   0.000000E+00   0.727557E+02  -0.143235E-19
   LPB:    2  -0.812901003001965E+00   0.320932112019205E-03   0.170213E-01   0.646605E-01   0.145766E+03   0.171254E-17
   LPB:    3  -0.812900991540925E+00   0.145898514641305E-03   0.221261E-01   0.105029E+00   0.267437E+03   0.112178E-17
   LPB:    4  -0.812900987922734E+00   0.105482441866886E-03   0.289760E-01   0.241065E+00   0.419537E+03   0.938874E-18
   LPB:    5  -0.812900986174687E+00   0.121258427706246E-03   0.306254E-01   0.457107E+00   0.275237E+03   0.187700E-17
   LPB:    6  -0.812900985054652E+00   0.136640532580786E-03   0.294728E-01   0.665794E+00   0.219943E+03   0.220807E-17
   LPB:    7  -0.812900984219477E+00   0.978633929142206E-04   0.288623E-01   0.761442E+00   0.163601E+03   0.316427E-17
   LPB:    8  -0.812900983459705E+00   0.474311044529402E-04   0.355063E-01   0.739487E+00   0.373284E+03   0.367797E-17
  Finished solving LPB equations
  A_corr:   -0.733383556803198     
 End minimization
 Ecorr=   1386.35918722232     
 A_corr= -0.733383556803198     
 Ecorr_band=  -1387.09257077912     
 End Solvation calculations
  79 F= -.13428398E+03 E0= -.13427840E+03  d E =-.586945E-03
quench:  g(F)=  0.000E+00 g(S)=  0.000E+00 dE (1.order)= 0.000E+00
 bond charge predicted
       N       E                     dE             d eps       ncg     rms          rms(c)
 Begin Solvation calculations
  rms_SCF =   8.928193378754825E-004 tol =   8.928193378754825E-005
 Begin minimization
 Creating dielectric and ionic cavities
  area:      151.459803092106     
  volume:    675.169830050440     
  Acav:     7.951639662335588E-002
  Solving linear dielectric/ionic screening model
        iter                  A_solv                     rms
   LPB:       -0.813023637686799E+00   0.996999868654118E-03
   LPB:    0  -0.813023637680578E+00   0.100618056043587E-02  -0.613642E-06   0.000000E+00   0.330414E+02  -0.202756E-04
   LPB:    1  -0.812942833828406E+00   0.366692913307097E-03   0.157968E-01   0.000000E+00   0.577325E+06   0.560956E-21
   LPB:    2  -0.812934543657986E+00   0.324462300278445E-03   0.269523E-01   0.601319E-01   0.158532E+06  -0.908055E-18
   LPB:    3  -0.812931849928602E+00   0.608887620111452E-03   0.331294E-01   0.264346E+00   0.390598E+05  -0.655288E-18
   LPB:    4  -0.812930644804246E+00   0.148820878344053E-02   0.359203E-01   0.412622E+00   0.579912E+04  -0.467572E-18
   LPB:    5  -0.812930070560289E+00   0.340787050024103E-02   0.335364E-01   0.510374E+00   0.580023E+03  -0.679361E-18
   LPB:    6  -0.812929806716358E+00   0.303099067064182E-02   0.210892E-01   0.730645E+00   0.173927E+03   0.967321E-17
   LPB:    7  -0.812929586038506E+00   0.142479876835363E-02   0.251140E-01   0.702355E+00   0.396672E+03   0.304246E-16
   LPB:    8  -0.812929451539282E+00   0.178332111589540E-02   0.297105E-01   0.515190E+00   0.272665E+03   0.467655E-16
   LPB:    9  -0.812929369112634E+00   0.102348739923751E-02   0.233714E-01   0.779063E+00   0.183025E+03   0.740292E-16
   LPB:   10  -0.812929302924761E+00   0.299615637569614E-03   0.319955E-01   0.586553E+00   0.586289E+03   0.982171E-16
   LPB:   11  -0.812929257782915E+00   0.133074797421656E-03   0.398231E-01   0.547967E+00   0.414168E+04   0.129603E-15
   LPB:   12  -0.812929229719969E+00   0.160942889991289E-03   0.388055E-01   0.637963E+00   0.424959E+04   0.146469E-15
   LPB:   13  -0.812929211593864E+00   0.193552748980520E-03   0.371451E-01   0.674781E+00   0.202293E+04   0.157453E-15
   LPB:   14  -0.812929200114229E+00   0.155249467957458E-03   0.331495E-01   0.709656E+00   0.139605E+04   0.164505E-15
   LPB:   15  -0.812929191803763E+00   0.878488925506569E-04   0.353393E-01   0.679073E+00   0.206248E+04   0.168999E-15
  Finished solving LPB equations
  A_corr:   -0.733412795180407     
 End minimization
 Ecorr=   1386.36505573687     
 A_corr= -0.733412795180407     
 Ecorr_band=  -1387.09846853205     
 End Solvation calculations
DAV:   1    -0.134284559837E+03   -0.57641E-03   -0.64040E-03  4032   0.168E-01    0.190E-02
 Begin Solvation calculations
  rms_SCF =   8.928193378754825E-004 tol =   8.928193378754825E-005
 Begin minimization
 Creating dielectric and ionic cavities
  area:      151.459121858538     
  volume:    675.172397550358     
  Acav:     7.951603897573262E-002
  Solving linear dielectric/ionic screening model
        iter                  A_solv                     rms
   LPB:       -0.812811747919919E+00   0.223127401173493E-01
   LPB:    0  -0.812811672107509E+00   0.216398124478903E-01   0.677418E-04   0.000000E+00   0.330412E+02   0.223827E-02
   LPB:    1  -0.812809553897151E+00   0.406442338905409E-02   0.103072E-01   0.000000E+00   0.842302E+02   0.389760E-19
   LPB:    2  -0.812809118370051E+00   0.875787413134968E-03   0.166316E-01   0.127425E+00   0.350162E+03   0.134322E-17
   LPB:    3  -0.812809020657205E+00   0.679081823175665E-03   0.248907E-01   0.149911E+00   0.545550E+03   0.363672E-17
   LPB:    4  -0.812808989066338E+00   0.631482779942001E-03   0.260131E-01   0.309354E+00   0.198931E+03   0.680748E-17
   LPB:    5  -0.812808974947253E+00   0.405992418954767E-03   0.231010E-01   0.503276E+00   0.236419E+03   0.111133E-16
   LPB:    6  -0.812808965936359E+00   0.182100484263668E-03   0.284437E-01   0.518330E+00   0.289326E+03   0.167622E-16
   LPB:    7  -0.812808960445344E+00   0.114759579310130E-03   0.329445E-01   0.526124E+00   0.838325E+03   0.206028E-16
   LPB:    8  -0.812808956751791E+00   0.676915937726747E-04   0.352534E-01   0.628600E+00   0.603649E+03   0.217661E-16
  Finished solving LPB equations
  A_corr:   -0.733292917776059     
 End minimization
 Ecorr=   1386.37726042977     
 A_corr= -0.733292917776059     
 Ecorr_band=  -1387.11055334755     
 End Solvation calculations
RMM:   2    -0.134284593929E+03   -0.34092E-04   -0.35655E-04  4426   0.489E-02    0.159E-02
 Begin Solvation calculations
  rms_SCF =   8.928193378754825E-004 tol =   8.928193378754825E-005
 Begin minimization
 Creating dielectric and ionic cavities
  area:      151.459068162221     
  volume:    675.172306214173     
  Acav:     7.951601078516615E-002
  Solving linear dielectric/ionic screening model
        iter                  A_solv                     rms
   LPB:       -0.812773959256568E+00   0.231960766010869E-01
   LPB:    0  -0.812773943848167E+00   0.230804917508308E-01   0.305398E-04   0.000000E+00   0.330412E+02   0.100907E-02
   LPB:    1  -0.812772321614138E+00   0.256833941124257E-02   0.916592E-02   0.000000E+00   0.723647E+02  -0.850049E-19
   LPB:    2  -0.812772111211401E+00   0.460220978407819E-03   0.172103E-01   0.690757E-01   0.144658E+03   0.567488E-17
   LPB:    3  -0.812772082581932E+00   0.207504842737141E-03   0.228019E-01   0.102702E+00   0.315131E+03   0.565558E-17
   LPB:    4  -0.812772073837345E+00   0.950740237371427E-04   0.280928E-01   0.247915E+00   0.468141E+03   0.603354E-17
   LPB:    5  -0.812772070086315E+00   0.707795874826078E-04   0.316690E-01   0.380515E+00   0.508626E+03   0.659502E-17
  Finished solving LPB equations
  A_corr:   -0.733256059301148     
 End minimization
 Ecorr=   1386.38232973850     
 A_corr= -0.733256059301148     
 Ecorr_band=  -1387.11558579780     
 End Solvation calculations
RMM:   3    -0.134284594544E+03   -0.61430E-06   -0.22638E-05  2488   0.150E-02
 Begin Solvation calculations
  rms_SCF =   8.928193378754825E-004 tol =   8.928193378754825E-005
 Begin minimization
 Creating dielectric and ionic cavities
  area:      151.458356221134     
  volume:    675.172256832294     
  Acav:     7.951563701609528E-002
  Solving linear dielectric/ionic screening model
        iter                  A_solv                     rms
   LPB:       -0.812732498723110E+00   0.785609209728739E-02
   LPB:    0  -0.812732493476147E+00   0.769886747560885E-02   0.178214E-04   0.000000E+00   0.330412E+02   0.588840E-03
   LPB:    1  -0.812732289839640E+00   0.786135085968554E-03   0.919896E-02   0.000000E+00   0.803159E+02   0.384564E-19
   LPB:    2  -0.812732265741694E+00   0.222491636676882E-03   0.166178E-01   0.655072E-01   0.242685E+03   0.253169E-17
   LPB:    3  -0.812732260150625E+00   0.199644325240038E-03   0.264706E-01   0.145655E+00   0.388791E+03   0.337056E-17
   LPB:    4  -0.812732257685021E+00   0.207782701028831E-03   0.286320E-01   0.407700E+00   0.154172E+03   0.334668E-17
   LPB:    5  -0.812732255891409E+00   0.137760412303315E-03   0.277433E-01   0.750755E+00   0.270166E+03   0.332844E-17
   LPB:    6  -0.812732254247539E+00   0.773927996781852E-04   0.353673E-01   0.718944E+00   0.285453E+03   0.300369E-17
  Finished solving LPB equations
  A_corr:   -0.733216617231444     
 End minimization
 Ecorr=   1386.38779681336     
 A_corr= -0.733216617231444     
 Ecorr_band=  -1387.12101343059     
 End Solvation calculations
  80 F= -.13428459E+03 E0= -.13427900E+03  d E =-.610342E-03
quench:  g(F)=  0.000E+00 g(S)=  0.000E+00 dE (1.order)= 0.000E+00
 reached required accuracy - stopping structural energy minimisation
