 vasp.5.4.4.18Apr17-6-g9f103f2a35 (build Feb 06 2024 13:54:16) complex          
  
 POSCAR found type information on POSCAR  Cu Pd Cu N  O 
 04/POSCAR found :  5 types and      40 ions
 scaLAPACK will be used

 ----------------------------------------------------------------------------- 
|                                                                             |
|  ADVICE TO THIS USER RUNNING 'VASP/VAMP'   (HEAR YOUR MASTER'S VOICE ...):  |
|                                                                             |
|      You enforced a specific xc-type in the INCAR file,                     |
|      a different type was found on the POTCAR file                          |
|          I HOPE YOU KNOW, WHAT YOU ARE  DOING                               |
|                                                                             |
 ----------------------------------------------------------------------------- 

 LDA part: xc-table for Pade appr. of Perdew
 POSCAR found type information on POSCAR  Cu Pd Cu N  O 
 00/POSCAR found :  5 types and      40 ions
 POSCAR found type information on POSCAR  Cu Pd Cu N  O 
 06/POSCAR found :  5 types and      40 ions
 Jacobian:    20.5888137679208     
 POSCAR, INCAR and KPOINTS ok, starting setup
 FFT: planning ...
 WAVECAR not read
 entering main loop
       N       E                     dE             d eps       ncg     rms          rms(c)
DAV:   1     0.417768699961E+04    0.41777E+04   -0.17839E+05  4032   0.202E+03
DAV:   2     0.607768989289E+03   -0.35699E+04   -0.34431E+04  4041   0.460E+02
DAV:   3    -0.306151271969E+02   -0.63838E+03   -0.58617E+03  4743   0.232E+02
DAV:   4    -0.151290191842E+03   -0.12068E+03   -0.10605E+03  6759   0.938E+01
DAV:   5    -0.162825547028E+03   -0.11535E+02   -0.11347E+02  6273   0.309E+01    0.430E+01
RMM:   6    -0.162940643825E+03   -0.11510E+00   -0.35025E+02  4086   0.934E+01    0.443E+01
RMM:   7    -0.165946670454E+03   -0.30060E+01   -0.11366E+02  4163   0.432E+01    0.337E+01
RMM:   8    -0.145170539468E+03    0.20776E+02   -0.13384E+01  4108   0.154E+01    0.236E+01
RMM:   9    -0.140125520987E+03    0.50450E+01   -0.52292E+00  4092   0.106E+01    0.146E+01
RMM:  10    -0.136105385138E+03    0.40201E+01   -0.94233E+00  4098   0.109E+01    0.998E+00
RMM:  11    -0.134666710465E+03    0.14387E+01   -0.31258E+00  4102   0.695E+00    0.532E+00
RMM:  12    -0.134169774616E+03    0.49694E+00   -0.72433E-01  4107   0.303E+00    0.407E+00
RMM:  13    -0.134037322934E+03    0.13245E+00   -0.32646E-01  4110   0.218E+00    0.379E+00
RMM:  14    -0.133947975464E+03    0.89347E-01   -0.14942E-01  4128   0.143E+00    0.252E+00
RMM:  15    -0.133997835001E+03   -0.49860E-01   -0.17397E-01  4111   0.130E+00    0.495E+00
RMM:  16    -0.133845798166E+03    0.15204E+00   -0.28444E-01  4119   0.147E+00    0.204E+00
RMM:  17    -0.133812976837E+03    0.32821E-01   -0.25628E-02  4145   0.535E-01    0.138E+00
RMM:  18    -0.133796145887E+03    0.16831E-01   -0.10043E-02  4133   0.322E-01    0.847E-01
RMM:  19    -0.133785419712E+03    0.10726E-01   -0.14894E-02  4104   0.321E-01    0.320E-01
RMM:  20    -0.133783809971E+03    0.16097E-02   -0.22854E-03  4434   0.135E-01    0.261E-01
RMM:  21    -0.133782668983E+03    0.11410E-02   -0.11736E-03  4089   0.101E-01    0.207E-01
RMM:  22    -0.133781878454E+03    0.79053E-03   -0.12006E-03  4072   0.968E-02    0.128E-01
RMM:  23    -0.133781841488E+03    0.36966E-04   -0.12452E-03  4098   0.982E-02    0.120E-01
RMM:  24    -0.133781967867E+03   -0.12638E-03   -0.20804E-04  4382   0.325E-02    0.662E-02
RMM:  25    -0.133782604243E+03   -0.63638E-03   -0.33932E-04  4068   0.664E-02    0.883E-02
RMM:  26    -0.133782904020E+03   -0.29978E-03   -0.10240E-04  3322   0.236E-02    0.580E-02
RMM:  27    -0.133783249614E+03   -0.34559E-03   -0.98042E-05  3264   0.216E-02    0.339E-02
RMM:  28    -0.133783404706E+03   -0.15509E-03   -0.41688E-05  2538   0.199E-02    0.294E-02
RMM:  29    -0.133783488437E+03   -0.83731E-04   -0.21220E-05  2457   0.154E-02    0.232E-02
RMM:  30    -0.133783552991E+03   -0.64555E-04   -0.11407E-05  2393   0.123E-02    0.233E-02
RMM:  31    -0.133783600141E+03   -0.47150E-04   -0.96068E-06  2378   0.113E-02    0.105E-02
RMM:  32    -0.133783626333E+03   -0.26192E-04   -0.67672E-06  2357   0.725E-03    0.780E-03
RMM:  33    -0.133783632404E+03   -0.60710E-05   -0.26380E-06  2275   0.749E-03
   1 F= -.13378363E+03 E0= -.13377985E+03  d E =-.133784E+03
quench:  g(F)=  0.000E+00 g(S)=  0.000E+00 dE (1.order)= 0.000E+00
 bond charge predicted
       N       E                     dE             d eps       ncg     rms          rms(c)
DAV:   1    -0.133783679465E+03   -0.53132E-04   -0.34576E-04  4185   0.350E-02    0.402E-03
RMM:   2    -0.133783682086E+03   -0.26208E-05   -0.12334E-05  2303   0.104E-02
   2 F= -.13378368E+03 E0= -.13377990E+03  d E =-.496816E-04
quench:  g(F)=  0.000E+00 g(S)=  0.000E+00 dE (1.order)= 0.000E+00
 bond charge predicted
       N       E                     dE             d eps       ncg     rms          rms(c)
DAV:   1    -0.133783756428E+03   -0.76964E-04   -0.12825E-03  4410   0.719E-02    0.802E-03
RMM:   2    -0.133783766770E+03   -0.10342E-04   -0.61344E-05  2843   0.182E-02    0.243E-02
RMM:   3    -0.133783761362E+03    0.54075E-05   -0.63194E-06  2206   0.113E-02
   3 F= -.13378376E+03 E0= -.13378000E+03  d E =-.792768E-04
quench:  g(F)=  0.000E+00 g(S)=  0.000E+00 dE (1.order)= 0.000E+00
 bond charge predicted
       N       E                     dE             d eps       ncg     rms          rms(c)
DAV:   1    -0.133783867051E+03   -0.10028E-03   -0.27508E-03  4365   0.103E-01    0.108E-02
RMM:   2    -0.133783880165E+03   -0.13114E-04   -0.12134E-04  3360   0.244E-02    0.959E-03
RMM:   3    -0.133783880438E+03   -0.27318E-06   -0.10145E-05  2287   0.137E-02
   4 F= -.13378388E+03 E0= -.13378007E+03  d E =-.119076E-03
quench:  g(F)=  0.000E+00 g(S)=  0.000E+00 dE (1.order)= 0.000E+00
 bond charge predicted
       N       E                     dE             d eps       ncg     rms          rms(c)
DAV:   1    -0.133784012074E+03   -0.13191E-03   -0.46772E-03  4131   0.132E-01    0.153E-02
RMM:   2    -0.133784041579E+03   -0.29504E-04   -0.21857E-04  3954   0.371E-02    0.290E-02
RMM:   3    -0.133784032758E+03    0.88203E-05   -0.15700E-05  2293   0.159E-02
   5 F= -.13378403E+03 E0= -.13378020E+03  d E =-.152320E-03
quench:  g(F)=  0.000E+00 g(S)=  0.000E+00 dE (1.order)= 0.000E+00
 bond charge predicted
       N       E                     dE             d eps       ncg     rms          rms(c)
DAV:   1    -0.133784193464E+03   -0.15189E-03   -0.73126E-03  4131   0.159E-01    0.186E-02
RMM:   2    -0.133784246056E+03   -0.52591E-04   -0.32458E-04  4313   0.395E-02    0.438E-02
RMM:   3    -0.133784221752E+03    0.24304E-04   -0.18929E-05  2362   0.144E-02    0.194E-02
RMM:   4    -0.133784218901E+03    0.28508E-05   -0.40532E-06  2262   0.845E-03
   6 F= -.13378422E+03 E0= -.13378044E+03  d E =-.186143E-03
quench:  g(F)=  0.000E+00 g(S)=  0.000E+00 dE (1.order)= 0.000E+00
 bond charge predicted
       N       E                     dE             d eps       ncg     rms          rms(c)
DAV:   1    -0.133784410024E+03   -0.18827E-03   -0.10050E-02  4122   0.190E-01    0.215E-02
RMM:   2    -0.133784491440E+03   -0.81416E-04   -0.46008E-04  4776   0.452E-02    0.619E-02
RMM:   3    -0.133784441538E+03    0.49902E-04   -0.21449E-05  2486   0.146E-02    0.178E-02
RMM:   4    -0.133784442119E+03   -0.58109E-06   -0.64368E-06  2271   0.123E-02
   7 F= -.13378444E+03 E0= -.13378067E+03  d E =-.223218E-03
quench:  g(F)=  0.000E+00 g(S)=  0.000E+00 dE (1.order)= 0.000E+00
 bond charge predicted
       N       E                     dE             d eps       ncg     rms          rms(c)
DAV:   1    -0.133784656094E+03   -0.21456E-03   -0.13886E-02  4131   0.221E-01    0.242E-02
RMM:   2    -0.133784725211E+03   -0.69117E-04   -0.60316E-04  5057   0.508E-02    0.287E-02
RMM:   3    -0.133784721962E+03    0.32497E-05   -0.29943E-05  2498   0.168E-02
   8 F= -.13378472E+03 E0= -.13378083E+03  d E =-.279843E-03
quench:  g(F)=  0.000E+00 g(S)=  0.000E+00 dE (1.order)= 0.000E+00
 bond charge predicted
       N       E                     dE             d eps       ncg     rms          rms(c)
DAV:   1    -0.133784910993E+03   -0.18578E-03   -0.16744E-02  4050   0.250E-01    0.412E-02
RMM:   2    -0.133785346796E+03   -0.43580E-03   -0.98871E-04  4878   0.731E-02    0.187E-01
RMM:   3    -0.133784951269E+03    0.39553E-03   -0.10030E-04  3311   0.301E-02    0.231E-02
RMM:   4    -0.133784968269E+03   -0.17000E-04   -0.17121E-05  2408   0.167E-02    0.179E-02
RMM:   5    -0.133784966580E+03    0.16888E-05   -0.93987E-06  2270   0.145E-02
   9 F= -.13378497E+03 E0= -.13378118E+03  d E =-.244618E-03
quench:  g(F)=  0.000E+00 g(S)=  0.000E+00 dE (1.order)= 0.000E+00
 bond charge predicted
       N       E                     dE             d eps       ncg     rms          rms(c)
DAV:   1    -0.133785165649E+03   -0.19738E-03   -0.15273E-02  4194   0.227E-01    0.299E-02
RMM:   2    -0.133785370423E+03   -0.20477E-03   -0.74453E-04  5214   0.553E-02    0.125E-01
RMM:   3    -0.133785211106E+03    0.15932E-03   -0.50550E-05  2775   0.196E-02    0.177E-02
RMM:   4    -0.133785217367E+03   -0.62611E-05   -0.14295E-05  2367   0.183E-02
  10 F= -.13378522E+03 E0= -.13378142E+03  d E =-.250787E-03
quench:  g(F)=  0.000E+00 g(S)=  0.000E+00 dE (1.order)= 0.000E+00
 bond charge predicted
       N       E                     dE             d eps       ncg     rms          rms(c)
DAV:   1    -0.133785410084E+03   -0.19898E-03   -0.17155E-02  4284   0.259E-01    0.304E-02
RMM:   2    -0.133785510800E+03   -0.10072E-03   -0.89978E-04  5224   0.609E-02    0.502E-02
RMM:   3    -0.133785489730E+03    0.21070E-04   -0.35341E-05  2660   0.150E-02    0.447E-02
RMM:   4    -0.133785473737E+03    0.15993E-04   -0.11762E-05  2328   0.155E-02    0.176E-02
RMM:   5    -0.133785472630E+03    0.11068E-05   -0.62279E-06  2194   0.123E-02
  11 F= -.13378547E+03 E0= -.13378169E+03  d E =-.255263E-03
quench:  g(F)=  0.000E+00 g(S)=  0.000E+00 dE (1.order)= 0.000E+00
 bond charge predicted
       N       E                     dE             d eps       ncg     rms          rms(c)
DAV:   1    -0.133785657138E+03   -0.18340E-03   -0.20059E-02  4221   0.265E-01    0.291E-02
RMM:   2    -0.133785787322E+03   -0.13018E-03   -0.92371E-04  5569   0.630E-02    0.691E-02
RMM:   3    -0.133785730550E+03    0.56772E-04   -0.45174E-05  2694   0.167E-02    0.260E-02
RMM:   4    -0.133785727797E+03    0.27531E-05   -0.12894E-05  2285   0.181E-02
  12 F= -.13378573E+03 E0= -.13378195E+03  d E =-.255167E-03
quench:  g(F)=  0.000E+00 g(S)=  0.000E+00 dE (1.order)= 0.000E+00
 bond charge predicted
       N       E                     dE             d eps       ncg     rms          rms(c)
DAV:   1    -0.133785915390E+03   -0.18484E-03   -0.22080E-02  4248   0.283E-01    0.343E-02
RMM:   2    -0.133786033790E+03   -0.11840E-03   -0.11143E-03  5444   0.671E-02    0.491E-02
RMM:   3    -0.133786009479E+03    0.24310E-04   -0.47632E-05  2778   0.156E-02    0.464E-02
RMM:   4    -0.133785995658E+03    0.13821E-04   -0.13720E-05  2348   0.157E-02    0.229E-02
RMM:   5    -0.133785992425E+03    0.32336E-05   -0.77265E-06  2233   0.134E-02
  13 F= -.13378599E+03 E0= -.13378221E+03  d E =-.264628E-03
quench:  g(F)=  0.000E+00 g(S)=  0.000E+00 dE (1.order)= 0.000E+00
 bond charge predicted
       N       E                     dE             d eps       ncg     rms          rms(c)
DAV:   1    -0.133786195543E+03   -0.19988E-03   -0.23665E-02  4176   0.290E-01    0.314E-02
RMM:   2    -0.133786349654E+03   -0.15411E-03   -0.11248E-03  5713   0.688E-02    0.717E-02
RMM:   3    -0.133786283684E+03    0.65970E-04   -0.48570E-05  2782   0.174E-02    0.279E-02
RMM:   4    -0.133786279371E+03    0.43132E-05   -0.13808E-05  2328   0.176E-02
  14 F= -.13378628E+03 E0= -.13378250E+03  d E =-.286946E-03
quench:  g(F)=  0.000E+00 g(S)=  0.000E+00 dE (1.order)= 0.000E+00
 bond charge predicted
       N       E                     dE             d eps       ncg     rms          rms(c)
DAV:   1    -0.133786533489E+03   -0.24981E-03   -0.21534E-02  4050   0.272E-01    0.370E-02
RMM:   2    -0.133786719210E+03   -0.18572E-03   -0.11538E-03  5403   0.672E-02    0.975E-02
RMM:   3    -0.133786621441E+03    0.97769E-04   -0.59049E-05  2887   0.193E-02    0.434E-02
RMM:   4    -0.133786607205E+03    0.14236E-04   -0.20014E-05  2447   0.189E-02    0.199E-02
RMM:   5    -0.133786606253E+03    0.95268E-06   -0.86743E-06  2244   0.132E-02
  15 F= -.13378661E+03 E0= -.13378283E+03  d E =-.326882E-03
quench:  g(F)=  0.000E+00 g(S)=  0.000E+00 dE (1.order)= 0.000E+00
 bond charge predicted
       N       E                     dE             d eps       ncg     rms          rms(c)
DAV:   1    -0.133786862158E+03   -0.25495E-03   -0.18856E-02  4230   0.264E-01    0.302E-02
RMM:   2    -0.133787067704E+03   -0.20555E-03   -0.98163E-04  5519   0.641E-02    0.108E-01
RMM:   3    -0.133786926649E+03    0.14105E-03   -0.48252E-05  2785   0.189E-02    0.189E-02
RMM:   4    -0.133786931178E+03   -0.45290E-05   -0.12673E-05  2351   0.160E-02
  16 F= -.13378693E+03 E0= -.13378316E+03  d E =-.324926E-03
quench:  g(F)=  0.000E+00 g(S)=  0.000E+00 dE (1.order)= 0.000E+00
 bond charge predicted
       N       E                     dE             d eps       ncg     rms          rms(c)
DAV:   1    -0.133787203427E+03   -0.27678E-03   -0.15986E-02  4194   0.238E-01    0.335E-02
RMM:   2    -0.133787424837E+03   -0.22141E-03   -0.87994E-04  5232   0.607E-02    0.119E-01
RMM:   3    -0.133787256955E+03    0.16788E-03   -0.57138E-05  2868   0.211E-02    0.298E-02
RMM:   4    -0.133787255883E+03    0.10713E-05   -0.16960E-05  2385   0.174E-02
  17 F= -.13378726E+03 E0= -.13378350E+03  d E =-.324705E-03
quench:  g(F)=  0.000E+00 g(S)=  0.000E+00 dE (1.order)= 0.000E+00
 bond charge predicted
       N       E                     dE             d eps       ncg     rms          rms(c)
DAV:   1    -0.133787532033E+03   -0.27508E-03   -0.15731E-02  4158   0.234E-01    0.289E-02
RMM:   2    -0.133787660923E+03   -0.12889E-03   -0.77853E-04  5307   0.584E-02    0.831E-02
RMM:   3    -0.133787588364E+03    0.72559E-04   -0.37360E-05  2653   0.161E-02    0.222E-02
RMM:   4    -0.133787590736E+03   -0.23719E-05   -0.11796E-05  2300   0.170E-02
  18 F= -.13378759E+03 E0= -.13378380E+03  d E =-.334852E-03
quench:  g(F)=  0.000E+00 g(S)=  0.000E+00 dE (1.order)= 0.000E+00
 bond charge predicted
       N       E                     dE             d eps       ncg     rms          rms(c)
DAV:   1    -0.133787857779E+03   -0.26942E-03   -0.16041E-02  4437   0.259E-01    0.334E-02
RMM:   2    -0.133788000682E+03   -0.14290E-03   -0.88462E-04  5206   0.609E-02    0.897E-02
RMM:   3    -0.133787927214E+03    0.73467E-04   -0.51594E-05  2809   0.180E-02    0.377E-02
RMM:   4    -0.133787917526E+03    0.96889E-05   -0.16056E-05  2360   0.184E-02
  19 F= -.13378792E+03 E0= -.13378418E+03  d E =-.326790E-03
quench:  g(F)=  0.000E+00 g(S)=  0.000E+00 dE (1.order)= 0.000E+00
 bond charge predicted
       N       E                     dE             d eps       ncg     rms          rms(c)
DAV:   1    -0.133788166128E+03   -0.23891E-03   -0.16522E-02  4320   0.255E-01    0.321E-02
RMM:   2    -0.133788326956E+03   -0.16083E-03   -0.87333E-04  5278   0.615E-02    0.101E-01
RMM:   3    -0.133788226842E+03    0.10011E-03   -0.46659E-05  2754   0.180E-02    0.240E-02
RMM:   4    -0.133788231137E+03   -0.42945E-05   -0.13392E-05  2338   0.179E-02
  20 F= -.13378823E+03 E0= -.13378444E+03  d E =-.313611E-03
quench:  g(F)=  0.000E+00 g(S)=  0.000E+00 dE (1.order)= 0.000E+00
 bond charge predicted
       N       E                     dE             d eps       ncg     rms          rms(c)
DAV:   1    -0.133788457685E+03   -0.23084E-03   -0.16308E-02  4509   0.266E-01    0.370E-02
RMM:   2    -0.133788676567E+03   -0.21888E-03   -0.95277E-04  5220   0.622E-02    0.126E-01
RMM:   3    -0.133788520256E+03    0.15631E-03   -0.65662E-05  2934   0.209E-02    0.333E-02
RMM:   4    -0.133788517369E+03    0.28874E-05   -0.17296E-05  2397   0.193E-02
  21 F= -.13378852E+03 E0= -.13378478E+03  d E =-.286232E-03
quench:  g(F)=  0.000E+00 g(S)=  0.000E+00 dE (1.order)= 0.000E+00
 bond charge predicted
       N       E                     dE             d eps       ncg     rms          rms(c)
DAV:   1    -0.133788717902E+03   -0.19765E-03   -0.15919E-02  4365   0.251E-01    0.322E-02
RMM:   2    -0.133788881571E+03   -0.16367E-03   -0.84640E-04  5221   0.600E-02    0.104E-01
RMM:   3    -0.133788776214E+03    0.10536E-03   -0.47963E-05  2752   0.182E-02    0.238E-02
RMM:   4    -0.133788781348E+03   -0.51334E-05   -0.14332E-05  2340   0.186E-02
  22 F= -.13378878E+03 E0= -.13378499E+03  d E =-.263979E-03
quench:  g(F)=  0.000E+00 g(S)=  0.000E+00 dE (1.order)= 0.000E+00
 bond charge predicted
       N       E                     dE             d eps       ncg     rms          rms(c)
DAV:   1    -0.133788964080E+03   -0.18787E-03   -0.15427E-02  4518   0.258E-01    0.361E-02
RMM:   2    -0.133789178212E+03   -0.21413E-03   -0.90246E-04  5197   0.603E-02    0.125E-01
RMM:   3    -0.133789021767E+03    0.15645E-03   -0.62532E-05  2908   0.207E-02    0.314E-02
RMM:   4    -0.133789020320E+03    0.14473E-05   -0.16080E-05  2387   0.185E-02
  23 F= -.13378902E+03 E0= -.13378528E+03  d E =-.238972E-03
quench:  g(F)=  0.000E+00 g(S)=  0.000E+00 dE (1.order)= 0.000E+00
 bond charge predicted
       N       E                     dE             d eps       ncg     rms          rms(c)
DAV:   1    -0.133789203210E+03   -0.18144E-03   -0.15089E-02  4383   0.245E-01    0.313E-02
RMM:   2    -0.133789353833E+03   -0.15062E-03   -0.80151E-04  5207   0.581E-02    0.990E-02
RMM:   3    -0.133789259501E+03    0.94332E-04   -0.44635E-05  2724   0.177E-02    0.238E-02
RMM:   4    -0.133789263849E+03   -0.43484E-05   -0.14163E-05  2339   0.184E-02
  24 F= -.13378926E+03 E0= -.13378547E+03  d E =-.243529E-03
quench:  g(F)=  0.000E+00 g(S)=  0.000E+00 dE (1.order)= 0.000E+00
 bond charge predicted
       N       E                     dE             d eps       ncg     rms          rms(c)
DAV:   1    -0.133789450014E+03   -0.19051E-03   -0.15063E-02  4509   0.254E-01    0.351E-02
RMM:   2    -0.133789651351E+03   -0.20134E-03   -0.87014E-04  5181   0.594E-02    0.120E-01
RMM:   3    -0.133789506325E+03    0.14503E-03   -0.58557E-05  2879   0.201E-02    0.307E-02
RMM:   4    -0.133789504802E+03    0.15229E-05   -0.14905E-05  2378   0.179E-02
  25 F= -.13378950E+03 E0= -.13378576E+03  d E =-.240953E-03
quench:  g(F)=  0.000E+00 g(S)=  0.000E+00 dE (1.order)= 0.000E+00
 bond charge predicted
       N       E                     dE             d eps       ncg     rms          rms(c)
DAV:   1    -0.133789690913E+03   -0.18459E-03   -0.14928E-02  4356   0.243E-01    0.310E-02
RMM:   2    -0.133789835419E+03   -0.14451E-03   -0.79274E-04  5214   0.579E-02    0.958E-02
RMM:   3    -0.133789747404E+03    0.88015E-04   -0.43494E-05  2715   0.175E-02    0.241E-02
RMM:   4    -0.133789751210E+03   -0.38056E-05   -0.14150E-05  2339   0.184E-02
  26 F= -.13378975E+03 E0= -.13378596E+03  d E =-.246408E-03
quench:  g(F)=  0.000E+00 g(S)=  0.000E+00 dE (1.order)= 0.000E+00
 bond charge predicted
       N       E                     dE             d eps       ncg     rms          rms(c)
DAV:   1    -0.133789932759E+03   -0.18535E-03   -0.14794E-02  4518   0.252E-01    0.352E-02
RMM:   2    -0.133790138549E+03   -0.20579E-03   -0.86207E-04  5178   0.591E-02    0.122E-01
RMM:   3    -0.133789987762E+03    0.15079E-03   -0.59516E-05  2888   0.203E-02    0.305E-02
RMM:   4    -0.133789986513E+03    0.12490E-05   -0.15010E-05  2381   0.179E-02
  27 F= -.13378999E+03 E0= -.13378625E+03  d E =-.235303E-03
quench:  g(F)=  0.000E+00 g(S)=  0.000E+00 dE (1.order)= 0.000E+00
 bond charge predicted
       N       E                     dE             d eps       ncg     rms          rms(c)
DAV:   1    -0.133790165147E+03   -0.17739E-03   -0.14931E-02  4347   0.243E-01    0.308E-02
RMM:   2    -0.133790303203E+03   -0.13806E-03   -0.78665E-04  5222   0.578E-02    0.918E-02
RMM:   3    -0.133790222276E+03    0.80927E-04   -0.42608E-05  2704   0.172E-02    0.245E-02
RMM:   4    -0.133790225270E+03   -0.29942E-05   -0.13443E-05  2332   0.180E-02
  28 F= -.13379023E+03 E0= -.13378643E+03  d E =-.238757E-03
quench:  g(F)=  0.000E+00 g(S)=  0.000E+00 dE (1.order)= 0.000E+00
 bond charge predicted
       N       E                     dE             d eps       ncg     rms          rms(c)
DAV:   1    -0.133790393903E+03   -0.17163E-03   -0.15328E-02  4491   0.256E-01    0.352E-02
RMM:   2    -0.133790591337E+03   -0.19743E-03   -0.88167E-04  5193   0.598E-02    0.117E-01
RMM:   3    -0.133790452264E+03    0.13907E-03   -0.58482E-05  2876   0.200E-02    0.315E-02
RMM:   4    -0.133790449766E+03    0.24972E-05   -0.14999E-05  2378   0.179E-02
  29 F= -.13379045E+03 E0= -.13378671E+03  d E =-.224497E-03
quench:  g(F)=  0.000E+00 g(S)=  0.000E+00 dE (1.order)= 0.000E+00
 bond charge predicted
       N       E                     dE             d eps       ncg     rms          rms(c)
DAV:   1    -0.133790615102E+03   -0.16284E-03   -0.15876E-02  4320   0.249E-01    0.312E-02
RMM:   2    -0.133790752669E+03   -0.13757E-03   -0.82805E-04  5281   0.593E-02    0.888E-02
RMM:   3    -0.133790676515E+03    0.76154E-04   -0.42780E-05  2712   0.171E-02    0.254E-02
RMM:   4    -0.133790678960E+03   -0.24448E-05   -0.13537E-05  2333   0.180E-02
  30 F= -.13379068E+03 E0= -.13378689E+03  d E =-.229193E-03
quench:  g(F)=  0.000E+00 g(S)=  0.000E+00 dE (1.order)= 0.000E+00
 bond charge predicted
       N       E                     dE             d eps       ncg     rms          rms(c)
DAV:   1    -0.133790834985E+03   -0.15847E-03   -0.16461E-02  4473   0.265E-01    0.363E-02
RMM:   2    -0.133791042827E+03   -0.20784E-03   -0.93750E-04  5251   0.618E-02    0.120E-01
RMM:   3    -0.133790897709E+03    0.14512E-03   -0.63563E-05  2913   0.207E-02    0.327E-02
RMM:   4    -0.133790894802E+03    0.29073E-05   -0.15995E-05  2383   0.184E-02
  31 F= -.13379089E+03 E0= -.13378716E+03  d E =-.215842E-03
quench:  g(F)=  0.000E+00 g(S)=  0.000E+00 dE (1.order)= 0.000E+00
 bond charge predicted
       N       E                     dE             d eps       ncg     rms          rms(c)
DAV:   1    -0.133791041689E+03   -0.14398E-03   -0.17249E-02  4329   0.260E-01    0.324E-02
RMM:   2    -0.133791186298E+03   -0.14461E-03   -0.89155E-04  5340   0.615E-02    0.895E-02
RMM:   3    -0.133791108619E+03    0.77680E-04   -0.46235E-05  2744   0.174E-02    0.270E-02
RMM:   4    -0.133791110457E+03   -0.18376E-05   -0.13854E-05  2340   0.182E-02
  32 F= -.13379111E+03 E0= -.13378732E+03  d E =-.215655E-03
quench:  g(F)=  0.000E+00 g(S)=  0.000E+00 dE (1.order)= 0.000E+00
 bond charge predicted
       N       E                     dE             d eps       ncg     rms          rms(c)
DAV:   1    -0.133791251964E+03   -0.14334E-03   -0.17854E-02  4482   0.275E-01    0.378E-02
RMM:   2    -0.133791472440E+03   -0.22048E-03   -0.10227E-03  5305   0.641E-02    0.123E-01
RMM:   3    -0.133791320881E+03    0.15156E-03   -0.67001E-05  2953   0.210E-02    0.344E-02
RMM:   4    -0.133791317053E+03    0.38272E-05   -0.16861E-05  2397   0.188E-02
  33 F= -.13379132E+03 E0= -.13378758E+03  d E =-.206597E-03
quench:  g(F)=  0.000E+00 g(S)=  0.000E+00 dE (1.order)= 0.000E+00
 bond charge predicted
       N       E                     dE             d eps       ncg     rms          rms(c)
DAV:   1    -0.133791472228E+03   -0.15135E-03   -0.17632E-02  4356   0.264E-01    0.342E-02
RMM:   2    -0.133791649871E+03   -0.17764E-03   -0.94055E-04  5344   0.629E-02    0.108E-01
RMM:   3    -0.133791537495E+03    0.11238E-03   -0.53393E-05  2795   0.188E-02    0.258E-02
RMM:   4    -0.133791543138E+03   -0.56428E-05   -0.16355E-05  2361   0.197E-02
  34 F= -.13379154E+03 E0= -.13378775E+03  d E =-.226084E-03
quench:  g(F)=  0.000E+00 g(S)=  0.000E+00 dE (1.order)= 0.000E+00
 bond charge predicted
       N       E                     dE             d eps       ncg     rms          rms(c)
DAV:   1    -0.133791705804E+03   -0.16831E-03   -0.16939E-02  4518   0.271E-01    0.387E-02
RMM:   2    -0.133791958644E+03   -0.25284E-03   -0.10021E-03  5262   0.633E-02    0.137E-01
RMM:   3    -0.133791767450E+03    0.19119E-03   -0.73079E-05  2998   0.222E-02    0.324E-02
RMM:   4    -0.133791767232E+03    0.21782E-06   -0.17340E-05  2404   0.189E-02
  35 F= -.13379177E+03 E0= -.13378803E+03  d E =-.224095E-03
quench:  g(F)=  0.000E+00 g(S)=  0.000E+00 dE (1.order)= 0.000E+00
 bond charge predicted
       N       E                     dE             d eps       ncg     rms          rms(c)
DAV:   1    -0.133791942358E+03   -0.17491E-03   -0.16296E-02  4374   0.255E-01    0.328E-02
RMM:   2    -0.133792102957E+03   -0.16060E-03   -0.87553E-04  5306   0.607E-02    0.101E-01
RMM:   3    -0.133792004258E+03    0.98699E-04   -0.49038E-05  2766   0.182E-02    0.253E-02
RMM:   4    -0.133792009092E+03   -0.48338E-05   -0.15395E-05  2349   0.191E-02
  36 F= -.13379201E+03 E0= -.13378822E+03  d E =-.241860E-03
quench:  g(F)=  0.000E+00 g(S)=  0.000E+00 dE (1.order)= 0.000E+00
 bond charge predicted
       N       E                     dE             d eps       ncg     rms          rms(c)
DAV:   1    -0.133792187659E+03   -0.18340E-03   -0.15970E-02  4509   0.263E-01    0.371E-02
RMM:   2    -0.133792416334E+03   -0.22867E-03   -0.93700E-04  5234   0.616E-02    0.129E-01
RMM:   3    -0.133792246828E+03    0.16951E-03   -0.66356E-05  2938   0.213E-02    0.317E-02
RMM:   4    -0.133792246024E+03    0.80482E-06   -0.16225E-05  2391   0.185E-02
  37 F= -.13379225E+03 E0= -.13378851E+03  d E =-.236932E-03
quench:  g(F)=  0.000E+00 g(S)=  0.000E+00 dE (1.order)= 0.000E+00
 bond charge predicted
       N       E                     dE             d eps       ncg     rms          rms(c)
DAV:   1    -0.133792409343E+03   -0.16251E-03   -0.16003E-02  4320   0.252E-01    0.317E-02
RMM:   2    -0.133792552377E+03   -0.14303E-03   -0.84503E-04  5300   0.600E-02    0.915E-02
RMM:   3    -0.133792470888E+03    0.81489E-04   -0.44041E-05  2728   0.174E-02    0.253E-02
RMM:   4    -0.133792474285E+03   -0.33975E-05   -0.13987E-05  2333   0.183E-02
  38 F= -.13379247E+03 E0= -.13378868E+03  d E =-.228262E-03
quench:  g(F)=  0.000E+00 g(S)=  0.000E+00 dE (1.order)= 0.000E+00
 bond charge predicted
       N       E                     dE             d eps       ncg     rms          rms(c)
DAV:   1    -0.133792644617E+03   -0.17373E-03   -0.15975E-02  4527   0.262E-01    0.367E-02
RMM:   2    -0.133792860174E+03   -0.21556E-03   -0.93468E-04  5216   0.612E-02    0.124E-01
RMM:   3    -0.133792705445E+03    0.15473E-03   -0.64045E-05  2925   0.208E-02    0.326E-02
RMM:   4    -0.133792702966E+03    0.24792E-05   -0.16242E-05  2390   0.185E-02
  39 F= -.13379270E+03 E0= -.13378897E+03  d E =-.228680E-03
quench:  g(F)=  0.000E+00 g(S)=  0.000E+00 dE (1.order)= 0.000E+00
 bond charge predicted
       N       E                     dE             d eps       ncg     rms          rms(c)
DAV:   1    -0.133792854427E+03   -0.14898E-03   -0.15648E-02  4356   0.249E-01    0.319E-02
RMM:   2    -0.133793006895E+03   -0.15247E-03   -0.83452E-04  5266   0.593E-02    0.982E-02
RMM:   3    -0.133792913494E+03    0.93401E-04   -0.46143E-05  2740   0.178E-02    0.244E-02
RMM:   4    -0.133792918025E+03   -0.45310E-05   -0.14519E-05  2344   0.186E-02
  40 F= -.13379292E+03 E0= -.13378913E+03  d E =-.215060E-03
quench:  g(F)=  0.000E+00 g(S)=  0.000E+00 dE (1.order)= 0.000E+00
 bond charge predicted
       N       E                     dE             d eps       ncg     rms          rms(c)
DAV:   1    -0.133793055159E+03   -0.14166E-03   -0.15395E-02  4509   0.257E-01    0.361E-02
RMM:   2    -0.133793269001E+03   -0.21384E-03   -0.90017E-04  5191   0.601E-02    0.124E-01
RMM:   3    -0.133793112611E+03    0.15639E-03   -0.62422E-05  2909   0.207E-02    0.314E-02
RMM:   4    -0.133793111267E+03    0.13442E-05   -0.15614E-05  2384   0.182E-02
  41 F= -.13379311E+03 E0= -.13378938E+03  d E =-.193242E-03
quench:  g(F)=  0.000E+00 g(S)=  0.000E+00 dE (1.order)= 0.000E+00
 bond charge predicted
       N       E                     dE             d eps       ncg     rms          rms(c)
DAV:   1    -0.133793235858E+03   -0.12325E-03   -0.15545E-02  4320   0.247E-01    0.310E-02
RMM:   2    -0.133793370592E+03   -0.13473E-03   -0.81378E-04  5281   0.586E-02    0.875E-02
RMM:   3    -0.133793296527E+03    0.74065E-04   -0.43019E-05  2702   0.171E-02    0.252E-02
RMM:   4    -0.133793299113E+03   -0.25861E-05   -0.13375E-05  2332   0.179E-02
  42 F= -.13379330E+03 E0= -.13378951E+03  d E =-.187846E-03
quench:  g(F)=  0.000E+00 g(S)=  0.000E+00 dE (1.order)= 0.000E+00
 bond charge predicted
       N       E                     dE             d eps       ncg     rms          rms(c)
DAV:   1    -0.133793418752E+03   -0.12223E-03   -0.15821E-02  4491   0.259E-01    0.359E-02
RMM:   2    -0.133793624584E+03   -0.20583E-03   -0.91267E-04  5195   0.605E-02    0.120E-01
RMM:   3    -0.133793478637E+03    0.14595E-03   -0.61042E-05  2898   0.204E-02    0.321E-02
RMM:   4    -0.133793476252E+03    0.23858E-05   -0.15455E-05  2383   0.181E-02
  43 F= -.13379348E+03 E0= -.13378974E+03  d E =-.177139E-03
quench:  g(F)=  0.000E+00 g(S)=  0.000E+00 dE (1.order)= 0.000E+00
 bond charge predicted
       N       E                     dE             d eps       ncg     rms          rms(c)
DAV:   1    -0.133793593411E+03   -0.11477E-03   -0.16349E-02  4329   0.252E-01    0.311E-02
RMM:   2    -0.133793726793E+03   -0.13338E-03   -0.84115E-04  5298   0.596E-02    0.845E-02
RMM:   3    -0.133793657437E+03    0.69356E-04   -0.43233E-05  2705   0.170E-02    0.260E-02
RMM:   4    -0.133793659211E+03   -0.17744E-05   -0.13077E-05  2329   0.176E-02
  44 F= -.13379366E+03 E0= -.13378987E+03  d E =-.182959E-03
quench:  g(F)=  0.000E+00 g(S)=  0.000E+00 dE (1.order)= 0.000E+00
 bond charge predicted
       N       E                     dE             d eps       ncg     rms          rms(c)
DAV:   1    -0.133793783087E+03   -0.12565E-03   -0.16581E-02  4482   0.265E-01    0.364E-02
RMM:   2    -0.133793993553E+03   -0.21047E-03   -0.95373E-04  5235   0.618E-02    0.121E-01
RMM:   3    -0.133793846231E+03    0.14732E-03   -0.62889E-05  2919   0.206E-02    0.325E-02
RMM:   4    -0.133793843643E+03    0.25873E-05   -0.15924E-05  2385   0.184E-02
  45 F= -.13379384E+03 E0= -.13379011E+03  d E =-.184432E-03
quench:  g(F)=  0.000E+00 g(S)=  0.000E+00 dE (1.order)= 0.000E+00
 bond charge predicted
       N       E                     dE             d eps       ncg     rms          rms(c)
DAV:   1    -0.133793964856E+03   -0.11863E-03   -0.16387E-02  4347   0.253E-01    0.321E-02
RMM:   2    -0.133794117674E+03   -0.15282E-03   -0.86603E-04  5283   0.603E-02    0.963E-02
RMM:   3    -0.133794027184E+03    0.90489E-04   -0.46931E-05  2748   0.178E-02    0.249E-02
RMM:   4    -0.133794031242E+03   -0.40573E-05   -0.14285E-05  2344   0.184E-02
  46 F= -.13379403E+03 E0= -.13379024E+03  d E =-.187599E-03
quench:  g(F)=  0.000E+00 g(S)=  0.000E+00 dE (1.order)= 0.000E+00
 bond charge predicted
       N       E                     dE             d eps       ncg     rms          rms(c)
DAV:   1    -0.133794167050E+03   -0.13987E-03   -0.15868E-02  4500   0.261E-01    0.371E-02
RMM:   2    -0.133794396197E+03   -0.22915E-03   -0.93636E-04  5222   0.613E-02    0.129E-01
RMM:   3    -0.133794225909E+03    0.17029E-03   -0.66937E-05  2950   0.214E-02    0.315E-02
RMM:   4    -0.133794225069E+03    0.84025E-06   -0.16325E-05  2391   0.186E-02
  47 F= -.13379423E+03 E0= -.13379049E+03  d E =-.193827E-03
quench:  g(F)=  0.000E+00 g(S)=  0.000E+00 dE (1.order)= 0.000E+00
 bond charge predicted
       N       E                     dE             d eps       ncg     rms          rms(c)
DAV:   1    -0.133794353251E+03   -0.12734E-03   -0.15328E-02  4365   0.246E-01    0.318E-02
RMM:   2    -0.133794506133E+03   -0.15288E-03   -0.81853E-04  5249   0.586E-02    0.989E-02
RMM:   3    -0.133794411091E+03    0.95041E-04   -0.46765E-05  2735   0.179E-02    0.241E-02
RMM:   4    -0.133794415659E+03   -0.45680E-05   -0.14465E-05  2343   0.186E-02
  48 F= -.13379442E+03 E0= -.13379063E+03  d E =-.190590E-03
quench:  g(F)=  0.000E+00 g(S)=  0.000E+00 dE (1.order)= 0.000E+00
 bond charge predicted
       N       E                     dE             d eps       ncg     rms          rms(c)
DAV:   1    -0.133794532571E+03   -0.12148E-03   -0.15101E-02  4500   0.254E-01    0.359E-02
RMM:   2    -0.133794742954E+03   -0.21038E-03   -0.88322E-04  5179   0.595E-02    0.123E-01
RMM:   3    -0.133794588916E+03    0.15404E-03   -0.61767E-05  2906   0.207E-02    0.311E-02
RMM:   4    -0.133794587566E+03    0.13496E-05   -0.15312E-05  2384   0.180E-02
  49 F= -.13379459E+03 E0= -.13379086E+03  d E =-.171907E-03
quench:  g(F)=  0.000E+00 g(S)=  0.000E+00 dE (1.order)= 0.000E+00
 bond charge predicted
       N       E                     dE             d eps       ncg     rms          rms(c)
DAV:   1    -0.133794697057E+03   -0.10814E-03   -0.15398E-02  4338   0.245E-01    0.304E-02
RMM:   2    -0.133794824190E+03   -0.12713E-03   -0.79556E-04  5249   0.579E-02    0.829E-02
RMM:   3    -0.133794757365E+03    0.66825E-04   -0.41318E-05  2689   0.167E-02    0.252E-02
RMM:   4    -0.133794759198E+03   -0.18330E-05   -0.12665E-05  2328   0.174E-02
  50 F= -.13379476E+03 E0= -.13379098E+03  d E =-.171631E-03
quench:  g(F)=  0.000E+00 g(S)=  0.000E+00 dE (1.order)= 0.000E+00
 bond charge predicted
       N       E                     dE             d eps       ncg     rms          rms(c)
DAV:   1    -0.133794862853E+03   -0.10549E-03   -0.15907E-02  4491   0.259E-01    0.360E-02
RMM:   2    -0.133795065542E+03   -0.20269E-03   -0.91572E-04  5219   0.605E-02    0.118E-01
RMM:   3    -0.133794923573E+03    0.14197E-03   -0.60961E-05  2902   0.204E-02    0.325E-02
RMM:   4    -0.133794920661E+03    0.29117E-05   -0.15565E-05  2384   0.182E-02
  51 F= -.13379492E+03 E0= -.13379119E+03  d E =-.161464E-03
quench:  g(F)=  0.000E+00 g(S)=  0.000E+00 dE (1.order)= 0.000E+00
 bond charge predicted
       N       E                     dE             d eps       ncg     rms          rms(c)
DAV:   1    -0.133795016590E+03   -0.93017E-04   -0.16209E-02  4347   0.251E-01    0.317E-02
RMM:   2    -0.133795160318E+03   -0.14373E-03   -0.84419E-04  5296   0.595E-02    0.915E-02
RMM:   3    -0.133795078702E+03    0.81616E-04   -0.45418E-05  2722   0.175E-02    0.252E-02
RMM:   4    -0.133795081744E+03   -0.30417E-05   -0.13833E-05  2334   0.182E-02
  52 F= -.13379508E+03 E0= -.13379130E+03  d E =-.161083E-03
quench:  g(F)=  0.000E+00 g(S)=  0.000E+00 dE (1.order)= 0.000E+00
 bond charge predicted
       N       E                     dE             d eps       ncg     rms          rms(c)
DAV:   1    -0.133795177878E+03   -0.99176E-04   -0.16300E-02  4482   0.263E-01    0.368E-02
RMM:   2    -0.133795395762E+03   -0.21788E-03   -0.94614E-04  5222   0.613E-02    0.124E-01
RMM:   3    -0.133795239138E+03    0.15662E-03   -0.64458E-05  2927   0.209E-02    0.326E-02
RMM:   4    -0.133795236865E+03    0.22725E-05   -0.16064E-05  2388   0.184E-02
  53 F= -.13379524E+03 E0= -.13379151E+03  d E =-.155121E-03
quench:  g(F)=  0.000E+00 g(S)=  0.000E+00 dE (1.order)= 0.000E+00
 bond charge predicted
       N       E                     dE             d eps       ncg     rms          rms(c)
DAV:   1    -0.133795325689E+03   -0.86552E-04   -0.16314E-02  4356   0.252E-01    0.315E-02
RMM:   2    -0.133795465075E+03   -0.13939E-03   -0.84929E-04  5285   0.595E-02    0.882E-02
RMM:   3    -0.133795389028E+03    0.76048E-04   -0.44451E-05  2714   0.173E-02    0.254E-02
RMM:   4    -0.133795391679E+03   -0.26515E-05   -0.13522E-05  2334   0.179E-02
  54 F= -.13379539E+03 E0= -.13379161E+03  d E =-.154814E-03
quench:  g(F)=  0.000E+00 g(S)=  0.000E+00 dE (1.order)= 0.000E+00
 bond charge predicted
       N       E                     dE             d eps       ncg     rms          rms(c)
DAV:   1    -0.133795496126E+03   -0.10710E-03   -0.16173E-02  4509   0.263E-01    0.365E-02
RMM:   2    -0.133795709632E+03   -0.21351E-03   -0.93931E-04  5214   0.612E-02    0.122E-01
RMM:   3    -0.133795557166E+03    0.15247E-03   -0.63180E-05  2913   0.207E-02    0.322E-02
RMM:   4    -0.133795555079E+03    0.20871E-05   -0.15916E-05  2386   0.184E-02
  55 F= -.13379556E+03 E0= -.13379183E+03  d E =-.163400E-03
quench:  g(F)=  0.000E+00 g(S)=  0.000E+00 dE (1.order)= 0.000E+00
 bond charge predicted
       N       E                     dE             d eps       ncg     rms          rms(c)
DAV:   1    -0.133795657424E+03   -0.10026E-03   -0.16015E-02  4347   0.251E-01    0.319E-02
RMM:   2    -0.133795806837E+03   -0.14941E-03   -0.84884E-04  5291   0.597E-02    0.949E-02
RMM:   3    -0.133795719040E+03    0.87797E-04   -0.46041E-05  2737   0.177E-02    0.249E-02
RMM:   4    -0.133795722606E+03   -0.35655E-05   -0.14138E-05  2342   0.184E-02
  56 F= -.13379572E+03 E0= -.13379194E+03  d E =-.167527E-03
quench:  g(F)=  0.000E+00 g(S)=  0.000E+00 dE (1.order)= 0.000E+00
 bond charge predicted
       N       E                     dE             d eps       ncg     rms          rms(c)
DAV:   1    -0.133795841057E+03   -0.12202E-03   -0.15790E-02  4500   0.260E-01    0.364E-02
RMM:   2    -0.133796053600E+03   -0.21254E-03   -0.92470E-04  5215   0.608E-02    0.122E-01
RMM:   3    -0.133795900780E+03    0.15282E-03   -0.62904E-05  2922   0.207E-02    0.319E-02
RMM:   4    -0.133795898915E+03    0.18643E-05   -0.15677E-05  2384   0.183E-02
  57 F= -.13379590E+03 E0= -.13379217E+03  d E =-.176310E-03
quench:  g(F)=  0.000E+00 g(S)=  0.000E+00 dE (1.order)= 0.000E+00
 bond charge predicted
       N       E                     dE             d eps       ncg     rms          rms(c)
DAV:   1    -0.133796014749E+03   -0.11397E-03   -0.15994E-02  4338   0.251E-01    0.317E-02
RMM:   2    -0.133796155085E+03   -0.14034E-03   -0.83973E-04  5298   0.595E-02    0.894E-02
RMM:   3    -0.133796077553E+03    0.77532E-04   -0.44840E-05  2721   0.174E-02    0.257E-02
RMM:   4    -0.133796079808E+03   -0.22553E-05   -0.13675E-05  2333   0.181E-02
  58 F= -.13379608E+03 E0= -.13379230E+03  d E =-.180893E-03
quench:  g(F)=  0.000E+00 g(S)=  0.000E+00 dE (1.order)= 0.000E+00
 bond charge predicted
       N       E                     dE             d eps       ncg     rms          rms(c)
DAV:   1    -0.133796198945E+03   -0.12139E-03   -0.16485E-02  4464   0.265E-01    0.363E-02
RMM:   2    -0.133796403472E+03   -0.20453E-03   -0.95177E-04  5249   0.619E-02    0.117E-01
RMM:   3    -0.133796262518E+03    0.14095E-03   -0.61468E-05  2912   0.204E-02    0.330E-02
RMM:   4    -0.133796259462E+03    0.30564E-05   -0.15565E-05  2383   0.182E-02
  59 F= -.13379626E+03 E0= -.13379253E+03  d E =-.179654E-03
quench:  g(F)=  0.000E+00 g(S)=  0.000E+00 dE (1.order)= 0.000E+00
 bond charge predicted
       N       E                     dE             d eps       ncg     rms          rms(c)
DAV:   1    -0.133796372016E+03   -0.10950E-03   -0.16989E-02  4329   0.258E-01    0.322E-02
RMM:   2    -0.133796513843E+03   -0.14183E-03   -0.88445E-04  5354   0.611E-02    0.877E-02
RMM:   3    -0.133796439189E+03    0.74654E-04   -0.46177E-05  2738   0.174E-02    0.266E-02
RMM:   4    -0.133796440967E+03   -0.17775E-05   -0.13808E-05  2337   0.181E-02
  60 F= -.13379644E+03 E0= -.13379266E+03  d E =-.181505E-03
quench:  g(F)=  0.000E+00 g(S)=  0.000E+00 dE (1.order)= 0.000E+00
 bond charge predicted
       N       E                     dE             d eps       ncg     rms          rms(c)
DAV:   1    -0.133796552504E+03   -0.11331E-03   -0.16998E-02  4500   0.270E-01    0.375E-02
RMM:   2    -0.133796772261E+03   -0.21976E-03   -0.99075E-04  5249   0.628E-02    0.123E-01
RMM:   3    -0.133796617736E+03    0.15453E-03   -0.66382E-05  2945   0.210E-02    0.338E-02
RMM:   4    -0.133796614593E+03    0.31429E-05   -0.16601E-05  2396   0.186E-02
  61 F= -.13379661E+03 E0= -.13379289E+03  d E =-.173626E-03
quench:  g(F)=  0.000E+00 g(S)=  0.000E+00 dE (1.order)= 0.000E+00
 bond charge predicted
       N       E                     dE             d eps       ncg     rms          rms(c)
DAV:   1    -0.133796713704E+03   -0.95969E-04   -0.16939E-02  4356   0.258E-01    0.326E-02
RMM:   2    -0.133796861292E+03   -0.14759E-03   -0.88981E-04  5336   0.611E-02    0.914E-02
RMM:   3    -0.133796780398E+03    0.80894E-04   -0.47155E-05  2745   0.177E-02    0.262E-02
RMM:   4    -0.133796782898E+03   -0.24998E-05   -0.14366E-05  2344   0.184E-02
  62 F= -.13379678E+03 E0= -.13379300E+03  d E =-.168305E-03
quench:  g(F)=  0.000E+00 g(S)=  0.000E+00 dE (1.order)= 0.000E+00
 bond charge predicted
       N       E                     dE             d eps       ncg     rms          rms(c)
DAV:   1    -0.133796876802E+03   -0.96404E-04   -0.16275E-02  4527   0.264E-01    0.379E-02
RMM:   2    -0.133797109828E+03   -0.23303E-03   -0.96748E-04  5215   0.617E-02    0.130E-01
RMM:   3    -0.133796937750E+03    0.17208E-03   -0.68635E-05  2951   0.216E-02    0.326E-02
RMM:   4    -0.133796936150E+03    0.16001E-05   -0.16932E-05  2398   0.188E-02
  63 F= -.13379694E+03 E0= -.13379321E+03  d E =-.153252E-03
quench:  g(F)=  0.000E+00 g(S)=  0.000E+00 dE (1.order)= 0.000E+00
 bond charge predicted
       N       E                     dE             d eps       ncg     rms          rms(c)
DAV:   1    -0.133797014074E+03   -0.76323E-04   -0.15346E-02  4401   0.247E-01    0.318E-02
RMM:   2    -0.133797162075E+03   -0.14800E-03   -0.82381E-04  5246   0.586E-02    0.956E-02
RMM:   3    -0.133797074125E+03    0.87950E-04   -0.45948E-05  2728   0.178E-02    0.244E-02
RMM:   4    -0.133797077755E+03   -0.36299E-05   -0.14514E-05  2342   0.185E-02
  64 F= -.13379708E+03 E0= -.13379330E+03  d E =-.141605E-03
quench:  g(F)=  0.000E+00 g(S)=  0.000E+00 dE (1.order)= 0.000E+00
 bond charge predicted
       N       E                     dE             d eps       ncg     rms          rms(c)
DAV:   1    -0.133797154201E+03   -0.80076E-04   -0.14668E-02  4563   0.251E-01    0.359E-02
RMM:   2    -0.133797365528E+03   -0.21133E-03   -0.86496E-04  5126   0.583E-02    0.124E-01
RMM:   3    -0.133797208068E+03    0.15746E-03   -0.61630E-05  2903   0.208E-02    0.307E-02
RMM:   4    -0.133797207378E+03    0.68970E-06   -0.15180E-05  2383   0.179E-02
  65 F= -.13379721E+03 E0= -.13379348E+03  d E =-.129623E-03
quench:  g(F)=  0.000E+00 g(S)=  0.000E+00 dE (1.order)= 0.000E+00
 bond charge predicted
       N       E                     dE             d eps       ncg     rms          rms(c)
DAV:   1    -0.133797275634E+03   -0.67567E-04   -0.14767E-02  4365   0.241E-01    0.302E-02
RMM:   2    -0.133797397533E+03   -0.12190E-03   -0.76724E-04  5233   0.567E-02    0.808E-02
RMM:   3    -0.133797335135E+03    0.62398E-04   -0.40710E-05  2676   0.166E-02    0.252E-02
RMM:   4    -0.133797336093E+03   -0.95857E-06   -0.12736E-05  2327   0.174E-02
  66 F= -.13379734E+03 E0= -.13379356E+03  d E =-.128715E-03
quench:  g(F)=  0.000E+00 g(S)=  0.000E+00 dE (1.order)= 0.000E+00
 bond charge predicted
       N       E                     dE             d eps       ncg     rms          rms(c)
DAV:   1    -0.133797402065E+03   -0.66931E-04   -0.15422E-02  4491   0.255E-01    0.350E-02
RMM:   2    -0.133797586580E+03   -0.18451E-03   -0.88172E-04  5185   0.592E-02    0.110E-01
RMM:   3    -0.133797461679E+03    0.12490E-03   -0.55631E-05  2846   0.197E-02    0.324E-02
RMM:   4    -0.133797458352E+03    0.33267E-05   -0.14703E-05  2375   0.177E-02
  67 F= -.13379746E+03 E0= -.13379373E+03  d E =-.122259E-03
quench:  g(F)=  0.000E+00 g(S)=  0.000E+00 dE (1.order)= 0.000E+00
 bond charge predicted
       N       E                     dE             d eps       ncg     rms          rms(c)
DAV:   1    -0.133797520607E+03   -0.58929E-04   -0.16414E-02  4356   0.252E-01    0.314E-02
RMM:   2    -0.133797647212E+03   -0.12660E-03   -0.83422E-04  5315   0.591E-02    0.799E-02
RMM:   3    -0.133797586698E+03    0.60514E-04   -0.43599E-05  2705   0.169E-02    0.274E-02
RMM:   4    -0.133797585782E+03    0.91652E-06   -0.13107E-05  2337   0.176E-02
  68 F= -.13379759E+03 E0= -.13379381E+03  d E =-.127430E-03
quench:  g(F)=  0.000E+00 g(S)=  0.000E+00 dE (1.order)= 0.000E+00
 bond charge predicted
       N       E                     dE             d eps       ncg     rms          rms(c)
DAV:   1    -0.133797648131E+03   -0.61433E-04   -0.17300E-02  4329   0.269E-01    0.376E-02
RMM:   2    -0.133797864094E+03   -0.21596E-03   -0.99829E-04  5282   0.630E-02    0.121E-01
RMM:   3    -0.133797714170E+03    0.14992E-03   -0.65901E-05  2939   0.210E-02    0.343E-02
RMM:   4    -0.133797710733E+03    0.34372E-05   -0.16374E-05  2393   0.185E-02
  69 F= -.13379771E+03 E0= -.13379398E+03  d E =-.124951E-03
quench:  g(F)=  0.000E+00 g(S)=  0.000E+00 dE (1.order)= 0.000E+00
 bond charge predicted
       N       E                     dE             d eps       ncg     rms          rms(c)
DAV:   1    -0.133797766451E+03   -0.52281E-04   -0.17536E-02  4392   0.261E-01    0.329E-02
RMM:   2    -0.133797915868E+03   -0.14942E-03   -0.91338E-04  5355   0.616E-02    0.912E-02
RMM:   3    -0.133797836036E+03    0.79832E-04   -0.47899E-05  2749   0.178E-02    0.264E-02
RMM:   4    -0.133797838042E+03   -0.20062E-05   -0.14617E-05  2347   0.186E-02
  70 F= -.13379784E+03 E0= -.13379406E+03  d E =-.127310E-03
quench:  g(F)=  0.000E+00 g(S)=  0.000E+00 dE (1.order)= 0.000E+00
 bond charge predicted
       N       E                     dE             d eps       ncg     rms          rms(c)
DAV:   1    -0.133797901249E+03   -0.65213E-04   -0.16948E-02  4536   0.269E-01    0.385E-02
RMM:   2    -0.133798140054E+03   -0.23880E-03   -0.10029E-03  5222   0.626E-02    0.131E-01
RMM:   3    -0.133797964896E+03    0.17516E-03   -0.71217E-05  2983   0.219E-02    0.335E-02
RMM:   4    -0.133797962863E+03    0.20330E-05   -0.17171E-05  2403   0.188E-02
  71 F= -.13379796E+03 E0= -.13379424E+03  d E =-.124821E-03
quench:  g(F)=  0.000E+00 g(S)=  0.000E+00 dE (1.order)= 0.000E+00
 bond charge predicted
       N       E                     dE             d eps       ncg     rms          rms(c)
DAV:   1    -0.133798023641E+03   -0.58745E-04   -0.16261E-02  4392   0.253E-01    0.326E-02
RMM:   2    -0.133798175797E+03   -0.15216E-03   -0.86768E-04  5306   0.599E-02    0.957E-02
RMM:   3    -0.133798088119E+03    0.87679E-04   -0.48017E-05  2747   0.180E-02    0.255E-02
RMM:   4    -0.133798090814E+03   -0.26956E-05   -0.14926E-05  2348   0.188E-02
  72 F= -.13379809E+03 E0= -.13379431E+03  d E =-.127951E-03
quench:  g(F)=  0.000E+00 g(S)=  0.000E+00 dE (1.order)= 0.000E+00
 bond charge predicted
       N       E                     dE             d eps       ncg     rms          rms(c)
DAV:   1    -0.133798160082E+03   -0.71963E-04   -0.15827E-02  4527   0.260E-01    0.369E-02
RMM:   2    -0.133798378590E+03   -0.21851E-03   -0.93216E-04  5200   0.607E-02    0.124E-01
RMM:   3    -0.133798219511E+03    0.15908E-03   -0.64642E-05  2930   0.210E-02    0.321E-02
RMM:   4    -0.133798217947E+03    0.15640E-05   -0.15789E-05  2388   0.182E-02
  73 F= -.13379822E+03 E0= -.13379449E+03  d E =-.127133E-03
quench:  g(F)=  0.000E+00 g(S)=  0.000E+00 dE (1.order)= 0.000E+00
 bond charge predicted
       N       E                     dE             d eps       ncg     rms          rms(c)
DAV:   1    -0.133798283730E+03   -0.64219E-04   -0.16053E-02  4365   0.251E-01    0.318E-02
RMM:   2    -0.133798417731E+03   -0.13400E-03   -0.83720E-04  5328   0.592E-02    0.852E-02
RMM:   3    -0.133798348949E+03    0.68783E-04   -0.44162E-05  2709   0.172E-02    0.266E-02
RMM:   4    -0.133798349479E+03   -0.53021E-06   -0.13840E-05  2336   0.181E-02
  74 F= -.13379835E+03 E0= -.13379457E+03  d E =-.131532E-03
quench:  g(F)=  0.000E+00 g(S)=  0.000E+00 dE (1.order)= 0.000E+00
 bond charge predicted
       N       E                     dE             d eps       ncg     rms          rms(c)
DAV:   1    -0.133798419186E+03   -0.70237E-04   -0.16536E-02  4491   0.265E-01    0.368E-02
RMM:   2    -0.133798625073E+03   -0.20589E-03   -0.96282E-04  5252   0.617E-02    0.117E-01
RMM:   3    -0.133798483653E+03    0.14142E-03   -0.62646E-05  2917   0.206E-02    0.337E-02
RMM:   4    -0.133798480026E+03    0.36276E-05   -0.15736E-05  2384   0.182E-02
  75 F= -.13379848E+03 E0= -.13379476E+03  d E =-.130547E-03
quench:  g(F)=  0.000E+00 g(S)=  0.000E+00 dE (1.order)= 0.000E+00
 bond charge predicted
       N       E                     dE             d eps       ncg     rms          rms(c)
DAV:   1    -0.133798548429E+03   -0.64775E-04   -0.17112E-02  4356   0.259E-01    0.324E-02
RMM:   2    -0.133798686093E+03   -0.13766E-03   -0.88685E-04  5401   0.611E-02    0.847E-02
RMM:   3    -0.133798618356E+03    0.67737E-04   -0.45907E-05  2731   0.174E-02    0.274E-02
RMM:   4    -0.133798618611E+03   -0.25538E-06   -0.14038E-05  2337   0.182E-02
  76 F= -.13379862E+03 E0= -.13379484E+03  d E =-.138586E-03
quench:  g(F)=  0.000E+00 g(S)=  0.000E+00 dE (1.order)= 0.000E+00
 bond charge predicted
       N       E                     dE             d eps       ncg     rms          rms(c)
DAV:   1    -0.133798689801E+03   -0.71445E-04   -0.17105E-02  4500   0.270E-01    0.385E-02
RMM:   2    -0.133798923544E+03   -0.23374E-03   -0.10180E-03  5281   0.633E-02    0.128E-01
RMM:   3    -0.133798755404E+03    0.16814E-03   -0.70255E-05  2975   0.217E-02    0.339E-02
RMM:   4    -0.133798752722E+03    0.26828E-05   -0.17042E-05  2400   0.188E-02
  77 F= -.13379875E+03 E0= -.13379503E+03  d E =-.134110E-03
quench:  g(F)=  0.000E+00 g(S)=  0.000E+00 dE (1.order)= 0.000E+00
 bond charge predicted
       N       E                     dE             d eps       ncg     rms          rms(c)
DAV:   1    -0.133798812919E+03   -0.57515E-04   -0.16551E-02  4374   0.256E-01    0.327E-02
RMM:   2    -0.133798961653E+03   -0.14873E-03   -0.88370E-04  5371   0.608E-02    0.925E-02
RMM:   3    -0.133798879985E+03    0.81668E-04   -0.47521E-05  2741   0.179E-02    0.259E-02
RMM:   4    -0.133798882170E+03   -0.21856E-05   -0.14788E-05  2348   0.187E-02
  78 F= -.13379888E+03 E0= -.13379510E+03  d E =-.129449E-03
quench:  g(F)=  0.000E+00 g(S)=  0.000E+00 dE (1.order)= 0.000E+00
 bond charge predicted
       N       E                     dE             d eps       ncg     rms          rms(c)
DAV:   1    -0.133798944528E+03   -0.64544E-04   -0.15839E-02  4554   0.262E-01    0.380E-02
RMM:   2    -0.133799178806E+03   -0.23428E-03   -0.95546E-04  5216   0.611E-02    0.130E-01
RMM:   3    -0.133799004127E+03    0.17468E-03   -0.69523E-05  2964   0.217E-02    0.326E-02
RMM:   4    -0.133799002610E+03    0.15168E-05   -0.16755E-05  2397   0.187E-02
  79 F= -.13379900E+03 E0= -.13379528E+03  d E =-.120440E-03
quench:  g(F)=  0.000E+00 g(S)=  0.000E+00 dE (1.order)= 0.000E+00
 bond charge predicted
       N       E                     dE             d eps       ncg     rms          rms(c)
DAV:   1    -0.133799058717E+03   -0.54590E-04   -0.15702E-02  4356   0.250E-01    0.314E-02
RMM:   2    -0.133799189974E+03   -0.13126E-03   -0.82791E-04  5340   0.590E-02    0.835E-02
RMM:   3    -0.133799123410E+03    0.66564E-04   -0.43017E-05  2693   0.171E-02    0.259E-02
RMM:   4    -0.133799124226E+03   -0.81531E-06   -0.13415E-05  2330   0.179E-02
  80 F= -.13379912E+03 E0= -.13379535E+03  d E =-.121615E-03
quench:  g(F)=  0.000E+00 g(S)=  0.000E+00 dE (1.order)= 0.000E+00
 bond charge predicted
       N       E                     dE             d eps       ncg     rms          rms(c)
DAV:   1    -0.133799181945E+03   -0.58534E-04   -0.15744E-02  4500   0.260E-01    0.371E-02
RMM:   2    -0.133799396278E+03   -0.21433E-03   -0.93767E-04  5239   0.609E-02    0.122E-01
RMM:   3    -0.133799242833E+03    0.15344E-03   -0.65096E-05  2934   0.210E-02    0.332E-02
RMM:   4    -0.133799239978E+03    0.28555E-05   -0.16135E-05  2389   0.184E-02
  81 F= -.13379924E+03 E0= -.13379552E+03  d E =-.115752E-03
quench:  g(F)=  0.000E+00 g(S)=  0.000E+00 dE (1.order)= 0.000E+00
 bond charge predicted
       N       E                     dE             d eps       ncg     rms          rms(c)
DAV:   1    -0.133799287538E+03   -0.44705E-04   -0.15930E-02  4365   0.251E-01    0.315E-02
RMM:   2    -0.133799419186E+03   -0.13165E-03   -0.83267E-04  5368   0.593E-02    0.835E-02
RMM:   3    -0.133799352578E+03    0.66608E-04   -0.43173E-05  2696   0.171E-02    0.261E-02
RMM:   4    -0.133799353278E+03   -0.69974E-06   -0.13386E-05  2329   0.179E-02
  82 F= -.13379935E+03 E0= -.13379558E+03  d E =-.113300E-03
quench:  g(F)=  0.000E+00 g(S)=  0.000E+00 dE (1.order)= 0.000E+00
 bond charge predicted
       N       E                     dE             d eps       ncg     rms          rms(c)
DAV:   1    -0.133799402785E+03   -0.50207E-04   -0.15696E-02  4536   0.260E-01    0.373E-02
RMM:   2    -0.133799619748E+03   -0.21696E-03   -0.93511E-04  5213   0.605E-02    0.124E-01
RMM:   3    -0.133799462781E+03    0.15697E-03   -0.65893E-05  2936   0.210E-02    0.332E-02
RMM:   4    -0.133799460018E+03    0.27621E-05   -0.16537E-05  2394   0.186E-02
  83 F= -.13379946E+03 E0= -.13379574E+03  d E =-.106740E-03
quench:  g(F)=  0.000E+00 g(S)=  0.000E+00 dE (1.order)= 0.000E+00
 bond charge predicted
       N       E                     dE             d eps       ncg     rms          rms(c)
DAV:   1    -0.133799499275E+03   -0.36494E-04   -0.15388E-02  4356   0.247E-01    0.314E-02
RMM:   2    -0.133799632626E+03   -0.13335E-03   -0.81420E-04  5325   0.586E-02    0.861E-02
RMM:   3    -0.133799562040E+03    0.70586E-04   -0.43777E-05  2697   0.173E-02    0.255E-02
RMM:   4    -0.133799563383E+03   -0.13427E-05   -0.13748E-05  2333   0.181E-02
  84 F= -.13379956E+03 E0= -.13379578E+03  d E =-.103365E-03
quench:  g(F)=  0.000E+00 g(S)=  0.000E+00 dE (1.order)= 0.000E+00
 bond charge predicted
       N       E                     dE             d eps       ncg     rms          rms(c)
DAV:   1    -0.133799601972E+03   -0.39931E-04   -0.15038E-02  4563   0.254E-01    0.367E-02
RMM:   2    -0.133799815591E+03   -0.21362E-03   -0.89288E-04  5178   0.592E-02    0.124E-01
RMM:   3    -0.133799658403E+03    0.15719E-03   -0.64232E-05  2926   0.209E-02    0.322E-02
RMM:   4    -0.133799656497E+03    0.19067E-05   -0.16017E-05  2389   0.184E-02
  85 F= -.13379966E+03 E0= -.13379593E+03  d E =-.931137E-04
quench:  g(F)=  0.000E+00 g(S)=  0.000E+00 dE (1.order)= 0.000E+00
 bond charge predicted
       N       E                     dE             d eps       ncg     rms          rms(c)
DAV:   1    -0.133799681775E+03   -0.23371E-04   -0.15114E-02  4365   0.244E-01    0.308E-02
RMM:   2    -0.133799805245E+03   -0.12347E-03   -0.78811E-04  5295   0.576E-02    0.805E-02
RMM:   3    -0.133799743796E+03    0.61449E-04   -0.41194E-05  2679   0.168E-02    0.258E-02
RMM:   4    -0.133799743730E+03    0.65906E-07   -0.13077E-05  2332   0.176E-02
  86 F= -.13379974E+03 E0= -.13379596E+03  d E =-.872335E-04
quench:  g(F)=  0.000E+00 g(S)=  0.000E+00 dE (1.order)= 0.000E+00
 bond charge predicted
       N       E                     dE             d eps       ncg     rms          rms(c)
DAV:   1    -0.133799774116E+03   -0.30320E-04   -0.15235E-02  4410   0.255E-01    0.362E-02
RMM:   2    -0.133799973221E+03   -0.19911E-03   -0.89343E-04  5181   0.593E-02    0.117E-01
RMM:   3    -0.133799832304E+03    0.14092E-03   -0.60831E-05  2902   0.205E-02    0.328E-02
RMM:   4    -0.133799829149E+03    0.31555E-05   -0.15561E-05  2384   0.181E-02
  87 F= -.13379983E+03 E0= -.13379610E+03  d E =-.854186E-04
quench:  g(F)=  0.000E+00 g(S)=  0.000E+00 dE (1.order)= 0.000E+00
 bond charge predicted
       N       E                     dE             d eps       ncg     rms          rms(c)
DAV:   1    -0.133799856686E+03   -0.24381E-04   -0.15716E-02  4383   0.248E-01    0.313E-02
RMM:   2    -0.133799982084E+03   -0.12540E-03   -0.81451E-04  5330   0.585E-02    0.803E-02
RMM:   3    -0.133799921640E+03    0.60444E-04   -0.41736E-05  2689   0.169E-02    0.268E-02
RMM:   4    -0.133799921503E+03    0.13693E-06   -0.13295E-05  2323   0.178E-02
  88 F= -.13379992E+03 E0= -.13379614E+03  d E =-.923540E-04
quench:  g(F)=  0.000E+00 g(S)=  0.000E+00 dE (1.order)= 0.000E+00
 bond charge predicted
       N       E                     dE             d eps       ncg     rms          rms(c)
DAV:   1    -0.133799954633E+03   -0.32993E-04   -0.16142E-02  4500   0.262E-01    0.367E-02
RMM:   2    -0.133800153785E+03   -0.19915E-03   -0.94064E-04  5232   0.609E-02    0.115E-01
RMM:   3    -0.133800017564E+03    0.13622E-03   -0.61642E-05  2911   0.204E-02    0.341E-02
RMM:   4    -0.133800013199E+03    0.43656E-05   -0.15830E-05  2384   0.182E-02
  89 F= -.13380001E+03 E0= -.13379629E+03  d E =-.916960E-04
quench:  g(F)=  0.000E+00 g(S)=  0.000E+00 dE (1.order)= 0.000E+00
 bond charge predicted
       N       E                     dE             d eps       ncg     rms          rms(c)
DAV:   1    -0.133800043837E+03   -0.26273E-04   -0.16701E-02  4365   0.256E-01    0.320E-02
RMM:   2    -0.133800175795E+03   -0.13196E-03   -0.86473E-04  5377   0.601E-02    0.821E-02
RMM:   3    -0.133800112176E+03    0.63620E-04   -0.43299E-05  2710   0.171E-02    0.272E-02
RMM:   4    -0.133800112374E+03   -0.19842E-06   -0.13730E-05  2326   0.181E-02
  90 F= -.13380011E+03 E0= -.13379633E+03  d E =-.991753E-04
quench:  g(F)=  0.000E+00 g(S)=  0.000E+00 dE (1.order)= 0.000E+00
 bond charge predicted
       N       E                     dE             d eps       ncg     rms          rms(c)
DAV:   1    -0.133800146297E+03   -0.34122E-04   -0.16509E-02  4527   0.266E-01    0.381E-02
RMM:   2    -0.133800371406E+03   -0.22511E-03   -0.97839E-04  5229   0.619E-02    0.126E-01
RMM:   3    -0.133800208827E+03    0.16258E-03   -0.68316E-05  2951   0.214E-02    0.338E-02
RMM:   4    -0.133800205706E+03    0.31213E-05   -0.16922E-05  2396   0.187E-02
  91 F= -.13380021E+03 E0= -.13379648E+03  d E =-.933314E-04
quench:  g(F)=  0.000E+00 g(S)=  0.000E+00 dE (1.order)= 0.000E+00
 bond charge predicted
       N       E                     dE             d eps       ncg     rms          rms(c)
DAV:   1    -0.133800229871E+03   -0.21045E-04   -0.16046E-02  4392   0.252E-01    0.321E-02
RMM:   2    -0.133800370019E+03   -0.14015E-03   -0.84972E-04  5326   0.595E-02    0.888E-02
RMM:   3    -0.133800295238E+03    0.74781E-04   -0.45318E-05  2726   0.175E-02    0.258E-02
RMM:   4    -0.133800296886E+03   -0.16486E-05   -0.14287E-05  2337   0.184E-02
  92 F= -.13380030E+03 E0= -.13379652E+03  d E =-.911809E-04
quench:  g(F)=  0.000E+00 g(S)=  0.000E+00 dE (1.order)= 0.000E+00
 bond charge predicted
       N       E                     dE             d eps       ncg     rms          rms(c)
DAV:   1    -0.133800322427E+03   -0.27190E-04   -0.15480E-02  4581   0.258E-01    0.374E-02
RMM:   2    -0.133800546401E+03   -0.22397E-03   -0.92146E-04  5163   0.599E-02    0.127E-01
RMM:   3    -0.133800379683E+03    0.16672E-03   -0.66913E-05  2933   0.214E-02    0.324E-02
RMM:   4    -0.133800377795E+03    0.18886E-05   -0.16443E-05  2394   0.185E-02
  93 F= -.13380038E+03 E0= -.13379665E+03  d E =-.809083E-04
quench:  g(F)=  0.000E+00 g(S)=  0.000E+00 dE (1.order)= 0.000E+00
 bond charge predicted
       N       E                     dE             d eps       ncg     rms          rms(c)
DAV:   1    -0.133800397741E+03   -0.18058E-04   -0.15595E-02  4374   0.248E-01    0.310E-02
RMM:   2    -0.133800521958E+03   -0.12422E-03   -0.81126E-04  5324   0.582E-02    0.795E-02
RMM:   3    -0.133800462217E+03    0.59741E-04   -0.40406E-05  2688   0.167E-02    0.264E-02
RMM:   4    -0.133800462319E+03   -0.10240E-06   -0.13007E-05  2324   0.176E-02
  94 F= -.13380046E+03 E0= -.13379668E+03  d E =-.845245E-04
quench:  g(F)=  0.000E+00 g(S)=  0.000E+00 dE (1.order)= 0.000E+00
 bond charge predicted
       N       E                     dE             d eps       ncg     rms          rms(c)
DAV:   1    -0.133800485151E+03   -0.22934E-04   -0.15926E-02  4509   0.260E-01    0.366E-02
RMM:   2    -0.133800685959E+03   -0.20081E-03   -0.92653E-04  5209   0.603E-02    0.117E-01
RMM:   3    -0.133800546340E+03    0.13962E-03   -0.61490E-05  2904   0.205E-02    0.335E-02
RMM:   4    -0.133800542554E+03    0.37865E-05   -0.15852E-05  2385   0.183E-02
  95 F= -.13380054E+03 E0= -.13379681E+03  d E =-.802346E-04
quench:  g(F)=  0.000E+00 g(S)=  0.000E+00 dE (1.order)= 0.000E+00
 bond charge predicted
       N       E                     dE             d eps       ncg     rms          rms(c)
DAV:   1    -0.133800560536E+03   -0.14196E-04   -0.16304E-02  4365   0.253E-01    0.320E-02
RMM:   2    -0.133800693969E+03   -0.13343E-03   -0.84962E-04  5356   0.597E-02    0.839E-02
RMM:   3    -0.133800627377E+03    0.66592E-04   -0.43940E-05  2708   0.173E-02    0.267E-02
RMM:   4    -0.133800627815E+03   -0.43852E-06   -0.13773E-05  2334   0.181E-02
  96 F= -.13380063E+03 E0= -.13379685E+03  d E =-.852614E-04
quench:  g(F)=  0.000E+00 g(S)=  0.000E+00 dE (1.order)= 0.000E+00
 bond charge predicted
       N       E                     dE             d eps       ncg     rms          rms(c)
DAV:   1    -0.133800653297E+03   -0.25920E-04   -0.16188E-02  4518   0.263E-01    0.379E-02
RMM:   2    -0.133800874988E+03   -0.22169E-03   -0.96573E-04  5230   0.615E-02    0.124E-01
RMM:   3    -0.133800715220E+03    0.15977E-03   -0.67982E-05  2951   0.214E-02    0.339E-02
RMM:   4    -0.133800711934E+03    0.32858E-05   -0.16781E-05  2396   0.187E-02
  97 F= -.13380071E+03 E0= -.13379698E+03  d E =-.841185E-04
quench:  g(F)=  0.000E+00 g(S)=  0.000E+00 dE (1.order)= 0.000E+00
 bond charge predicted
       N       E                     dE             d eps       ncg     rms          rms(c)
DAV:   1    -0.133800730844E+03   -0.15625E-04   -0.16144E-02  4383   0.253E-01    0.320E-02
RMM:   2    -0.133800865794E+03   -0.13495E-03   -0.84869E-04  5356   0.597E-02    0.850E-02
RMM:   3    -0.133800797367E+03    0.68427E-04   -0.44114E-05  2715   0.174E-02    0.265E-02
RMM:   4    -0.133800798220E+03   -0.85315E-06   -0.13909E-05  2336   0.182E-02
  98 F= -.13380080E+03 E0= -.13379701E+03  d E =-.862866E-04
quench:  g(F)=  0.000E+00 g(S)=  0.000E+00 dE (1.order)= 0.000E+00
 bond charge predicted
       N       E                     dE             d eps       ncg     rms          rms(c)
DAV:   1    -0.133800818534E+03   -0.21166E-04   -0.15795E-02  4590   0.260E-01    0.375E-02
RMM:   2    -0.133801036317E+03   -0.21778E-03   -0.93834E-04  5191   0.602E-02    0.124E-01
RMM:   3    -0.133800878182E+03    0.15814E-03   -0.66387E-05  2936   0.212E-02    0.333E-02
RMM:   4    -0.133800875320E+03    0.28619E-05   -0.16600E-05  2393   0.186E-02
  99 F= -.13380088E+03 E0= -.13379715E+03  d E =-.770998E-04
quench:  g(F)=  0.000E+00 g(S)=  0.000E+00 dE (1.order)= 0.000E+00
 bond charge predicted
       N       E                     dE             d eps       ncg     rms          rms(c)
DAV:   1    -0.133800886160E+03   -0.79778E-05   -0.15601E-02  4383   0.248E-01    0.317E-02
RMM:   2    -0.133801017487E+03   -0.13133E-03   -0.82111E-04  5326   0.586E-02    0.844E-02
RMM:   3    -0.133800950447E+03    0.67040E-04   -0.42917E-05  2704   0.172E-02    0.263E-02
RMM:   4    -0.133800951362E+03   -0.91414E-06   -0.13913E-05  2332   0.182E-02
 100 F= -.13380095E+03 E0= -.13379717E+03  d E =-.760414E-04
quench:  g(F)=  0.000E+00 g(S)=  0.000E+00 dE (1.order)= 0.000E+00
 bond charge predicted
       N       E                     dE             d eps       ncg     rms          rms(c)
DAV:   1    -0.133800965204E+03   -0.14756E-04   -0.15486E-02  4545   0.258E-01    0.369E-02
RMM:   2    -0.133801173592E+03   -0.20839E-03   -0.91554E-04  5193   0.598E-02    0.120E-01
RMM:   3    -0.133801024804E+03    0.14879E-03   -0.63663E-05  2918   0.209E-02    0.331E-02
RMM:   4    -0.133801021914E+03    0.28906E-05   -0.16014E-05  2388   0.183E-02
 101 F= -.13380102E+03 E0= -.13379729E+03  d E =-.705522E-04
quench:  g(F)=  0.000E+00 g(S)=  0.000E+00 dE (1.order)= 0.000E+00
 bond charge predicted
       N       E                     dE             d eps       ncg     rms          rms(c)
DAV:   1    -0.133801028479E+03   -0.36748E-05   -0.15795E-02  4329   0.249E-01    0.316E-02
RMM:   2    -0.133801154837E+03   -0.12636E-03   -0.82195E-04  5341   0.586E-02    0.808E-02
RMM:   3    -0.133801093319E+03    0.61519E-04   -0.42040E-05  2695   0.169E-02    0.270E-02
RMM:   4    -0.133801093045E+03    0.27354E-06   -0.13613E-05  2334   0.180E-02
 102 F= -.13380109E+03 E0= -.13379731E+03  d E =-.711314E-04
quench:  g(F)=  0.000E+00 g(S)=  0.000E+00 dE (1.order)= 0.000E+00
 bond charge predicted
       N       E                     dE             d eps       ncg     rms          rms(c)
DAV:   1    -0.133801104214E+03   -0.10896E-04   -0.15686E-02  4473   0.259E-01    0.370E-02
RMM:   2    -0.133801313601E+03   -0.20939E-03   -0.92601E-04  5202   0.599E-02    0.120E-01
RMM:   3    -0.133801164293E+03    0.14931E-03   -0.63777E-05  2918   0.209E-02    0.331E-02
RMM:   4    -0.133801161533E+03    0.27600E-05   -0.16122E-05  2389   0.183E-02
 103 F= -.13380116E+03 E0= -.13379743E+03  d E =-.684879E-04
quench:  g(F)=  0.000E+00 g(S)=  0.000E+00 dE (1.order)= 0.000E+00
 bond charge predicted
       N       E                     dE             d eps       ncg     rms          rms(c)
DAV:   1    -0.133801173182E+03   -0.88891E-05   -0.15493E-02  4338   0.248E-01    0.318E-02
RMM:   2    -0.133801306214E+03   -0.13303E-03   -0.82012E-04  5327   0.585E-02    0.859E-02
RMM:   3    -0.133801236527E+03    0.69688E-04   -0.43749E-05  2707   0.173E-02    0.261E-02
RMM:   4    -0.133801237833E+03   -0.13064E-05   -0.14197E-05  2333   0.183E-02
 104 F= -.13380124E+03 E0= -.13379745E+03  d E =-.763000E-04
quench:  g(F)=  0.000E+00 g(S)=  0.000E+00 dE (1.order)= 0.000E+00
 bond charge predicted
       N       E                     dE             d eps       ncg     rms          rms(c)
DAV:   1    -0.133801252041E+03   -0.15515E-04   -0.15284E-02  4572   0.256E-01    0.368E-02
RMM:   2    -0.133801462400E+03   -0.21036E-03   -0.90505E-04  5189   0.594E-02    0.121E-01
RMM:   3    -0.133801309306E+03    0.15309E-03   -0.63592E-05  2919   0.209E-02    0.325E-02
RMM:   4    -0.133801307317E+03    0.19889E-05   -0.15756E-05  2388   0.182E-02
 105 F= -.13380131E+03 E0= -.13379758E+03  d E =-.694842E-04
quench:  g(F)=  0.000E+00 g(S)=  0.000E+00 dE (1.order)= 0.000E+00
 bond charge predicted
       N       E                     dE             d eps       ncg     rms          rms(c)
DAV:   1    -0.133801315546E+03   -0.62396E-05   -0.15761E-02  4365   0.249E-01    0.314E-02
RMM:   2    -0.133801436098E+03   -0.12055E-03   -0.81786E-04  5369   0.586E-02    0.764E-02
RMM:   3    -0.133801381610E+03    0.54488E-04   -0.41065E-05  2685   0.167E-02    0.278E-02
RMM:   4    -0.133801380250E+03    0.13604E-05   -0.13217E-05  2332   0.177E-02
 106 F= -.13380138E+03 E0= -.13379759E+03  d E =-.729323E-04
quench:  g(F)=  0.000E+00 g(S)=  0.000E+00 dE (1.order)= 0.000E+00
 bond charge predicted
       N       E                     dE             d eps       ncg     rms          rms(c)
DAV:   1    -0.133801383345E+03   -0.17350E-05   -0.16263E-02  4392   0.263E-01    0.375E-02
RMM:   2    -0.133801593397E+03   -0.21005E-03   -0.95715E-04  5251   0.611E-02    0.119E-01
RMM:   3    -0.133801446283E+03    0.14711E-03   -0.64890E-05  2933   0.210E-02    0.342E-02
RMM:   4    -0.133801442878E+03    0.34047E-05   -0.16331E-05  2392   0.184E-02
 107 F= -.13380144E+03 E0= -.13379771E+03  d E =-.626285E-04
quench:  g(F)=  0.000E+00 g(S)=  0.000E+00 dE (1.order)= 0.000E+00
 bond charge predicted
       N       E                     dE             d eps       ncg     rms          rms(c)
DAV:   1    -0.133801431959E+03    0.14323E-04   -0.16658E-02  4347   0.256E-01    0.323E-02
RMM:   2    -0.133801561440E+03   -0.12948E-03   -0.86631E-04  5396   0.601E-02    0.802E-02
RMM:   3    -0.133801501101E+03    0.60339E-04   -0.42631E-05  2709   0.171E-02    0.278E-02
RMM:   4    -0.133801500216E+03    0.88492E-06   -0.13819E-05  2342   0.181E-02
 108 F= -.13380150E+03 E0= -.13379771E+03  d E =-.573381E-04
quench:  g(F)=  0.000E+00 g(S)=  0.000E+00 dE (1.order)= 0.000E+00
 bond charge predicted
       N       E                     dE             d eps       ncg     rms          rms(c)
DAV:   1    -0.133801506520E+03   -0.54193E-05   -0.16407E-02  4446   0.266E-01    0.388E-02
RMM:   2    -0.133801738308E+03   -0.23179E-03   -0.98391E-04  5227   0.615E-02    0.128E-01
RMM:   3    -0.133801568989E+03    0.16932E-03   -0.71436E-05  2987   0.219E-02    0.343E-02
RMM:   4    -0.133801566093E+03    0.28967E-05   -0.17284E-05  2405   0.188E-02
 109 F= -.13380157E+03 E0= -.13379783E+03  d E =-.658764E-04
quench:  g(F)=  0.000E+00 g(S)=  0.000E+00 dE (1.order)= 0.000E+00
 bond charge predicted
       N       E                     dE             d eps       ncg     rms          rms(c)
DAV:   1    -0.133801569940E+03   -0.95116E-06   -0.15841E-02  4347   0.251E-01    0.323E-02
RMM:   2    -0.133801708108E+03   -0.13817E-03   -0.84426E-04  5360   0.592E-02    0.879E-02
RMM:   3    -0.133801634948E+03    0.73159E-04   -0.44358E-05  2718   0.175E-02    0.260E-02
RMM:   4    -0.133801636439E+03   -0.14902E-05   -0.14533E-05  2339   0.186E-02
 110 F= -.13380164E+03 E0= -.13379785E+03  d E =-.703462E-04
quench:  g(F)=  0.000E+00 g(S)=  0.000E+00 dE (1.order)= 0.000E+00
 bond charge predicted
       N       E                     dE             d eps       ncg     rms          rms(c)
DAV:   1    -0.133801644947E+03   -0.99988E-05   -0.15003E-02  4635   0.256E-01    0.375E-02
RMM:   2    -0.133801866606E+03   -0.22166E-03   -0.90893E-04  5144   0.591E-02    0.126E-01
RMM:   3    -0.133801700455E+03    0.16615E-03   -0.66970E-05  2940   0.215E-02    0.325E-02
RMM:   4    -0.133801699051E+03    0.14037E-05   -0.16429E-05  2392   0.184E-02
 111 F= -.13380170E+03 E0= -.13379796E+03  d E =-.626125E-04
quench:  g(F)=  0.000E+00 g(S)=  0.000E+00 dE (1.order)= 0.000E+00
 bond charge predicted
       N       E                     dE             d eps       ncg     rms          rms(c)
DAV:   1    -0.133801705900E+03   -0.54450E-05   -0.14655E-02  4401   0.242E-01    0.311E-02
RMM:   2    -0.133801830436E+03   -0.12454E-03   -0.77745E-04  5307   0.569E-02    0.823E-02
RMM:   3    -0.133801766946E+03    0.63490E-04   -0.40788E-05  2683   0.169E-02    0.258E-02
RMM:   4    -0.133801766993E+03   -0.46384E-07   -0.13571E-05  2333   0.180E-02
 112 F= -.13380177E+03 E0= -.13379798E+03  d E =-.679415E-04
quench:  g(F)=  0.000E+00 g(S)=  0.000E+00 dE (1.order)= 0.000E+00
 bond charge predicted
       N       E                     dE             d eps       ncg     rms          rms(c)
DAV:   1    -0.133801787324E+03   -0.20378E-04   -0.14762E-02  4419   0.253E-01    0.362E-02
RMM:   2    -0.133801988678E+03   -0.20135E-03   -0.87824E-04  5189   0.587E-02    0.118E-01
RMM:   3    -0.133801843214E+03    0.14546E-03   -0.61197E-05  2900   0.207E-02    0.321E-02
RMM:   4    -0.133801841613E+03    0.16006E-05   -0.15411E-05  2384   0.180E-02
 113 F= -.13380184E+03 E0= -.13379811E+03  d E =-.746204E-04
quench:  g(F)=  0.000E+00 g(S)=  0.000E+00 dE (1.order)= 0.000E+00
 bond charge predicted
       N       E                     dE             d eps       ncg     rms          rms(c)
DAV:   1    -0.133801853605E+03   -0.10391E-04   -0.15466E-02  4356   0.247E-01    0.310E-02
RMM:   2    -0.133801967812E+03   -0.11421E-03   -0.80278E-04  5375   0.582E-02    0.720E-02
RMM:   3    -0.133801919802E+03    0.48010E-04   -0.39088E-05  2676   0.164E-02    0.282E-02
RMM:   4    -0.133801917371E+03    0.24307E-05   -0.12543E-05  2327   0.172E-02
 114 F= -.13380192E+03 E0= -.13379813E+03  d E =-.757582E-04
quench:  g(F)=  0.000E+00 g(S)=  0.000E+00 dE (1.order)= 0.000E+00
 bond charge predicted
       N       E                     dE             d eps       ncg     rms          rms(c)
DAV:   1    -0.133801944688E+03   -0.24886E-04   -0.16108E-02  4383   0.262E-01    0.373E-02
RMM:   2    -0.133802146639E+03   -0.20195E-03   -0.95071E-04  5247   0.609E-02    0.116E-01
RMM:   3    -0.133802008091E+03    0.13855E-03   -0.63328E-05  2922   0.208E-02    0.346E-02
RMM:   4    -0.133802004132E+03    0.39590E-05   -0.16381E-05  2389   0.186E-02
 115 F= -.13380200E+03 E0= -.13379827E+03  d E =-.867612E-04
quench:  g(F)=  0.000E+00 g(S)=  0.000E+00 dE (1.order)= 0.000E+00
 bond charge predicted
       N       E                     dE             d eps       ncg     rms          rms(c)
DAV:   1    -0.133802024357E+03   -0.16266E-04   -0.16444E-02  4329   0.255E-01    0.325E-02
RMM:   2    -0.133802160023E+03   -0.13567E-03   -0.86995E-04  5400   0.604E-02    0.841E-02
RMM:   3    -0.133802092847E+03    0.67177E-04   -0.43818E-05  2723   0.174E-02    0.271E-02
RMM:   4    -0.133802092414E+03    0.43273E-06   -0.14026E-05  2344   0.183E-02
 116 F= -.13380209E+03 E0= -.13379830E+03  d E =-.882814E-04
quench:  g(F)=  0.000E+00 g(S)=  0.000E+00 dE (1.order)= 0.000E+00
 bond charge predicted
       N       E                     dE             d eps       ncg     rms          rms(c)
DAV:   1    -0.133802114831E+03   -0.21985E-04   -0.16274E-02  4428   0.265E-01    0.382E-02
RMM:   2    -0.133802334306E+03   -0.21947E-03   -0.97657E-04  5247   0.615E-02    0.123E-01
RMM:   3    -0.133802178021E+03    0.15628E-03   -0.68090E-05  2959   0.214E-02    0.343E-02
RMM:   4    -0.133802174855E+03    0.31660E-05   -0.16795E-05  2394   0.186E-02
 117 F= -.13380217E+03 E0= -.13379844E+03  d E =-.824410E-04
quench:  g(F)=  0.000E+00 g(S)=  0.000E+00 dE (1.order)= 0.000E+00
 bond charge predicted
       N       E                     dE             d eps       ncg     rms          rms(c)
DAV:   1    -0.133802192688E+03   -0.14667E-04   -0.16095E-02  4329   0.254E-01    0.327E-02
RMM:   2    -0.133802333203E+03   -0.14051E-03   -0.86311E-04  5402   0.601E-02    0.882E-02
RMM:   3    -0.133802260093E+03    0.73110E-04   -0.44615E-05  2732   0.176E-02    0.269E-02
RMM:   4    -0.133802260769E+03   -0.67637E-06   -0.14680E-05  2345   0.187E-02
 118 F= -.13380226E+03 E0= -.13379847E+03  d E =-.859146E-04
quench:  g(F)=  0.000E+00 g(S)=  0.000E+00 dE (1.order)= 0.000E+00
 bond charge predicted
       N       E                     dE             d eps       ncg     rms          rms(c)
DAV:   1    -0.133802285652E+03   -0.25559E-04   -0.15929E-02  4554   0.263E-01    0.376E-02
RMM:   2    -0.133802501216E+03   -0.21556E-03   -0.95824E-04  5254   0.612E-02    0.121E-01
RMM:   3    -0.133802347236E+03    0.15398E-03   -0.66390E-05  2947   0.213E-02    0.337E-02
RMM:   4    -0.133802344224E+03    0.30124E-05   -0.16238E-05  2391   0.184E-02
 119 F= -.13380234E+03 E0= -.13379861E+03  d E =-.834543E-04
quench:  g(F)=  0.000E+00 g(S)=  0.000E+00 dE (1.order)= 0.000E+00
 bond charge predicted
       N       E                     dE             d eps       ncg     rms          rms(c)
DAV:   1    -0.133802364427E+03   -0.17191E-04   -0.15878E-02  4374   0.252E-01    0.318E-02
RMM:   2    -0.133802492036E+03   -0.12761E-03   -0.84193E-04  5406   0.597E-02    0.802E-02
RMM:   3    -0.133802431667E+03    0.60369E-04   -0.41691E-05  2697   0.170E-02    0.269E-02
RMM:   4    -0.133802431173E+03    0.49474E-06   -0.13734E-05  2333   0.180E-02
 120 F= -.13380243E+03 E0= -.13379864E+03  d E =-.869489E-04
quench:  g(F)=  0.000E+00 g(S)=  0.000E+00 dE (1.order)= 0.000E+00
 bond charge predicted
       N       E                     dE             d eps       ncg     rms          rms(c)
DAV:   1    -0.133802445564E+03   -0.13897E-04   -0.15120E-02  4473   0.257E-01    0.377E-02
RMM:   2    -0.133802669317E+03   -0.22375E-03   -0.92844E-04  5187   0.598E-02    0.127E-01
RMM:   3    -0.133802503495E+03    0.16582E-03   -0.67583E-05  2950   0.216E-02    0.326E-02
RMM:   4    -0.133802501414E+03    0.20813E-05   -0.16602E-05  2394   0.185E-02
 121 F= -.13380250E+03 E0= -.13379877E+03  d E =-.702412E-04
quench:  g(F)=  0.000E+00 g(S)=  0.000E+00 dE (1.order)= 0.000E+00
 bond charge predicted
       N       E                     dE             d eps       ncg     rms          rms(c)
DAV:   1    -0.133802506266E+03   -0.27707E-05   -0.14198E-02  4401   0.240E-01    0.311E-02
RMM:   2    -0.133802638524E+03   -0.13226E-03   -0.77656E-04  5301   0.570E-02    0.877E-02
RMM:   3    -0.133802566021E+03    0.72504E-04   -0.42698E-05  2691   0.173E-02    0.246E-02
RMM:   4    -0.133802567632E+03   -0.16115E-05   -0.14066E-05  2330   0.183E-02
 122 F= -.13380257E+03 E0= -.13379878E+03  d E =-.662183E-04
quench:  g(F)=  0.000E+00 g(S)=  0.000E+00 dE (1.order)= 0.000E+00
 bond charge predicted
       N       E                     dE             d eps       ncg     rms          rms(c)
DAV:   1    -0.133802567253E+03   -0.12319E-05   -0.13644E-02  4581   0.244E-01    0.357E-02
RMM:   2    -0.133802765778E+03   -0.19853E-03   -0.83136E-04  5130   0.570E-02    0.118E-01
RMM:   3    -0.133802619411E+03    0.14637E-03   -0.60187E-05  2888   0.207E-02    0.313E-02
RMM:   4    -0.133802617226E+03    0.21847E-05   -0.14868E-05  2380   0.177E-02
 123 F= -.13380262E+03 E0= -.13379888E+03  d E =-.495939E-04
quench:  g(F)=  0.000E+00 g(S)=  0.000E+00 dE (1.order)= 0.000E+00
 bond charge predicted
       N       E                     dE             d eps       ncg     rms          rms(c)
DAV:   1    -0.133802598272E+03    0.21138E-04   -0.14142E-02  4356   0.237E-01    0.293E-02
RMM:   2    -0.133802697516E+03   -0.99244E-04   -0.73211E-04  5332   0.559E-02    0.642E-02
RMM:   3    -0.133802659885E+03    0.37631E-04   -0.35171E-05  2633   0.157E-02    0.275E-02
RMM:   4    -0.133802657242E+03    0.26430E-05   -0.11232E-05  2301   0.163E-02
 124 F= -.13380266E+03 E0= -.13379887E+03  d E =-.400160E-04
quench:  g(F)=  0.000E+00 g(S)=  0.000E+00 dE (1.order)= 0.000E+00
 bond charge predicted
       N       E                     dE             d eps       ncg     rms          rms(c)
DAV:   1    -0.133802639077E+03    0.20808E-04   -0.14626E-02  4410   0.250E-01    0.360E-02
RMM:   2    -0.133802828338E+03   -0.18926E-03   -0.86947E-04  5193   0.583E-02    0.113E-01
RMM:   3    -0.133802697440E+03    0.13090E-03   -0.59057E-05  2882   0.203E-02    0.332E-02
RMM:   4    -0.133802692987E+03    0.44535E-05   -0.15572E-05  2382   0.182E-02
 125 F= -.13380269E+03 E0= -.13379896E+03  d E =-.357445E-04
quench:  g(F)=  0.000E+00 g(S)=  0.000E+00 dE (1.order)= 0.000E+00
 bond charge predicted
       N       E                     dE             d eps       ncg     rms          rms(c)
DAV:   1    -0.133802663965E+03    0.33475E-04   -0.14829E-02  4365   0.243E-01    0.306E-02
RMM:   2    -0.133802778905E+03   -0.11494E-03   -0.78153E-04  5371   0.575E-02    0.743E-02
RMM:   3    -0.133802727209E+03    0.51697E-04   -0.38525E-05  2671   0.165E-02    0.263E-02
RMM:   4    -0.133802726142E+03    0.10669E-05   -0.12498E-05  2323   0.172E-02
 126 F= -.13380273E+03 E0= -.13379893E+03  d E =-.331553E-04
quench:  g(F)=  0.000E+00 g(S)=  0.000E+00 dE (1.order)= 0.000E+00
 bond charge predicted
       N       E                     dE             d eps       ncg     rms          rms(c)
DAV:   1    -0.133802701894E+03    0.25315E-04   -0.14307E-02  4464   0.249E-01    0.372E-02
RMM:   2    -0.133802917034E+03   -0.21514E-03   -0.87348E-04  5141   0.581E-02    0.125E-01
[...]
RMM:   6    -0.133767239824E+03    0.14025E-04   -0.45373E-05  2900   0.309E-02    0.171E-02
RMM:   7    -0.133767235343E+03    0.44807E-05   -0.18803E-05  2377   0.186E-02
 468 F= -.13376724E+03 E0= -.13376356E+03  d E =-.409275E-03
quench:  g(F)=  0.000E+00 g(S)=  0.000E+00 dE (1.order)= 0.000E+00
 bond charge predicted
       N       E                     dE             d eps       ncg     rms          rms(c)
DAV:   1    -0.133767264183E+03   -0.24360E-04   -0.44059E-02  4203   0.380E-01    0.490E-02
RMM:   2    -0.133767504270E+03   -0.24009E-03   -0.20004E-03  6003   0.904E-02    0.773E-02
RMM:   3    -0.133767455069E+03    0.49201E-04   -0.11021E-04  3282   0.285E-02    0.499E-02
RMM:   4    -0.133767429785E+03    0.25284E-04   -0.33654E-05  2517   0.240E-02    0.260E-02
RMM:   5    -0.133767425767E+03    0.40178E-05   -0.22029E-05  2349   0.231E-02
 469 F= -.13376743E+03 E0= -.13376375E+03  d E =-.190424E-03
quench:  g(F)=  0.000E+00 g(S)=  0.000E+00 dE (1.order)= 0.000E+00
 bond charge predicted
       N       E                     dE             d eps       ncg     rms          rms(c)
DAV:   1    -0.133767255560E+03    0.17423E-03   -0.54477E-02  4185   0.439E-01    0.582E-02
RMM:   2    -0.133767520381E+03   -0.26482E-03   -0.24134E-03  6182   0.102E-01    0.602E-02
RMM:   3    -0.133767549535E+03   -0.29154E-04   -0.12051E-04  3505   0.289E-02    0.955E-02
RMM:   4    -0.133767439362E+03    0.11017E-03   -0.39471E-05  2628   0.282E-02    0.202E-02
RMM:   5    -0.133767445067E+03   -0.57048E-05   -0.13644E-05  2292   0.182E-02
 470 F= -.13376745E+03 E0= -.13376376E+03  d E =-.193001E-04
quench:  g(F)=  0.000E+00 g(S)=  0.000E+00 dE (1.order)= 0.000E+00
 bond charge predicted
       N       E                     dE             d eps       ncg     rms          rms(c)
DAV:   1    -0.133767068022E+03    0.37134E-03   -0.80031E-02  4059   0.525E-01    0.672E-02
RMM:   2    -0.133767399389E+03   -0.33137E-03   -0.33394E-03  6318   0.120E-01    0.445E-02
RMM:   3    -0.133767401245E+03   -0.18565E-05   -0.13921E-04  3605   0.387E-02    0.769E-02
RMM:   4    -0.133767353522E+03    0.47723E-04   -0.33073E-05  2586   0.239E-02    0.323E-02
RMM:   5    -0.133767347496E+03    0.60259E-05   -0.16490E-05  2365   0.185E-02
 471 F= -.13376735E+03 E0= -.13376366E+03  d E =0.975713E-04
quench:  g(F)=  0.000E+00 g(S)=  0.000E+00 dE (1.order)= 0.000E+00
 bond charge predicted
       N       E                     dE             d eps       ncg     rms          rms(c)
DAV:   1    -0.133766724895E+03    0.62863E-03   -0.11122E-01  4176   0.617E-01    0.792E-02
RMM:   2    -0.133767209628E+03   -0.48473E-03   -0.45682E-03  6394   0.139E-01    0.744E-02
RMM:   3    -0.133767291832E+03   -0.82204E-04   -0.22153E-04  4048   0.423E-02    0.125E-01
RMM:   4    -0.133767096198E+03    0.19563E-03   -0.53822E-05  2913   0.283E-02    0.281E-02
RMM:   5    -0.133767104513E+03   -0.83149E-05   -0.22434E-05  2428   0.207E-02
 472 F= -.13376710E+03 E0= -.13376342E+03  d E =0.242983E-03
quench:  g(F)=  0.000E+00 g(S)=  0.000E+00 dE (1.order)= 0.000E+00
 bond charge predicted
       N       E                     dE             d eps       ncg     rms          rms(c)
DAV:   1    -0.133766259735E+03    0.83646E-03   -0.14874E-01  4149   0.711E-01    0.915E-02
RMM:   2    -0.133766891094E+03   -0.63136E-03   -0.61772E-03  6351   0.163E-01    0.762E-02
RMM:   3    -0.133766991536E+03   -0.10044E-03   -0.31771E-04  4090   0.577E-02    0.140E-01
RMM:   4    -0.133766770353E+03    0.22118E-03   -0.71025E-05  3146   0.302E-02    0.363E-02
RMM:   5    -0.133766774086E+03   -0.37333E-05   -0.35367E-05  2658   0.268E-02
 473 F= -.13376677E+03 E0= -.13376309E+03  d E =0.330427E-03
quench:  g(F)=  0.000E+00 g(S)=  0.000E+00 dE (1.order)= 0.000E+00
 bond charge predicted
       N       E                     dE             d eps       ncg     rms          rms(c)
DAV:   1    -0.133765736505E+03    0.10338E-02   -0.19294E-01  4059   0.810E-01    0.105E-01
RMM:   2    -0.133766563891E+03   -0.82739E-03   -0.78079E-03  6441   0.180E-01    0.961E-02
RMM:   3    -0.133766706817E+03   -0.14293E-03   -0.37053E-04  4290   0.505E-02    0.164E-01
RMM:   4    -0.133766381497E+03    0.32532E-03   -0.10269E-04  3480   0.373E-02    0.398E-02
RMM:   5    -0.133766390846E+03   -0.93487E-05   -0.43095E-05  2762   0.292E-02
 474 F= -.13376639E+03 E0= -.13376270E+03  d E =0.383240E-03
quench:  g(F)=  0.000E+00 g(S)=  0.000E+00 dE (1.order)= 0.000E+00
 bond charge predicted
       N       E                     dE             d eps       ncg     rms          rms(c)
DAV:   1    -0.133765374171E+03    0.10073E-02   -0.24024E-01  4041   0.903E-01    0.116E-01
RMM:   2    -0.133766377618E+03   -0.10034E-02   -0.10029E-02  6316   0.209E-01    0.869E-02
RMM:   3    -0.133766526867E+03   -0.14925E-03   -0.51634E-04  4202   0.764E-02    0.172E-01
RMM:   4    -0.133766199671E+03    0.32720E-03   -0.11617E-04  3545   0.379E-02    0.465E-02
RMM:   5    -0.133766203040E+03   -0.33682E-05   -0.59522E-05  3174   0.331E-02
 475 F= -.13376620E+03 E0= -.13376252E+03  d E =0.187806E-03
quench:  g(F)=  0.000E+00 g(S)=  0.000E+00 dE (1.order)= 0.000E+00
 bond charge predicted
       N       E                     dE             d eps       ncg     rms          rms(c)
DAV:   1    -0.133765221471E+03    0.97820E-03   -0.29464E-01  4059   0.102E+00    0.130E-01
RMM:   2    -0.133766494311E+03   -0.12728E-02   -0.12206E-02  6466   0.229E-01    0.114E-01
RMM:   3    -0.133766675112E+03   -0.18080E-03   -0.55318E-04  4432   0.584E-02    0.196E-01
RMM:   4    -0.133766243912E+03    0.43120E-03   -0.16451E-04  3903   0.462E-02    0.549E-02
RMM:   5    -0.133766242178E+03    0.17342E-05   -0.67994E-05  3343   0.358E-02
 476 F= -.13376624E+03 E0= -.13376256E+03  d E =-.391382E-04
quench:  g(F)=  0.000E+00 g(S)=  0.000E+00 dE (1.order)= 0.000E+00
 bond charge predicted
       N       E                     dE             d eps       ncg     rms          rms(c)
DAV:   1    -0.133765352235E+03    0.89168E-03   -0.34720E-01  4032   0.110E+00    0.138E-01
RMM:   2    -0.133766763568E+03   -0.14113E-02   -0.14619E-02  6342   0.255E-01    0.718E-02
RMM:   3    -0.133766583129E+03    0.18044E-03   -0.51214E-04  4277   0.749E-02    0.598E-02
RMM:   4    -0.133766562782E+03    0.20347E-04   -0.15005E-04  3729   0.532E-02    0.438E-02
RMM:   5    -0.133766599158E+03   -0.36376E-04   -0.75838E-05  3261   0.351E-02    0.720E-02
RMM:   6    -0.133766547628E+03    0.51530E-04   -0.32007E-05  2587   0.183E-02    0.289E-02
RMM:   7    -0.133766540528E+03    0.70996E-05   -0.22231E-05  2355   0.230E-02
 477 F= -.13376654E+03 E0= -.13376288E+03  d E =-.298351E-03
quench:  g(F)=  0.000E+00 g(S)=  0.000E+00 dE (1.order)= 0.000E+00
 bond charge predicted
       N       E                     dE             d eps       ncg     rms          rms(c)
DAV:   1    -0.133765764046E+03    0.78358E-03   -0.40909E-01  4032   0.117E+00    0.150E-01
RMM:   2    -0.133767446106E+03   -0.16821E-02   -0.16641E-02  6328   0.258E-01    0.123E-01
RMM:   3    -0.133767790947E+03   -0.34484E-03   -0.85688E-04  4282   0.891E-02    0.239E-01
RMM:   4    -0.133767089897E+03    0.70105E-03   -0.20746E-04  4023   0.509E-02    0.527E-02
RMM:   5    -0.133767097643E+03   -0.77458E-05   -0.49289E-05  2661   0.244E-02
 478 F= -.13376710E+03 E0= -.13376343E+03  d E =-.557114E-03
quench:  g(F)=  0.000E+00 g(S)=  0.000E+00 dE (1.order)= 0.000E+00
 bond charge predicted
       N       E                     dE             d eps       ncg     rms          rms(c)
DAV:   1    -0.133766156876E+03    0.93302E-03   -0.45359E-01  4032   0.125E+00    0.153E-01
RMM:   2    -0.133768066487E+03   -0.19096E-02   -0.18559E-02  6503   0.277E-01    0.110E-01
RMM:   3    -0.133768593904E+03   -0.52742E-03   -0.92630E-04  4439   0.773E-02    0.240E-01
RMM:   4    -0.133767710553E+03    0.88335E-03   -0.24615E-04  4069   0.581E-02    0.621E-02
RMM:   5    -0.133767732388E+03   -0.21835E-04   -0.13614E-04  3853   0.479E-02    0.485E-02
RMM:   6    -0.133767694519E+03    0.37869E-04   -0.98455E-05  3526   0.406E-02    0.252E-02
RMM:   7    -0.133767689243E+03    0.52768E-05   -0.30787E-05  2536   0.260E-02
 479 F= -.13376769E+03 E0= -.13376405E+03  d E =-.591600E-03
quench:  g(F)=  0.000E+00 g(S)=  0.000E+00 dE (1.order)= 0.000E+00
 bond charge predicted
       N       E                     dE             d eps       ncg     rms          rms(c)
DAV:   1    -0.133766856612E+03    0.83791E-03   -0.35021E-01  4086   0.104E+00    0.159E-01
RMM:   2    -0.133769318261E+03   -0.24616E-02   -0.18879E-02  5861   0.249E-01    0.287E-01
RMM:   3    -0.133768436515E+03    0.88175E-03   -0.11477E-03  4342   0.925E-02    0.177E-01
RMM:   4    -0.133768062698E+03    0.37382E-03   -0.34666E-04  4239   0.527E-02    0.733E-02
RMM:   5    -0.133768016951E+03    0.45747E-04   -0.91948E-05  3487   0.362E-02    0.421E-02
RMM:   6    -0.133768012614E+03    0.43371E-05   -0.98012E-05  3837   0.424E-02
 480 F= -.13376801E+03 E0= -.13376439E+03  d E =-.323371E-03
quench:  g(F)=  0.000E+00 g(S)=  0.000E+00 dE (1.order)= 0.000E+00
 bond charge predicted
       N       E                     dE             d eps       ncg     rms          rms(c)
DAV:   1    -0.133768153051E+03   -0.13610E-03   -0.79342E-02  4626   0.534E-01    0.762E-02
RMM:   2    -0.133768852535E+03   -0.69948E-03   -0.49616E-03  5779   0.132E-01    0.169E-01
RMM:   3    -0.133768525011E+03    0.32752E-03   -0.25227E-04  4111   0.420E-02    0.631E-02
RMM:   4    -0.133768504526E+03    0.20484E-04   -0.10713E-04  3298   0.282E-02    0.480E-02
RMM:   5    -0.133768481923E+03    0.22604E-04   -0.53708E-05  3260   0.324E-02    0.305E-02
RMM:   6    -0.133768473186E+03    0.87368E-05   -0.35805E-05  2652   0.273E-02
 481 F= -.13376847E+03 E0= -.13376485E+03  d E =-.460572E-03
quench:  g(F)=  0.000E+00 g(S)=  0.000E+00 dE (1.order)= 0.000E+00
 bond charge predicted
       N       E                     dE             d eps       ncg     rms          rms(c)
DAV:   1    -0.133768237364E+03    0.24456E-03   -0.52384E-02  4212   0.424E-01    0.557E-02
RMM:   2    -0.133768466285E+03   -0.22892E-03   -0.23694E-03  6092   0.988E-02    0.344E-02
RMM:   3    -0.133768443642E+03    0.22642E-04   -0.88085E-05  3281   0.292E-02    0.439E-02
RMM:   4    -0.133768432703E+03    0.10939E-04   -0.20105E-05  2373   0.201E-02    0.289E-02
RMM:   5    -0.133768424500E+03    0.82034E-05   -0.64083E-06  2236   0.107E-02
 482 F= -.13376842E+03 E0= -.13376480E+03  d E =0.486859E-04
quench:  g(F)=  0.000E+00 g(S)=  0.000E+00 dE (1.order)= 0.000E+00
 bond charge predicted
       N       E                     dE             d eps       ncg     rms          rms(c)
DAV:   1    -0.133767904746E+03    0.52796E-03   -0.79876E-02  4176   0.516E-01    0.665E-02
RMM:   2    -0.133768218982E+03   -0.31424E-03   -0.31647E-03  6397   0.113E-01    0.415E-02
RMM:   3    -0.133768216541E+03    0.24416E-05   -0.11221E-04  3338   0.295E-02    0.688E-02
RMM:   4    -0.133768180072E+03    0.36468E-04   -0.29473E-05  2500   0.231E-02    0.314E-02
RMM:   5    -0.133768175730E+03    0.43422E-05   -0.15665E-05  2380   0.180E-02
 483 F= -.13376818E+03 E0= -.13376454E+03  d E =0.248770E-03
quench:  g(F)=  0.000E+00 g(S)=  0.000E+00 dE (1.order)= 0.000E+00
 bond charge predicted
       N       E                     dE             d eps       ncg     rms          rms(c)
DAV:   1    -0.133767462235E+03    0.71784E-03   -0.11415E-01  4095   0.625E-01    0.795E-02
RMM:   2    -0.133767931577E+03   -0.46934E-03   -0.46247E-03  6360   0.139E-01    0.603E-02
RMM:   3    -0.133768016725E+03   -0.85148E-04   -0.21500E-04  3930   0.461E-02    0.119E-01
RMM:   4    -0.133767847432E+03    0.16929E-03   -0.51269E-05  2870   0.276E-02    0.298E-02
RMM:   5    -0.133767854862E+03   -0.74301E-05   -0.26873E-05  2489   0.235E-02
 484 F= -.13376785E+03 E0= -.13376422E+03  d E =0.320868E-03
quench:  g(F)=  0.000E+00 g(S)=  0.000E+00 dE (1.order)= 0.000E+00
 bond charge predicted
       N       E                     dE             d eps       ncg     rms          rms(c)
DAV:   1    -0.133767051192E+03    0.79624E-03   -0.15309E-01  4176   0.723E-01    0.932E-02
RMM:   2    -0.133767720744E+03   -0.66955E-03   -0.63174E-03  6383   0.162E-01    0.869E-02
RMM:   3    -0.133767833513E+03   -0.11277E-03   -0.31043E-04  4211   0.504E-02    0.145E-01
RMM:   4    -0.133767565807E+03    0.26771E-03   -0.78088E-05  3243   0.326E-02    0.326E-02
RMM:   5    -0.133767572019E+03   -0.62119E-05   -0.23637E-05  2483   0.190E-02
 485 F= -.13376757E+03 E0= -.13376395E+03  d E =0.282843E-03
quench:  g(F)=  0.000E+00 g(S)=  0.000E+00 dE (1.order)= 0.000E+00
 bond charge predicted
       N       E                     dE             d eps       ncg     rms          rms(c)
DAV:   1    -0.133766696007E+03    0.86980E-03   -0.19959E-01  4041   0.822E-01    0.105E-01
RMM:   2    -0.133767493561E+03   -0.79755E-03   -0.80923E-03  6435   0.187E-01    0.642E-02
RMM:   3    -0.133767490244E+03    0.33169E-05   -0.34763E-04  4083   0.607E-02    0.109E-01
RMM:   4    -0.133767402658E+03    0.87586E-04   -0.82345E-05  3297   0.342E-02    0.497E-02
RMM:   5    -0.133767386432E+03    0.16226E-04   -0.40247E-05  2734   0.264E-02    0.346E-02
RMM:   6    -0.133767368413E+03    0.18020E-04   -0.44032E-05  2936   0.313E-02    0.179E-02
RMM:   7    -0.133767364850E+03    0.35631E-05   -0.17028E-05  2292   0.198E-02
 486 F= -.13376736E+03 E0= -.13376375E+03  d E =0.207169E-03
quench:  g(F)=  0.000E+00 g(S)=  0.000E+00 dE (1.order)= 0.000E+00
 bond charge predicted
       N       E                     dE             d eps       ncg     rms          rms(c)
DAV:   1    -0.133766480524E+03    0.88789E-03   -0.25081E-01  4032   0.897E-01    0.117E-01
RMM:   2    -0.133767446219E+03   -0.96569E-03   -0.97459E-03  6380   0.188E-01    0.835E-02
RMM:   3    -0.133767642318E+03   -0.19610E-03   -0.51616E-04  4188   0.733E-02    0.173E-01
RMM:   4    -0.133767273325E+03    0.36899E-03   -0.11411E-04  3559   0.398E-02    0.413E-02
RMM:   5    -0.133767276308E+03   -0.29831E-05   -0.37668E-05  2626   0.253E-02
 487 F= -.13376728E+03 E0= -.13376366E+03  d E =0.885416E-04
quench:  g(F)=  0.000E+00 g(S)=  0.000E+00 dE (1.order)= 0.000E+00
 bond charge predicted
       N       E                     dE             d eps       ncg     rms          rms(c)
DAV:   1    -0.133766164224E+03    0.11091E-02   -0.30747E-01  4032   0.102E+00    0.129E-01
RMM:   2    -0.133767362646E+03   -0.11984E-02   -0.12079E-02  6580   0.222E-01    0.752E-02
RMM:   3    -0.133767514249E+03   -0.15160E-03   -0.44565E-04  4319   0.580E-02    0.170E-01
RMM:   4    -0.133767194148E+03    0.32010E-03   -0.11650E-04  3590   0.379E-02    0.445E-02
RMM:   5    -0.133767212843E+03   -0.18695E-04   -0.63433E-05  2978   0.287E-02    0.396E-02
RMM:   6    -0.133767182752E+03    0.30091E-04   -0.59840E-05  3365   0.338E-02    0.196E-02
RMM:   7    -0.133767178075E+03    0.46777E-05   -0.18140E-05  2271   0.209E-02
 488 F= -.13376718E+03 E0= -.13376357E+03  d E =0.982336E-04
quench:  g(F)=  0.000E+00 g(S)=  0.000E+00 dE (1.order)= 0.000E+00
 bond charge predicted
       N       E                     dE             d eps       ncg     rms          rms(c)
DAV:   1    -0.133766028614E+03    0.11541E-02   -0.35252E-01  4032   0.106E+00    0.140E-01
RMM:   2    -0.133767398824E+03   -0.13702E-02   -0.14297E-02  6414   0.224E-01    0.913E-02
RMM:   3    -0.133767453314E+03   -0.54489E-04   -0.60871E-04  4317   0.663E-02    0.153E-01
RMM:   4    -0.133767186440E+03    0.26687E-03   -0.14122E-04  3709   0.398E-02    0.595E-02
RMM:   5    -0.133767163547E+03    0.22894E-04   -0.43612E-05  2697   0.268E-02    0.319E-02
RMM:   6    -0.133767166664E+03   -0.31179E-05   -0.79545E-05  3531   0.413E-02
 489 F= -.13376717E+03 E0= -.13376357E+03  d E =0.114103E-04
quench:  g(F)=  0.000E+00 g(S)=  0.000E+00 dE (1.order)= 0.000E+00
 bond charge predicted
       N       E                     dE             d eps       ncg     rms          rms(c)
DAV:   1    -0.133765752211E+03    0.14113E-02   -0.38734E-01  4032   0.113E+00    0.143E-01
RMM:   2    -0.133767270119E+03   -0.15179E-02   -0.15550E-02  6325   0.257E-01    0.847E-02
RMM:   3    -0.133767435559E+03   -0.16544E-03   -0.89017E-04  4242   0.924E-02    0.165E-01
RMM:   4    -0.133767109761E+03    0.32580E-03   -0.21680E-04  3931   0.507E-02    0.656E-02
RMM:   5    -0.133767091654E+03    0.18107E-04   -0.14216E-04  3827   0.477E-02    0.437E-02
RMM:   6    -0.133767074695E+03    0.16958E-04   -0.81081E-05  3401   0.379E-02    0.282E-02
RMM:   7    -0.133767058158E+03    0.16538E-04   -0.19914E-05  2455   0.178E-02    0.981E-03
RMM:   8    -0.133767059217E+03   -0.10589E-05   -0.10995E-05  2192   0.152E-02
 490 F= -.13376706E+03 E0= -.13376347E+03  d E =0.107448E-03
quench:  g(F)=  0.000E+00 g(S)=  0.000E+00 dE (1.order)= 0.000E+00
 bond charge predicted
       N       E                     dE             d eps       ncg     rms          rms(c)
DAV:   1    -0.133765964689E+03    0.10935E-02   -0.26606E-01  4050   0.871E-01    0.137E-01
RMM:   2    -0.133767618511E+03   -0.16538E-02   -0.14786E-02  5757   0.207E-01    0.202E-01
RMM:   3    -0.133767258664E+03    0.35985E-03   -0.86345E-04  4408   0.763E-02    0.178E-01
RMM:   4    -0.133766875540E+03    0.38312E-03   -0.25842E-04  3997   0.457E-02    0.610E-02
RMM:   5    -0.133766849274E+03    0.26267E-04   -0.59176E-05  2924   0.283E-02    0.328E-02
RMM:   6    -0.133766857217E+03   -0.79435E-05   -0.82474E-05  3692   0.403E-02
 491 F= -.13376686E+03 E0= -.13376328E+03  d E =0.202000E-03
quench:  g(F)=  0.000E+00 g(S)=  0.000E+00 dE (1.order)= 0.000E+00
 bond charge predicted
       N       E                     dE             d eps       ncg     rms          rms(c)
DAV:   1    -0.133766456990E+03    0.39228E-03   -0.11094E-01  4464   0.621E-01    0.810E-02
RMM:   2    -0.133767082250E+03   -0.62526E-03   -0.58174E-03  5985   0.149E-01    0.106E-01
RMM:   3    -0.133767015167E+03    0.67083E-04   -0.27890E-04  4132   0.441E-02    0.890E-02
RMM:   4    -0.133766921308E+03    0.93859E-04   -0.10839E-04  3394   0.293E-02    0.479E-02
RMM:   5    -0.133766891903E+03    0.29405E-04   -0.30872E-05  2503   0.232E-02    0.228E-02
RMM:   6    -0.133766888676E+03    0.32269E-05   -0.41685E-05  2811   0.279E-02
 492 F= -.13376689E+03 E0= -.13376331E+03  d E =-.314588E-04
quench:  g(F)=  0.000E+00 g(S)=  0.000E+00 dE (1.order)= 0.000E+00
 bond charge predicted
       N       E                     dE             d eps       ncg     rms          rms(c)
DAV:   1    -0.133766256009E+03    0.63589E-03   -0.84623E-02  4167   0.518E-01    0.726E-02
RMM:   2    -0.133766663852E+03   -0.40784E-03   -0.39730E-03  5892   0.124E-01    0.731E-02
RMM:   3    -0.133766675422E+03   -0.11570E-04   -0.21732E-04  3926   0.465E-02    0.103E-01
RMM:   4    -0.133766544946E+03    0.13048E-03   -0.49737E-05  2813   0.251E-02    0.292E-02
RMM:   5    -0.133766543349E+03    0.15977E-05   -0.16974E-05  2341   0.191E-02
 493 F= -.13376654E+03 E0= -.13376295E+03  d E =0.345327E-03
quench:  g(F)=  0.000E+00 g(S)=  0.000E+00 dE (1.order)= 0.000E+00
 bond charge predicted
       N       E                     dE             d eps       ncg     rms          rms(c)
DAV:   1    -0.133765571161E+03    0.97379E-03   -0.12265E-01  4203   0.642E-01    0.833E-02
RMM:   2    -0.133766056243E+03   -0.48508E-03   -0.48362E-03  6436   0.141E-01    0.503E-02
RMM:   3    -0.133766031716E+03    0.24527E-04   -0.16709E-04  3678   0.354E-02    0.718E-02
RMM:   4    -0.133766004773E+03    0.26944E-04   -0.43289E-05  2702   0.261E-02    0.426E-02
RMM:   5    -0.133765992643E+03    0.12129E-04   -0.25064E-05  2468   0.229E-02    0.313E-02
RMM:   6    -0.133765976654E+03    0.15990E-04   -0.28571E-05  2443   0.256E-02    0.137E-02
RMM:   7    -0.133765974529E+03    0.21244E-05   -0.12494E-05  2194   0.176E-02
