 vasp.5.4.4.18Apr17-6-g9f103f2a35 (build Feb 06 2024 13:54:16) complex          
  
 POSCAR found type information on POSCAR  Cu Ru Cu N  O 
 05/POSCAR found :  5 types and      40 ions
 scaLAPACK will be used

 ----------------------------------------------------------------------------- 
|                                                                             |
|  ADVICE TO THIS USER RUNNING 'VASP/VAMP'   (HEAR YOUR MASTER'S VOICE ...):  |
|                                                                             |
|      You enforced a specific xc-type in the INCAR file,                     |
|      a different type was found on the POTCAR file                          |
|          I HOPE YOU KNOW, WHAT YOU ARE  DOING                               |
|                                                                             |
 ----------------------------------------------------------------------------- 

 LDA part: xc-table for Pade appr. of Perdew
 POSCAR found type information on POSCAR  Cu Ru Cu N  O 
 00/POSCAR found :  5 types and      40 ions
 POSCAR found type information on POSCAR  Cu Ru Cu N  O 
 06/POSCAR found :  5 types and      40 ions
 Jacobian:    19.9537150754471     
 POSCAR, INCAR and KPOINTS ok, starting setup
 FFT: planning ...
 WAVECAR not read
 entering main loop
       N       E                     dE             d eps       ncg     rms          rms(c)
  Solvation turned off during non-self-consistent phase (first NELMDL steps)
DAV:   1     0.450805128733E+04    0.45081E+04   -0.18237E+05 12240   0.211E+03
DAV:   2     0.687384617878E+03   -0.38207E+04   -0.36851E+04 12330   0.491E+02
DAV:   3    -0.285796612217E+02   -0.71596E+03   -0.66152E+03 13941   0.245E+02
DAV:   4    -0.155170387980E+03   -0.12659E+03   -0.11225E+03 20961   0.983E+01
DAV:   5    -0.169137682427E+03   -0.13967E+02   -0.13372E+02 18909   0.323E+01    0.475E+01
 Begin Solvation calculations
  rms_SCF =    9.87032287375982      tol =   0.987032287375982     
 Begin minimization
 Creating dielectric and ionic cavities
  area:      143.940402285707     
  volume:    643.915563292982     
  Acav:     7.556871119999622E-002
  Solving linear dielectric/ionic screening model
        iter                  A_solv                     rms
   LPB:       -0.403365891388878E+03   0.291180414151624E+03
   LPB:    0  -0.155729381152117E+02   0.660944963821240E+02  -0.519822E+01   0.000000E+00   0.287025E+02  -0.149202E+03
   LPB:    1  -0.224876541208431E+01   0.763341213708890E+01   0.942059E-02   0.000000E+00   0.676215E+02   0.211798E-14
   LPB:    2  -0.712913886957494E+00   0.118194798751727E+01   0.141079E-01   0.769708E-01   0.264947E+03   0.109118E-13
   LPB:    3  -0.460717260790716E+00   0.154860769247342E+01   0.250014E-01   0.926587E-01   0.516467E+03  -0.105501E-14
   LPB:    4  -0.384384552057043E+00   0.109394336106718E+01   0.236535E-01   0.319919E+00   0.674550E+02  -0.301031E-14
   LPB:    5  -0.343487327717639E+00   0.618282436535382E+00   0.236556E-01   0.535730E+00   0.416590E+03  -0.229237E-13
  Finished solving LPB equations
  A_corr:   -0.267918616517643     
 End minimization
 Ecorr=   2060.39182465549     
 A_corr= -0.267918616517643     
 Ecorr_band=  -2060.65974327201     
 End Solvation calculations
RMM:   6    -0.183459666237E+03   -0.14322E+02   -0.39470E+02 12449   0.988E+01    0.431E+01
 Begin Solvation calculations
  rms_SCF =    9.87032287375982      tol =   0.987032287375982     
 Begin minimization
 Creating dielectric and ionic cavities
  area:      171.518689734997     
  volume:    659.262992707192     
  Acav:     9.004731211087336E-002
  Solving linear dielectric/ionic screening model
        iter                  A_solv                     rms
   LPB:       -0.462022319018973E+02   0.130988262596840E+03
   LPB:    0  -0.446582424096621E+02   0.129023634672082E+03   0.332193E+00   0.000000E+00   0.279830E+02   0.929575E+01
   LPB:    1  -0.400622326443609E+01   0.116962291936102E+02   0.886150E-02   0.000000E+00   0.621116E+02   0.657989E-15
   LPB:    2  -0.862079967983824E+00   0.237773600904344E+01   0.151315E-01   0.452944E-01   0.133679E+03  -0.260976E-13
   LPB:    3  -0.464634011974859E+00   0.116018641667718E+01   0.228257E-01   0.837984E-01   0.149938E+03  -0.313328E-13
   LPB:    4  -0.362084141999063E+00   0.114913285880621E+01   0.239783E-01   0.245619E+00   0.263853E+03  -0.195352E-13
   LPB:    5  -0.319211631936696E+00   0.631193910421151E+00   0.232195E-01   0.431727E+00   0.104987E+03  -0.105122E-13
  Finished solving LPB equations
  A_corr:   -0.229164319825823     
 End minimization
 Ecorr=   1944.11994752129     
 A_corr= -0.229164319825823     
 Ecorr_band=  -1944.34911184112     
 End Solvation calculations
RMM:   7    -0.170513850684E+03    0.12946E+02   -0.12330E+02 12721   0.498E+01    0.338E+01
 Begin Solvation calculations
  rms_SCF =    9.87032287375982      tol =   0.987032287375982     
 Begin minimization
 Creating dielectric and ionic cavities
  area:      191.040649371970     
  volume:    659.177671276309     
  Acav:     0.100296340920284     
  Solving linear dielectric/ionic screening model
        iter                  A_solv                     rms
   LPB:       -0.163407710004264E+02   0.780711298539290E+02
   LPB:    0  -0.163400249166982E+02   0.780707751596729E+02   0.730181E-02   0.000000E+00   0.279870E+02   0.204356E+00
   LPB:    1  -0.153846913879781E+01   0.719218774686975E+01   0.885781E-02   0.000000E+00   0.619023E+02  -0.711437E-17
   LPB:    2  -0.352680790385421E+00   0.107252838762576E+01   0.153991E-01   0.460821E-01   0.127960E+03  -0.107494E-14
   LPB:    3  -0.202384008153615E+00   0.412012722079211E+00   0.223940E-01   0.871574E-01   0.282072E+03  -0.140908E-15
   LPB:    4  -0.172481993672644E+00   0.203447342714018E+00   0.250195E-01   0.178076E+00   0.341681E+03  -0.843490E-15
  Finished solving LPB equations
  A_corr:   -7.218565275235973E-002
 End minimization
 Ecorr=   1931.94336646384     
 A_corr= -7.218565275235973E-002
 Ecorr_band=  -1932.01555211660     
 End Solvation calculations
RMM:   8    -0.145851103508E+03    0.24663E+02   -0.10785E+01 12536   0.142E+01    0.197E+01
 Begin Solvation calculations
  rms_SCF =    5.04594960714447      tol =   0.504594960714447     
 Begin minimization
 Creating dielectric and ionic cavities
  area:      155.779003020072     
  volume:    657.729433046445     
  Acav:     8.178397658553756E-002
  Solving linear dielectric/ionic screening model
        iter                  A_solv                     rms
   LPB:       -0.742566081782277E+00   0.143681045848047E+02
   LPB:    0  -0.702477923396964E+00   0.135778149792328E+02  -0.534587E-01   0.000000E+00   0.280549E+02  -0.149978E+01
   LPB:    1  -0.236055627650176E+00   0.149299940862132E+01   0.898233E-02   0.000000E+00   0.608035E+02  -0.327848E-16
   LPB:    2  -0.180106391377915E+00   0.334379610640633E+00   0.179589E-01   0.599964E-01   0.879358E+02   0.523371E-14
   LPB:    3  -0.169195109669379E+00   0.356615043985141E+00   0.221625E-01   0.158031E+00   0.302520E+03   0.936396E-14
   LPB:    4  -0.164041644932943E+00   0.275256930081504E+00   0.300505E-01   0.348329E+00   0.438552E+02   0.101345E-13
  Finished solving LPB equations
  A_corr:   -8.225766834740571E-002
 End minimization
 Ecorr=   1912.47375780679     
 A_corr= -8.225766834740571E-002
 Ecorr_band=  -1912.55601547514     
 End Solvation calculations
RMM:   9    -0.140475726013E+03    0.53754E+01   -0.66341E+00 12572   0.109E+01    0.693E+00
 Begin Solvation calculations
  rms_SCF =    5.04594960714447      tol =   0.504594960714447     
 Begin minimization
 Creating dielectric and ionic cavities
  area:      146.666839802127     
  volume:    657.666165823656     
  Acav:     7.700009089611658E-002
  Solving linear dielectric/ionic screening model
        iter                  A_solv                     rms
   LPB:       -0.115955353441526E+01   0.181887373607867E+02
   LPB:    0  -0.113760729157584E+01   0.181370705756098E+02   0.395519E-01   0.000000E+00   0.280579E+02   0.110974E+01
   LPB:    1  -0.306189041744161E+00   0.178121134127686E+01   0.906136E-02   0.000000E+00   0.614998E+02  -0.832908E-16
   LPB:    2  -0.223368318500916E+00   0.304081151534248E+00   0.156156E-01   0.578037E-01   0.138833E+03  -0.209457E-14
   LPB:    3  -0.207623314182162E+00   0.181043882694978E+00   0.261540E-01   0.113507E+00   0.247431E+03  -0.870023E-15
   LPB:    4  -0.200659997887193E+00   0.178498378607263E+00   0.342100E-01   0.338110E+00   0.135834E+03  -0.641936E-15
  Finished solving LPB equations
  A_corr:   -0.123659906991077     
 End minimization
 Ecorr=   1874.06156564762     
 A_corr= -0.123659906991077     
 Ecorr_band=  -1874.18522555461     
 End Solvation calculations
RMM:  10    -0.139784876742E+03    0.69085E+00   -0.24474E+00 12607   0.488E+00    0.714E+00
 Begin Solvation calculations
  rms_SCF =    3.87270898104818      tol =   0.387270898104818     
 Begin minimization
 Creating dielectric and ionic cavities
  area:      140.860575564098     
  volume:    654.883646166243     
  Acav:     7.395180217115140E-002
  Solving linear dielectric/ionic screening model
        iter                  A_solv                     rms
   LPB:       -0.313388313260093E+00   0.343704923260067E+01
   LPB:    0  -0.308842744907185E+00   0.285445465584314E+01  -0.179587E-01   0.000000E+00   0.281883E+02  -0.506225E+00
   LPB:    1  -0.241245075946341E+00   0.114754310444242E+01   0.133453E-01   0.000000E+00   0.771928E+02  -0.311723E-16
   LPB:    2  -0.230261298643697E+00   0.288542481390766E+00   0.138273E-01   0.156823E+00   0.131364E+03  -0.882863E-14
   LPB:    3  -0.223777157732789E+00   0.297749544890715E+00   0.307126E-01   0.265780E+00   0.134584E+03  -0.101373E-13
   LPB:    4  -0.219513478092455E+00   0.365357676517111E+00   0.297868E-01   0.677992E+00   0.387730E+02  -0.109439E-13
  Finished solving LPB equations
  A_corr:   -0.145561675921304     
 End minimization
 Ecorr=   1849.69653085384     
 A_corr= -0.145561675921304     
 Ecorr_band=  -1849.84209252976     
 End Solvation calculations
RMM:  11    -0.139351571271E+03    0.43331E+00   -0.75737E-01 12562   0.297E+00    0.320E+00
 Begin Solvation calculations
  rms_SCF =   0.685950490805466      tol =   6.859504908054663E-002
 Begin minimization
 Creating dielectric and ionic cavities
  area:      131.994734252407     
  volume:    651.846174318260     
  Acav:     6.929723548251362E-002
  Solving linear dielectric/ionic screening model
        iter                  A_solv                     rms
   LPB:       -0.312345022956825E+00   0.172453767846812E+01
   LPB:    0  -0.312182433208247E+00   0.159854432499336E+01  -0.338792E-02   0.000000E+00   0.283307E+02  -0.959822E-01
   LPB:    1  -0.263820016400882E+00   0.872880052952568E+00   0.161325E-01   0.000000E+00   0.105990E+03   0.173849E-18
   LPB:    2  -0.256963407428737E+00   0.475171013675677E+00   0.166745E-01   0.137168E+00   0.767307E+02   0.752411E-15
   LPB:    3  -0.251820465400355E+00   0.210290753116113E+00   0.244165E-01   0.512236E+00   0.106072E+03   0.103822E-14
   LPB:    4  -0.247181382673229E+00   0.250800658871089E+00   0.369994E-01   0.595264E+00   0.469136E+02   0.157762E-14
   LPB:    5  -0.244033653072239E+00   0.284952921079308E+00   0.278578E-01   0.901185E+00   0.185697E+03   0.261929E-14
   LPB:    6  -0.241746738799952E+00   0.131284734619856E+00   0.276648E-01   0.731595E+00   0.388898E+02   0.382065E-14
   LPB:    7  -0.240235793749313E+00   0.576815791511781E-01   0.316326E-01   0.577819E+00   0.158659E+03   0.339683E-14
  Finished solving LPB equations
  A_corr:   -0.170938558266800     
 End minimization
 Ecorr=   1811.02015135152     
 A_corr= -0.170938558266800     
 Ecorr_band=  -1811.19108990979     
 End Solvation calculations
RMM:  12    -0.139251206249E+03    0.10037E+00   -0.34045E-01 12639   0.253E+00    0.216E+00
 Begin Solvation calculations
  rms_SCF =   0.291931107705705      tol =   2.919311077057049E-002
 Begin minimization
 Creating dielectric and ionic cavities
  area:      128.115885497720     
  volume:    649.785912220409     
  Acav:     6.726083988630291E-002
  Solving linear dielectric/ionic screening model
        iter                  A_solv                     rms
   LPB:       -0.292217823994344E+00   0.166197418806746E+01
   LPB:    0  -0.292210276237501E+00   0.164233020758139E+01  -0.728712E-03   0.000000E+00   0.284273E+02  -0.207153E-01
   LPB:    1  -0.267731324343205E+00   0.785817514775823E+00   0.131574E-01   0.000000E+00   0.881891E+02  -0.140063E-17
   LPB:    2  -0.263381614217644E+00   0.153498632713415E+00   0.136774E-01   0.170936E+00   0.114973E+03   0.287960E-14
   LPB:    3  -0.261900691769543E+00   0.109878694551558E+00   0.225929E-01   0.206112E+00   0.229454E+03   0.340637E-14
   LPB:    4  -0.261328395370007E+00   0.120063245881665E+00   0.272841E-01   0.320000E+00   0.685396E+02   0.366505E-14
   LPB:    5  -0.260648594014311E+00   0.125277995802774E+00   0.354290E-01   0.914771E+00   0.203161E+03   0.354942E-14
   LPB:    6  -0.259719147623464E+00   0.589465378155071E-01   0.449305E-01   0.107810E+01   0.314336E+02   0.322461E-14
   LPB:    7  -0.258998079678075E+00   0.302684367814710E-01   0.351744E-01   0.990982E+00   0.621833E+02   0.263876E-14
   LPB:    8  -0.258663644534137E+00   0.178353637728361E-01   0.300109E-01   0.543605E+00   0.107393E+03   0.236700E-14
  Finished solving LPB equations
  A_corr:   -0.191402804647834     
 End minimization
 Ecorr=   1788.46597956369     
 A_corr= -0.191402804647834     
 Ecorr_band=  -1788.65738236833     
 End Solvation calculations
RMM:  13    -0.139233378866E+03    0.17827E-01   -0.21626E-01 12535   0.217E+00    0.172E+00
 Begin Solvation calculations
  rms_SCF =   0.291931107705705      tol =   2.919311077057049E-002
 Begin minimization
 Creating dielectric and ionic cavities
  area:      126.938781237943     
  volume:    647.138250437744     
  Acav:     6.664286014991988E-002
  Solving linear dielectric/ionic screening model
        iter                  A_solv                     rms
   LPB:       -0.342409781598516E+00   0.215674553545082E+01
   LPB:    0  -0.341969526511113E+00   0.198056480912485E+01  -0.555332E-02   0.000000E+00   0.285515E+02  -0.158555E+00
   LPB:    1  -0.299578468471989E+00   0.103471065131193E+01   0.135960E-01   0.000000E+00   0.955365E+02   0.531158E-17
   LPB:    2  -0.292794906776879E+00   0.207492046977002E+00   0.132889E-01   0.163722E+00   0.102913E+03  -0.371115E-15
   LPB:    3  -0.290652263176487E+00   0.130354054045987E+00   0.210452E-01   0.199448E+00   0.226218E+03  -0.498568E-15
   LPB:    4  -0.289970125398132E+00   0.111057057542504E+00   0.230604E-01   0.290541E+00   0.851948E+02  -0.558080E-15
   LPB:    5  -0.289564539800574E+00   0.865226602169784E-01   0.253971E-01   0.539874E+00   0.265762E+03  -0.752645E-15
   LPB:    6  -0.289244138270586E+00   0.314262649798005E-01   0.346108E-01   0.579676E+00   0.596839E+02   0.572690E-15
   LPB:    7  -0.288990644526402E+00   0.209360915628055E-01   0.378464E-01   0.723536E+00   0.108723E+03   0.219861E-14
  Finished solving LPB equations
  A_corr:   -0.222347784376482     
 End minimization
 Ecorr=   1771.52899859000     
 A_corr= -0.222347784376482     
 Ecorr_band=  -1771.75134637438     
 End Solvation calculations
RMM:  14    -0.139223235670E+03    0.10143E-01   -0.74099E-02 12551   0.113E+00    0.141E+00
 Begin Solvation calculations
  rms_SCF =   0.291931107705705      tol =   2.919311077057049E-002
 Begin minimization
 Creating dielectric and ionic cavities
  area:      127.102167127424     
  volume:    646.076759358369     
  Acav:     6.672863774189756E-002
  Solving linear dielectric/ionic screening model
        iter                  A_solv                     rms
   LPB:       -0.318059166600979E+00   0.651768163328865E+00
   LPB:    0  -0.318029279893391E+00   0.707910044419453E+00   0.144565E-02   0.000000E+00   0.286012E+02   0.413472E-01
   LPB:    1  -0.305966212723286E+00   0.313753361203318E+00   0.173817E-01   0.000000E+00   0.112762E+03  -0.219662E-17
   LPB:    2  -0.304481912127488E+00   0.162282512078958E+00   0.172173E-01   0.124220E+00   0.996845E+02   0.199403E-14
   LPB:    3  -0.303997535206393E+00   0.716583516721561E-01   0.194947E-01   0.288210E+00   0.100983E+03   0.213377E-14
   LPB:    4  -0.303713106027306E+00   0.953956861904736E-01   0.275439E-01   0.415606E+00   0.110811E+03   0.280207E-14
   LPB:    5  -0.303470675273850E+00   0.107555964431595E+00   0.258414E-01   0.908495E+00   0.145725E+03   0.319312E-14
   LPB:    6  -0.303187273961712E+00   0.448608268153165E-01   0.330265E-01   0.914677E+00   0.364549E+02   0.376669E-14
   LPB:    7  -0.302964557429286E+00   0.176859918066374E-01   0.363025E-01   0.714951E+00   0.104775E+03   0.479060E-14
  Finished solving LPB equations
  A_corr:   -0.236235919687388     
 End minimization
 Ecorr=   1758.44731778591     
 A_corr= -0.236235919687388     
 Ecorr_band=  -1758.68355370560     
 End Solvation calculations
RMM:  15    -0.139206623816E+03    0.16612E-01   -0.23298E-02 12955   0.522E-01    0.812E-01
 Begin Solvation calculations
  rms_SCF =   0.291931107705705      tol =   2.919311077057049E-002
 Begin minimization
 Creating dielectric and ionic cavities
  area:      127.419101025837     
  volume:    645.046745564368     
  Acav:     6.689502803856422E-002
  Solving linear dielectric/ionic screening model
        iter                  A_solv                     rms
   LPB:       -0.331230015345731E+00   0.913549117352632E+00
   LPB:    0  -0.331074417302245E+00   0.769972066701249E+00  -0.329578E-02   0.000000E+00   0.286495E+02  -0.944225E-01
   LPB:    1  -0.320314663576933E+00   0.460696553635530E+00   0.158567E-01   0.000000E+00   0.996918E+02   0.195130E-17
   LPB:    2  -0.318743730822591E+00   0.138749118985893E+00   0.142107E-01   0.162912E+00   0.805494E+02  -0.142951E-14
   LPB:    3  -0.318279589493110E+00   0.823677134396324E-01   0.188221E-01   0.223069E+00   0.222222E+03  -0.208887E-14
   LPB:    4  -0.318088938805574E+00   0.688943022352144E-01   0.221897E-01   0.348421E+00   0.749766E+02  -0.208267E-14
   LPB:    5  -0.317918069837939E+00   0.588269784480561E-01   0.300532E-01   0.661739E+00   0.207553E+03  -0.210672E-14
   LPB:    6  -0.317724508385303E+00   0.256111613871830E-01   0.412507E-01   0.825304E+00   0.431711E+02  -0.188258E-14
  Finished solving LPB equations
  A_corr:   -0.250829480346738     
 End minimization
 Ecorr=   1749.27750381930     
 A_corr= -0.250829480346738     
 Ecorr_band=  -1749.52833329965     
 End Solvation calculations
RMM:  16    -0.139201925915E+03    0.46979E-02   -0.13991E-02 12612   0.428E-01    0.383E-01
 Begin Solvation calculations
  rms_SCF =   0.291931107705705      tol =   2.919311077057049E-002
 Begin minimization
 Creating dielectric and ionic cavities
  area:      127.731938951551     
  volume:    644.449390479501     
  Acav:     6.705926794956443E-002
  Solving linear dielectric/ionic screening model
        iter                  A_solv                     rms
   LPB:       -0.336457823612278E+00   0.645975470667468E+00
   LPB:    0  -0.336399355452948E+00   0.562673847591227E+00  -0.201931E-02   0.000000E+00   0.286775E+02  -0.579089E-01
   LPB:    1  -0.330288700139111E+00   0.377332197395444E+00   0.158291E-01   0.000000E+00   0.110563E+03  -0.289595E-17
   LPB:    2  -0.329371410199626E+00   0.107224144522982E+00   0.136931E-01   0.173530E+00   0.707823E+02  -0.358486E-14
   LPB:    3  -0.329098480810737E+00   0.629008945237942E-01   0.192756E-01   0.211366E+00   0.214837E+03  -0.420222E-14
   LPB:    4  -0.328922218536630E+00   0.649823303361378E-01   0.292199E-01   0.426030E+00   0.614756E+02  -0.446506E-14
   LPB:    5  -0.328741640092687E+00   0.620756447079753E-01   0.318109E-01   0.941042E+00   0.151998E+03  -0.466504E-14
   LPB:    6  -0.328555059779768E+00   0.275624648092956E-01   0.350840E-01   0.936841E+00   0.406372E+02  -0.516068E-14
  Finished solving LPB equations
  A_corr:   -0.261495791830203     
 End minimization
 Ecorr=   1741.46173431785     
 A_corr= -0.261495791830203     
 Ecorr_band=  -1741.72323010968     
 End Solvation calculations
RMM:  17    -0.139202523372E+03   -0.59746E-03   -0.53164E-03 13622   0.207E-01    0.259E-01
 Begin Solvation calculations
  rms_SCF =   0.291931107705705      tol =   2.919311077057049E-002
 Begin minimization
 Creating dielectric and ionic cavities
  area:      128.351505358012     
  volume:    643.623830647943     
  Acav:     6.738454031295639E-002
  Solving linear dielectric/ionic screening model
        iter                  A_solv                     rms
   LPB:       -0.368480920641340E+00   0.126181376294755E+01
   LPB:    0  -0.367973936643120E+00   0.101975053399940E+01  -0.594222E-02   0.000000E+00   0.287162E+02  -0.170638E+00
   LPB:    1  -0.350155278892608E+00   0.511594837678873E+00   0.165405E-01   0.000000E+00   0.924419E+02  -0.780344E-17
   LPB:    2  -0.347824864434478E+00   0.180698345737376E+00   0.141781E-01   0.152577E+00   0.820092E+02  -0.691569E-15
   LPB:    3  -0.347177287872975E+00   0.113198145271002E+00   0.193107E-01   0.204023E+00   0.177638E+03  -0.916758E-15
   LPB:    4  -0.346854324298910E+00   0.901633652640483E-01   0.229144E-01   0.420292E+00   0.750930E+02  -0.128553E-14
   LPB:    5  -0.346587000523957E+00   0.700524605939076E-01   0.276733E-01   0.685381E+00   0.195255E+03  -0.105590E-14
   LPB:    6  -0.346328985819089E+00   0.287238096516619E-01   0.352606E-01   0.757491E+00   0.552261E+02  -0.159627E-14
  Finished solving LPB equations
  A_corr:   -0.278944445506133     
 End minimization
 Ecorr=   1731.72347961669     
 A_corr= -0.278944445506133     
 Ecorr_band=  -1732.00242406219     
 End Solvation calculations
RMM:  18    -0.139204981338E+03   -0.24580E-02   -0.41461E-03 12491   0.147E-01    0.192E-01
 Begin Solvation calculations
  rms_SCF =   0.291931107705705      tol =   2.919311077057049E-002
 Begin minimization
 Creating dielectric and ionic cavities
  area:      128.840656529573     
  volume:    643.196896854296     
  Acav:     6.764134467802578E-002
  Solving linear dielectric/ionic screening model
        iter                  A_solv                     rms
   LPB:       -0.371155158283206E+00   0.992126269676363E+00
   LPB:    0  -0.370815095529810E+00   0.808448850286964E+00  -0.486496E-02   0.000000E+00   0.287362E+02  -0.139801E+00
   LPB:    1  -0.360906404756996E+00   0.325493557825748E+00   0.166975E-01   0.000000E+00   0.845157E+02   0.866346E-18
   LPB:    2  -0.359675501621592E+00   0.138253763267595E+00   0.146588E-01   0.141501E+00   0.916474E+02  -0.376726E-14
   LPB:    3  -0.359311873226745E+00   0.938721576547268E-01   0.205177E-01   0.211060E+00   0.130284E+03  -0.393381E-14
   LPB:    4  -0.359067377237400E+00   0.908650537517287E-01   0.268239E-01   0.514305E+00   0.657223E+02  -0.395256E-14
   LPB:    5  -0.358810490808018E+00   0.732058254201148E-01   0.291651E-01   0.966334E+00   0.144500E+03  -0.393992E-14
   LPB:    6  -0.358548956127503E+00   0.310844618313821E-01   0.332681E-01   0.892533E+00   0.496719E+02  -0.440373E-14
   LPB:    7  -0.358373829195287E+00   0.125893380292482E-01   0.358351E-01   0.621644E+00   0.171972E+03  -0.546467E-14
  Finished solving LPB equations
  A_corr:   -0.290732484517261     
 End minimization
 Ecorr=   1723.26644560841     
 A_corr= -0.290732484517261     
 Ecorr_band=  -1723.55717809293     
 End Solvation calculations
RMM:  19    -0.139206275199E+03   -0.12939E-02   -0.18607E-03 12219   0.126E-01    0.176E-01
 Begin Solvation calculations
  rms_SCF =   0.291931107705705      tol =   2.919311077057049E-002
 Begin minimization
 Creating dielectric and ionic cavities
  area:      129.230675330481     
  volume:    642.978429770236     
  Acav:     6.784610454850240E-002
  Solving linear dielectric/ionic screening model
        iter                  A_solv                     rms
   LPB:       -0.379241603391964E+00   0.116533740146737E+01
   LPB:    0  -0.378713835567747E+00   0.978771286556117E+00  -0.605960E-02   0.000000E+00   0.287465E+02  -0.174192E+00
   LPB:    1  -0.369578779394555E+00   0.223914585121925E+00   0.163765E-01   0.000000E+00   0.612662E+02  -0.105178E-16
   LPB:    2  -0.368557472275936E+00   0.115329271581115E+00   0.147378E-01   0.124232E+00   0.203629E+03   0.109916E-14
   LPB:    3  -0.368293650068181E+00   0.576206863111768E-01   0.189532E-01   0.200865E+00   0.975003E+02   0.970095E-15
   LPB:    4  -0.368193407438041E+00   0.681510550381934E-01   0.216167E-01   0.333145E+00   0.146462E+03   0.106042E-14
   LPB:    5  -0.368107890628781E+00   0.464800386613965E-01   0.264760E-01   0.696525E+00   0.858204E+02   0.108471E-14
   LPB:    6  -0.367997647272572E+00   0.197770955429999E-01   0.402471E-01   0.848044E+00   0.612765E+02   0.112533E-14
  Finished solving LPB equations
  A_corr:   -0.300151542724070     
 End minimization
 Ecorr=   1718.51317963286     
 A_corr= -0.300151542724070     
 Ecorr_band=  -1718.81333117558     
 End Solvation calculations
RMM:  20    -0.139207183832E+03   -0.90863E-03   -0.14808E-03 11846   0.822E-02    0.122E-01
 Begin Solvation calculations
  rms_SCF =   0.275157996747519      tol =   2.751579967475192E-002
 Begin minimization
 Creating dielectric and ionic cavities
  area:      129.632727372462     
  volume:    642.817257515232     
  Acav:     6.805718187054245E-002
  Solving linear dielectric/ionic screening model
        iter                  A_solv                     rms
   LPB:       -0.390784653409482E+00   0.123239743354552E+01
   LPB:    0  -0.390068646087222E+00   0.100718767200708E+01  -0.705707E-02   0.000000E+00   0.287540E+02  -0.202919E+00
   LPB:    1  -0.380201907165805E+00   0.212345071043378E+00   0.162079E-01   0.000000E+00   0.632358E+02  -0.632634E-17
   LPB:    2  -0.379114105712401E+00   0.109907129591176E+00   0.153581E-01   0.116350E+00   0.184006E+03  -0.236265E-14
   LPB:    3  -0.378838900484024E+00   0.483242521614064E-01   0.207679E-01   0.187090E+00   0.801205E+02  -0.252007E-14
   LPB:    4  -0.378682687793305E+00   0.770060078883607E-01   0.289152E-01   0.407687E+00   0.186460E+03  -0.215148E-14
   LPB:    5  -0.378564668966863E+00   0.798835545797440E-01   0.250727E-01   0.871285E+00   0.626447E+02  -0.196367E-14
   LPB:    6  -0.378440764660606E+00   0.278748541477441E-01   0.275677E-01   0.954850E+00   0.749301E+02  -0.181516E-14
   LPB:    7  -0.378337645198835E+00   0.121144871128182E-01   0.358005E-01   0.640865E+00   0.125591E+03  -0.134326E-14
  Finished solving LPB equations
  A_corr:   -0.310280463328292     
 End minimization
 Ecorr=   1713.00165275877     
 A_corr= -0.310280463328292     
 Ecorr_band=  -1713.31193322210     
 End Solvation calculations
RMM:  21    -0.139208542635E+03   -0.13588E-02   -0.97676E-04 11052   0.874E-02    0.150E-01
 Begin Solvation calculations
  rms_SCF =   0.275157996747519      tol =   2.751579967475192E-002
 Begin minimization
 Creating dielectric and ionic cavities
  area:      130.123126928159     
  volume:    642.742926003974     
  Acav:     6.831464163728326E-002
  Solving linear dielectric/ionic screening model
        iter                  A_solv                     rms
   LPB:       -0.417566663388200E+00   0.192119395695699E+01
   LPB:    0  -0.415912211359913E+00   0.161139436791648E+01  -0.107267E-01   0.000000E+00   0.287575E+02  -0.308473E+00
   LPB:    1  -0.395490905152047E+00   0.338048958013142E+00   0.156416E-01   0.000000E+00   0.568366E+02   0.239639E-17
   LPB:    2  -0.393282173047490E+00   0.179267426092512E+00   0.143227E-01   0.118118E+00   0.221691E+03   0.208068E-14
   LPB:    3  -0.392743389988656E+00   0.864653005190834E-01   0.175925E-01   0.198595E+00   0.998917E+02   0.219963E-14
   LPB:    4  -0.392538776921855E+00   0.858492350815153E-01   0.208674E-01   0.320169E+00   0.128664E+03   0.150124E-14
   LPB:    5  -0.392398630838930E+00   0.520034526933210E-01   0.253091E-01   0.564728E+00   0.929632E+02   0.135875E-14
   LPB:    6  -0.392262757343663E+00   0.213801925353804E-01   0.359109E-01   0.683290E+00   0.813780E+02   0.107581E-14
  Finished solving LPB equations
  A_corr:   -0.323948115706380     
 End minimization
 Ecorr=   1707.60615434162     
 A_corr= -0.323948115706380     
 Ecorr_band=  -1707.93010245733     
 End Solvation calculations
RMM:  22    -0.139209751379E+03   -0.12087E-02   -0.21619E-03 12128   0.881E-02    0.681E-02
 Begin Solvation calculations
  rms_SCF =   0.134898420230285      tol =   1.348984202302848E-002
 Begin minimization
 Creating dielectric and ionic cavities
  area:      130.262896740004     
  volume:    642.816408393063     
  Acav:     6.838802078850234E-002
  Solving linear dielectric/ionic screening model
        iter                  A_solv                     rms
   LPB:       -0.401755936806849E+00   0.868237272816662E+00
   LPB:    0  -0.401478830013578E+00   0.760287305328487E+00  -0.439025E-02   0.000000E+00   0.287541E+02  -0.126237E+00
   LPB:    1  -0.397766572110907E+00   0.146070842790727E+00   0.145288E-01   0.000000E+00   0.556723E+02   0.686096E-17
   LPB:    2  -0.397375596133209E+00   0.864975066496513E-01   0.139333E-01   0.109822E+00   0.236922E+03  -0.163197E-15
   LPB:    3  -0.397269989016073E+00   0.369937348529189E-01   0.172062E-01   0.218732E+00   0.907438E+02  -0.188772E-15
   LPB:    4  -0.397186252856728E+00   0.551427284710130E-01   0.352632E-01   0.386885E+00   0.710832E+02  -0.372947E-15
   LPB:    5  -0.397080458067156E+00   0.528157491819880E-01   0.353887E-01   0.125895E+01   0.661860E+02  -0.578274E-15
   LPB:    6  -0.396977508104109E+00   0.209706494668448E-01   0.307676E-01   0.111926E+01   0.509780E+02  -0.107748E-14
   LPB:    7  -0.396920190814141E+00   0.827136825431963E-02   0.302584E-01   0.566117E+00   0.226245E+03  -0.136034E-14
  Finished solving LPB equations
  A_corr:   -0.328532170025638     
 End minimization
 Ecorr=   1704.01925316549     
 A_corr= -0.328532170025638     
 Ecorr_band=  -1704.34778533551     
 End Solvation calculations
RMM:  23    -0.139210217416E+03   -0.46604E-03   -0.35608E-04  8048   0.539E-02    0.975E-02
 Begin Solvation calculations
  rms_SCF =   0.134898420230285      tol =   1.348984202302848E-002
 Begin minimization
 Creating dielectric and ionic cavities
  area:      130.349287890224     
  volume:    642.868434814193     
  Acav:     6.843337614236737E-002
  Solving linear dielectric/ionic screening model
        iter                  A_solv                     rms
   LPB:       -0.403030672653607E+00   0.745164489721057E+00
   LPB:    0  -0.402846785037178E+00   0.666291867737209E+00  -0.357651E-02   0.000000E+00   0.287516E+02  -0.102831E+00
   LPB:    1  -0.400579872170166E+00   0.144126818671798E+00   0.135536E-01   0.000000E+00   0.519414E+02   0.574588E-17
   LPB:    2  -0.400315661886051E+00   0.532130958799747E-01   0.124835E-01   0.126541E+00   0.228762E+03   0.249842E-14
   LPB:    3  -0.400257367254539E+00   0.205069277673761E-01   0.172155E-01   0.159992E+00   0.144104E+03   0.278020E-14
   LPB:    4  -0.400240903152507E+00   0.197910376363903E-01   0.228197E-01   0.213068E+00   0.103517E+03   0.284172E-14
   LPB:    5  -0.400227821116650E+00   0.171480962564716E-01   0.317346E-01   0.571367E+00   0.111618E+03   0.283696E-14
   LPB:    6  -0.400206782294792E+00   0.102139833273260E-01   0.478535E-01   0.106651E+01   0.601324E+02   0.275097E-14
  Finished solving LPB equations
  A_corr:   -0.331773406152425     
 End minimization
 Ecorr=   1702.63203998003     
 A_corr= -0.331773406152425     
 Ecorr_band=  -1702.96381338619     
 End Solvation calculations
RMM:  24    -0.139210237681E+03   -0.20265E-04   -0.18835E-04  7411   0.405E-02
 Begin Solvation calculations
  rms_SCF =   0.134898420230285      tol =   1.348984202302848E-002
 Begin minimization
 Creating dielectric and ionic cavities
  area:      130.389723735601     
  volume:    642.936114353390     
  Acav:     6.845460496119049E-002
  Solving linear dielectric/ionic screening model
        iter                  A_solv                     rms
   LPB:       -0.404921300817800E+00   0.769536213323881E+00
   LPB:    0  -0.404773027082122E+00   0.713290088901682E+00  -0.321174E-02   0.000000E+00   0.287485E+02  -0.923325E-01
   LPB:    1  -0.402678806784970E+00   0.140198650377636E+00   0.122411E-01   0.000000E+00   0.527280E+02  -0.342153E-17
   LPB:    2  -0.402428557321991E+00   0.442351370048035E-01   0.121697E-01   0.120196E+00   0.210688E+03  -0.162059E-15
   LPB:    3  -0.402382166434236E+00   0.146668349440771E-01   0.176915E-01   0.127519E+00   0.136917E+03  -0.182436E-15
   LPB:    4  -0.402367677904315E+00   0.173061125511269E-01   0.279770E-01   0.197495E+00   0.872286E+02  -0.231761E-15
   LPB:    5  -0.402355654932717E+00   0.176748107987872E-01   0.326673E-01   0.710682E+00   0.895685E+02  -0.329313E-15
   LPB:    6  -0.402342369960624E+00   0.929229347228191E-02   0.345178E-01   0.104573E+01   0.523183E+02  -0.218522E-15
  Finished solving LPB equations
  A_corr:   -0.333887764999433     
 End minimization
 Ecorr=   1701.50439050651     
 A_corr= -0.333887764999433     
 Ecorr_band=  -1701.83827827151     
 End Solvation calculations
   1 F= -.13921024E+03 E0= -.13921130E+03  d E =-.139210E+03
quench:  g(F)=  0.000E+00 g(S)=  0.000E+00 dE (1.order)= 0.000E+00
 bond charge predicted
       N       E                     dE             d eps       ncg     rms          rms(c)
 Begin Solvation calculations
  rms_SCF =   0.134898420230285      tol =   1.348984202302848E-002
 Begin minimization
 Creating dielectric and ionic cavities
  area:      130.522650248312     
  volume:    642.957776550433     
  Acav:     6.852439138036377E-002
  Solving linear dielectric/ionic screening model
        iter                  A_solv                     rms
   LPB:       -0.408456654115658E+00   0.108938239561129E-01
   LPB:    0  -0.408456654065535E+00   0.108451361607882E-01   0.186739E-05   0.000000E+00   0.287474E+02   0.536827E-04
   LPB:    1  -0.403600426021570E+00   0.613174716922954E-02   0.159765E-01   0.000000E+00   0.281840E+06   0.125228E-20
   LPB:    2  -0.403084995945587E+00   0.856772473188999E-02   0.266664E-01   0.635900E-01   0.342676E+05   0.912677E-17
   LPB:    3  -0.402925734487485E+00   0.173818905401616E-01   0.317578E-01   0.259451E+00   0.437490E+04  -0.416720E-16
   LPB:    4  -0.402860673490317E+00   0.313977580456751E-01   0.320822E-01   0.404386E+00   0.395518E+03  -0.172052E-15
   LPB:    5  -0.402830764367701E+00   0.297673293472803E-01   0.237719E-01   0.620416E+00   0.158764E+03  -0.257292E-15
   LPB:    6  -0.402808019739738E+00   0.185440075525244E-01   0.260816E-01   0.693115E+00   0.220061E+03  -0.488812E-15
   LPB:    7  -0.402793908187608E+00   0.252869495097704E-01   0.278935E-01   0.580131E+00   0.153275E+03  -0.774994E-15
   LPB:    8  -0.402783893813412E+00   0.140576346333948E-01   0.212945E-01   0.929576E+00   0.220143E+03  -0.954302E-15
   LPB:    9  -0.402774023819270E+00   0.425165762666114E-02   0.347980E-01   0.603123E+00   0.189830E+03  -0.110609E-14
  Finished solving LPB equations
  A_corr:   -0.334249632438907     
 End minimization
 Ecorr=   1701.15040865013     
 A_corr= -0.334249632438907     
 Ecorr_band=  -1701.48465828257     
 End Solvation calculations
DAV:   1    -0.139212360740E+03   -0.21433E-02   -0.44605E-01 12834   0.125E+00    0.226E-01
 Begin Solvation calculations
  rms_SCF =   7.519894227548339E-002 tol =   7.519894227548339E-003
 Begin minimization
 Creating dielectric and ionic cavities
  area:      130.412787714562     
  volume:    642.888116199672     
  Acav:     6.846671355014483E-002
  Solving linear dielectric/ionic screening model
        iter                  A_solv                     rms
   LPB:       -0.405475359517581E+00   0.463381744320223E+00
   LPB:    0  -0.405247157738129E+00   0.344534806805458E+00  -0.398428E-02   0.000000E+00   0.287507E+02  -0.114551E+00
   LPB:    1  -0.404729515524511E+00   0.858085023831990E-01   0.115786E-01   0.000000E+00   0.590876E+02  -0.301419E-17
   LPB:    2  -0.404619971209374E+00   0.211867114155104E-01   0.146845E-01   0.166862E+00   0.180054E+03   0.604469E-15
   LPB:    3  -0.404596164364470E+00   0.145004794031733E-01   0.206099E-01   0.154844E+00   0.295366E+03   0.724778E-15
   LPB:    4  -0.404585535272932E+00   0.124010859369246E-01   0.250981E-01   0.366630E+00   0.148192E+03   0.721801E-15
   LPB:    5  -0.404580232246382E+00   0.940795885461253E-02   0.256367E-01   0.488436E+00   0.193978E+03   0.747454E-15
   LPB:    6  -0.404576265790542E+00   0.368330109724458E-02   0.299146E-01   0.640999E+00   0.180619E+03   0.764462E-15
  Finished solving LPB equations
  A_corr:   -0.336109552240397     
 End minimization
 Ecorr=   1701.15330044188     
 A_corr= -0.336109552240397     
 Ecorr_band=  -1701.48940999413     
 End Solvation calculations
RMM:   2    -0.139216062604E+03   -0.37019E-02   -0.40488E-02 17700   0.407E-01    0.211E-01
 Begin Solvation calculations
  rms_SCF =   7.331969534037258E-002 tol =   7.331969534037258E-003
 Begin minimization
 Creating dielectric and ionic cavities
  area:      130.400603417675     
  volume:    642.928029591255     
  Acav:     6.846031679427915E-002
  Solving linear dielectric/ionic screening model
        iter                  A_solv                     rms
   LPB:       -0.404977524289543E+00   0.259365758753536E+00
   LPB:    0  -0.404976966676564E+00   0.258956061547890E+00  -0.196957E-03   0.000000E+00   0.287488E+02  -0.566228E-02
   LPB:    1  -0.404808404827935E+00   0.195129759933127E-01   0.848246E-02   0.000000E+00   0.698511E+02  -0.348056E-18
   LPB:    2  -0.404794916334156E+00   0.266291989063759E-02   0.174588E-01   0.388788E-01   0.151681E+03   0.155503E-16
   LPB:    3  -0.404791543390097E+00   0.235792848581755E-02   0.317362E-01   0.137564E+00   0.417325E+03   0.283061E-16
   LPB:    4  -0.404789437312843E+00   0.181250607841258E-02   0.430109E-01   0.460725E+00   0.495964E+03   0.295839E-16
  Finished solving LPB equations
  A_corr:   -0.336329120518564     
 End minimization
 Ecorr=   1701.07640918756     
 A_corr= -0.336329120518564     
 Ecorr_band=  -1701.41273830808     
 End Solvation calculations
RMM:   3    -0.139215096702E+03    0.96590E-03   -0.24612E-03 13105   0.159E-01    0.126E-01
 Begin Solvation calculations
  rms_SCF =   7.331969534037258E-002 tol =   7.331969534037258E-003
 Begin minimization
 Creating dielectric and ionic cavities
  area:      130.378934901869     
  volume:    642.935665032371     
  Acav:     6.844894082348142E-002
  Solving linear dielectric/ionic screening model
        iter                  A_solv                     rms
   LPB:       -0.405927570766851E+00   0.367469088616957E+00
   LPB:    0  -0.405891631829528E+00   0.344939321458854E+00  -0.158121E-02   0.000000E+00   0.287485E+02  -0.454574E-01
   LPB:    1  -0.405579663345706E+00   0.459467010355878E-01   0.945600E-02   0.000000E+00   0.574404E+02   0.297658E-17
   LPB:    2  -0.405533993105481E+00   0.926732897789834E-02   0.157092E-01   0.881201E-01   0.117732E+03  -0.245940E-15
   LPB:    3  -0.405526868197983E+00   0.474863036740765E-02   0.210875E-01   0.116219E+00   0.225854E+03  -0.354462E-15
   LPB:    4  -0.405524294264888E+00   0.553408557196487E-02   0.279633E-01   0.272430E+00   0.145237E+03  -0.376725E-15
  Finished solving LPB equations
  A_corr:   -0.337075353441406     
 End minimization
 Ecorr=   1700.94643025222     
 A_corr= -0.337075353441406     
 Ecorr_band=  -1701.28350560566     
 End Solvation calculations
RMM:   4    -0.139215007301E+03    0.89401E-04   -0.72947E-04  9847   0.868E-02
 Begin Solvation calculations
  rms_SCF =   7.331969534037258E-002 tol =   7.331969534037258E-003
 Begin minimization
 Creating dielectric and ionic cavities
  area:      130.361706935841     
  volume:    642.944506872332     
  Acav:     6.843989614131643E-002
  Solving linear dielectric/ionic screening model
        iter                  A_solv                     rms
   LPB:       -0.407073360388486E+00   0.297246387729158E+00
   LPB:    0  -0.407015911217893E+00   0.251191297592457E+00  -0.199918E-02   0.000000E+00   0.287481E+02  -0.574726E-01
   LPB:    1  -0.406806340256630E+00   0.367237602565395E-01   0.920463E-02   0.000000E+00   0.742184E+02  -0.212569E-17
   LPB:    2  -0.406777433328867E+00   0.802802391546082E-02   0.164339E-01   0.772566E-01   0.134359E+03  -0.950671E-16
   LPB:    3  -0.406770832548352E+00   0.102738456941984E-01   0.265366E-01   0.141413E+00   0.430106E+03   0.502058E-16
   LPB:    4  -0.406767923712494E+00   0.730027053199442E-02   0.240231E-01   0.486787E+00   0.746878E+02   0.109247E-15
  Finished solving LPB equations
  A_corr:   -0.338328027571177     
 End minimization
 Ecorr=   1700.84242237206     
 A_corr= -0.338328027571177     
 Ecorr_band=  -1701.18075039963     
 End Solvation calculations
   2 F= -.13921501E+03 E0= -.13921617E+03  d E =-.476962E-02
quench:  g(F)=  0.000E+00 g(S)=  0.000E+00 dE (1.order)= 0.000E+00
 bond charge predicted
       N       E                     dE             d eps       ncg     rms          rms(c)
 Begin Solvation calculations
  rms_SCF =   7.331969534037258E-002 tol =   7.331969534037258E-003
 Begin minimization
 Creating dielectric and ionic cavities
  area:      130.419772109641     
  volume:    642.906560706355     
  Acav:     6.847038035756163E-002
  Solving linear dielectric/ionic screening model
        iter                  A_solv                     rms
   LPB:       -0.408937696159973E+00   0.970406497209922E-02
   LPB:    0  -0.408937695847937E+00   0.988088037128259E-02  -0.465907E-05   0.000000E+00   0.287498E+02  -0.133948E-03
   LPB:    1  -0.407693197435097E+00   0.655675460725015E-02   0.159276E-01   0.000000E+00   0.700890E+05  -0.429763E-20
   LPB:    2  -0.407557790195056E+00   0.898325103375836E-02   0.268158E-01   0.646261E-01   0.677584E+04  -0.504042E-16
   LPB:    3  -0.407514646986478E+00   0.181110739142685E-01   0.311930E-01   0.273907E+00   0.113277E+04  -0.130380E-15
   LPB:    4  -0.407497683229310E+00   0.202028510502455E-01   0.262765E-01   0.466767E+00   0.142074E+03  -0.141811E-15
   LPB:    5  -0.407487478144621E+00   0.945339401760564E-02   0.236038E-01   0.669700E+00   0.234972E+03  -0.118969E-15
   LPB:    6  -0.407480115193791E+00   0.642096780692450E-02   0.342141E-01   0.497751E+00   0.349451E+03  -0.552384E-16
  Finished solving LPB equations
  A_corr:   -0.339009734836229     
 End minimization
 Ecorr=   1700.71336876962     
 A_corr= -0.339009734836229     
 Ecorr_band=  -1701.05237850446     
 End Solvation calculations
DAV:   1    -0.139216255459E+03   -0.11588E-02   -0.11178E-01 16776   0.107E+00    0.223E-01
 Begin Solvation calculations
  rms_SCF =   7.331969534037258E-002 tol =   7.331969534037258E-003
 Begin minimization
 Creating dielectric and ionic cavities
  area:      130.316087236896     
  volume:    642.953038326378     
  Acav:     6.841594579937031E-002
  Solving linear dielectric/ionic screening model
        iter                  A_solv                     rms
   LPB:       -0.412774063352012E+00   0.130684945805600E+01
   LPB:    0  -0.412757914981638E+00   0.130357996034166E+01  -0.105993E-02   0.000000E+00   0.287477E+02  -0.304706E-01
   LPB:    1  -0.408699280777092E+00   0.139263588592015E+00   0.889502E-02   0.000000E+00   0.602912E+02   0.756125E-18
   LPB:    2  -0.408271735996004E+00   0.273271797123977E-01   0.158238E-01   0.592157E-01   0.115281E+03  -0.156047E-15
   LPB:    3  -0.408216456769702E+00   0.896947216764970E-02   0.215056E-01   0.951351E-01   0.166344E+03  -0.138233E-15
   LPB:    4  -0.408200141698324E+00   0.506276909692318E-02   0.281840E-01   0.225204E+00   0.331285E+03  -0.245863E-15
  Finished solving LPB equations
  A_corr:   -0.339784195898954     
 End minimization
 Ecorr=   1700.14587469749     
 A_corr= -0.339784195898954     
 Ecorr_band=  -1700.48565889339     
 End Solvation calculations
RMM:   2    -0.139229441093E+03   -0.13186E-01   -0.13009E-02 13550   0.297E-01    0.102E+00
 Begin Solvation calculations
  rms_SCF =   7.331969534037258E-002 tol =   7.331969534037258E-003
 Begin minimization
 Creating dielectric and ionic cavities
  area:      130.359122611471     
  volume:    642.935977594938     
  Acav:     6.843853937102221E-002
  Solving linear dielectric/ionic screening model
        iter                  A_solv                     rms
   LPB:       -0.411998373220711E+00   0.110550910786732E+01
   LPB:    0  -0.411986122001891E+00   0.110303444409435E+01  -0.923203E-03   0.000000E+00   0.287485E+02  -0.265407E-01
   LPB:    1  -0.409120737018626E+00   0.101862675162277E+00   0.865683E-02   0.000000E+00   0.628185E+02   0.565372E-18
   LPB:    2  -0.408881909317077E+00   0.199422056464818E-01   0.158283E-01   0.455855E-01   0.121774E+03  -0.220132E-17
   LPB:    3  -0.408853842659657E+00   0.993771855457656E-02   0.208833E-01   0.890721E-01   0.192568E+03   0.183770E-16
   LPB:    4  -0.408847919975383E+00   0.669308048484632E-02   0.236473E-01   0.186357E+00   0.225331E+03   0.246573E-16
  Finished solving LPB equations
  A_corr:   -0.340409380604361     
 End minimization
 Ecorr=   1700.35926417596     
 A_corr= -0.340409380604361     
 Ecorr_band=  -1700.69967355657     
 End Solvation calculations
RMM:   3    -0.139216664099E+03    0.12777E-01   -0.45569E-03 12551   0.175E-01    0.123E-01
 Begin Solvation calculations
  rms_SCF =   7.331969534037258E-002 tol =   7.331969534037258E-003
 Begin minimization
 Creating dielectric and ionic cavities
  area:      130.348149846887     
  volume:    642.972304392374     
  Acav:     6.843277866961592E-002
  Solving linear dielectric/ionic screening model
        iter                  A_solv                     rms
   LPB:       -0.409425555598643E+00   0.157219464347196E+00
   LPB:    0  -0.409414941279153E+00   0.139572930012453E+00  -0.859343E-03   0.000000E+00   0.287468E+02  -0.247033E-01
   LPB:    1  -0.409346676838641E+00   0.280094088675483E-01   0.110153E-01   0.000000E+00   0.545921E+02  -0.154362E-17
   LPB:    2  -0.409335133785539E+00   0.660714599494729E-02   0.139286E-01   0.133726E+00   0.134738E+03   0.413639E-16
   LPB:    3  -0.409332588543460E+00   0.302391759205871E-02   0.212209E-01   0.144728E+00   0.175469E+03   0.492494E-16
   LPB:    4  -0.409330755273163E+00   0.334014883767205E-02   0.434341E-01   0.351909E+00   0.968834E+02   0.348390E-16
  Finished solving LPB equations
  A_corr:   -0.340897976603547     
 End minimization
 Ecorr=   1700.07560022589     
 A_corr= -0.340897976603547     
 Ecorr_band=  -1700.41649820249     
 End Solvation calculations
RMM:   4    -0.139216540987E+03    0.12311E-03   -0.35978E-04  7761   0.637E-02    0.759E-02
 Begin Solvation calculations
  rms_SCF =   5.103919092581603E-002 tol =   5.103919092581602E-003
 Begin minimization
 Creating dielectric and ionic cavities
  area:      130.353961878522     
  volume:    643.001422210292     
  Acav:     6.843582998622388E-002
  Solving linear dielectric/ionic screening model
        iter                  A_solv                     rms
   LPB:       -0.410018332035649E+00   0.879601358580322E-01
   LPB:    0  -0.410007466815838E+00   0.467675908300878E-01  -0.869461E-03   0.000000E+00   0.287454E+02  -0.249930E-01
   LPB:    1  -0.409983595613923E+00   0.194878601418144E-01   0.133091E-01   0.000000E+00   0.786680E+02   0.645987E-18
   LPB:    2  -0.409980666294898E+00   0.785831130986319E-02   0.138327E-01   0.118068E+00   0.707686E+02  -0.155603E-15
   LPB:    3  -0.409979329329567E+00   0.486595604973049E-02   0.237284E-01   0.266067E+00   0.146143E+03  -0.174412E-15
   LPB:    4  -0.409977713403890E+00   0.618368804350433E-02   0.396794E-01   0.722779E+00   0.443397E+02  -0.177186E-15
   LPB:    5  -0.409976192483894E+00   0.500697997192123E-02   0.310751E-01   0.120181E+01   0.187427E+03  -0.149713E-15
  Finished solving LPB equations
  A_corr:   -0.341540362497670     
 End minimization
 Ecorr=   1699.73284355944     
 A_corr= -0.341540362497670     
 Ecorr_band=  -1700.07438392194     
 End Solvation calculations
RMM:   5    -0.139216590399E+03   -0.49412E-04   -0.19759E-04  6940   0.722E-02
 Begin Solvation calculations
  rms_SCF =   5.103919092581603E-002 tol =   5.103919092581602E-003
 Begin minimization
 Creating dielectric and ionic cavities
  area:      130.359768450303     
  volume:    643.023493377530     
  Acav:     6.843887843640928E-002
  Solving linear dielectric/ionic screening model
        iter                  A_solv                     rms
   LPB:       -0.410920773790229E+00   0.206753893355999E+00
   LPB:    0  -0.410896555762689E+00   0.173268166075906E+00  -0.129810E-02   0.000000E+00   0.287444E+02  -0.373130E-01
   LPB:    1  -0.410799229546475E+00   0.306281766725509E-01   0.107646E-01   0.000000E+00   0.509470E+02  -0.692847E-18
   LPB:    2  -0.410784221232977E+00   0.770133962152703E-02   0.136597E-01   0.121523E+00   0.138181E+03   0.136937E-15
   LPB:    3  -0.410781977662292E+00   0.449467541111114E-02   0.184241E-01   0.110831E+00   0.186385E+03   0.220972E-15
   LPB:    4  -0.410781072737835E+00   0.436871750674362E-02   0.278547E-01   0.266785E+00   0.691765E+02   0.235012E-15
  Finished solving LPB equations
  A_corr:   -0.342342194301426     
 End minimization
 Ecorr=   1699.51759706741     
 A_corr= -0.342342194301426     
 Ecorr_band=  -1699.85993926171     
 End Solvation calculations
   3 F= -.13921659E+03 E0= -.13921771E+03  d E =-.158310E-02
quench:  g(F)=  0.000E+00 g(S)=  0.000E+00 dE (1.order)= 0.000E+00
 bond charge predicted
       N       E                     dE             d eps       ncg     rms          rms(c)
 Begin Solvation calculations
  rms_SCF =   5.103919092581603E-002 tol =   5.103919092581602E-003
 Begin minimization
 Creating dielectric and ionic cavities
  area:      130.507526259592     
  volume:    642.968279199317     
  Acav:     6.851645128628589E-002
  Solving linear dielectric/ionic screening model
        iter                  A_solv                     rms
   LPB:       -0.415355881199337E+00   0.816259841440195E-02
   LPB:    0  -0.415355880616833E+00   0.838329830163759E-02  -0.636602E-05   0.000000E+00   0.287469E+02  -0.183004E-03
   LPB:    1  -0.412594939257255E+00   0.485338037240943E-02   0.159291E-01   0.000000E+00   0.225172E+06  -0.943892E-21
   LPB:    2  -0.412297451116100E+00   0.664427546581803E-02   0.265693E-01   0.645984E-01   0.303496E+05   0.229187E-16
   LPB:    3  -0.412202935236308E+00   0.150447470943186E-01   0.323309E-01   0.261094E+00   0.504410E+04   0.561289E-16
   LPB:    4  -0.412165219218019E+00   0.304823263130520E-01   0.311681E-01   0.413932E+00   0.339430E+03   0.478777E-16
   LPB:    5  -0.412148677066892E+00   0.250425725364957E-01   0.202529E-01   0.674979E+00   0.149638E+03  -0.641784E-16
   LPB:    6  -0.412134827152252E+00   0.150770139792991E-01   0.257124E-01   0.659475E+00   0.330730E+03  -0.608695E-16
   LPB:    7  -0.412126180205888E+00   0.171310708393980E-01   0.277169E-01   0.579179E+00   0.119087E+03  -0.115520E-15
   LPB:    8  -0.412119370011535E+00   0.834092736171548E-02   0.250323E-01   0.872050E+00   0.275033E+03  -0.120527E-15
   LPB:    9  -0.412113137817026E+00   0.208057901032948E-02   0.379302E-01   0.603945E+00   0.263806E+03  -0.237501E-15
  Finished solving LPB equations
  A_corr:   -0.343596686530741     
 End minimization
 Ecorr=   1699.16883883204     
 A_corr= -0.343596686530741     
 Ecorr_band=  -1699.51243551857     
 End Solvation calculations
DAV:   1    -0.139217221126E+03   -0.68014E-03   -0.23410E-01 12744   0.118E+00    0.118E-01
 Begin Solvation calculations
  rms_SCF =   2.576815794119464E-002 tol =   2.576815794119464E-003
 Begin minimization
 Creating dielectric and ionic cavities
  area:      130.392878908169     
  volume:    642.961978828211     
  Acav:     6.845626142678859E-002
  Solving linear dielectric/ionic screening model
        iter                  A_solv                     rms
   LPB:       -0.413628765211445E+00   0.166780055605503E+00
   LPB:    0  -0.413590019031179E+00   0.957363512995412E-01  -0.164184E-02   0.000000E+00   0.287472E+02  -0.471984E-01
   LPB:    1  -0.413517516320889E+00   0.311885111238393E-01   0.150905E-01   0.000000E+00   0.509336E+02  -0.995375E-18
   LPB:    2  -0.413504373738884E+00   0.129195972873550E-01   0.141354E-01   0.193517E+00   0.211480E+03  -0.181862E-15
   LPB:    3  -0.413500182204173E+00   0.992599097377285E-02   0.209556E-01   0.215131E+00   0.154133E+03  -0.230543E-15
   LPB:    4  -0.413497751712270E+00   0.640284305718089E-02   0.242469E-01   0.501145E+00   0.100641E+03  -0.244259E-15
   LPB:    5  -0.413495803231714E+00   0.451242112377355E-02   0.305633E-01   0.636001E+00   0.338383E+03  -0.199098E-15
   LPB:    6  -0.413493960938522E+00   0.299186158160352E-02   0.351074E-01   0.823122E+00   0.164244E+03  -0.157637E-15
   LPB:    7  -0.413492069139117E+00   0.225524602270916E-02   0.430817E-01   0.836801E+00   0.293354E+03  -0.150750E-15
  Finished solving LPB equations
  A_corr:   -0.345035807712328     
 End minimization
 Ecorr=   1698.78659073799     
 A_corr= -0.345035807712328     
 Ecorr_band=  -1699.13162654570     
 End Solvation calculations
RMM:   2    -0.139218459467E+03   -0.12383E-02   -0.13323E-02 16736   0.309E-01    0.844E-02
 Begin Solvation calculations
  rms_SCF =   2.576815794119464E-002 tol =   2.576815794119464E-003
 Begin minimization
 Creating dielectric and ionic cavities
  area:      130.396794515463     
  volume:    642.978839741127     
  Acav:     6.845831712061831E-002
  Solving linear dielectric/ionic screening model
        iter                  A_solv                     rms
   LPB:       -0.414075554632249E+00   0.213963483495528E+00
   LPB:    0  -0.414070960495491E+00   0.208315427725390E+00  -0.565360E-03   0.000000E+00   0.287465E+02  -0.162521E-01
   LPB:    1  -0.413964788890172E+00   0.169321155440398E-01   0.850681E-02   0.000000E+00   0.668353E+02  -0.144574E-17
   LPB:    2  -0.413957520161746E+00   0.373640902328710E-02   0.159767E-01   0.364528E-01   0.120568E+03  -0.145360E-16
   LPB:    3  -0.413956075942939E+00   0.438146322396609E-02   0.272237E-01   0.116604E+00   0.262426E+03  -0.645201E-16
   LPB:    4  -0.413955322371732E+00   0.405810670397144E-02   0.291063E-01   0.488035E+00   0.916742E+02  -0.936114E-16
   LPB:    5  -0.413954585553445E+00   0.251127373245881E-02   0.319698E-01   0.890192E+00   0.429193E+03  -0.126808E-15
  Finished solving LPB equations
  A_corr:   -0.345496268432827     
 End minimization
 Ecorr=   1698.70473232087     
 A_corr= -0.345496268432827     
 Ecorr_band=  -1699.05022858930     
 End Solvation calculations
RMM:   3    -0.139218553460E+03   -0.93993E-04   -0.81278E-04  9977   0.889E-02
 Begin Solvation calculations
  rms_SCF =   2.576815794119464E-002 tol =   2.576815794119464E-003
 Begin minimization
 Creating dielectric and ionic cavities
  area:      130.394838124279     
  volume:    642.989504292921     
  Acav:     6.845729001524629E-002
  Solving linear dielectric/ionic screening model
        iter                  A_solv                     rms
   LPB:       -0.414188246746727E+00   0.186186493923301E+00
   LPB:    0  -0.414187637465954E+00   0.185165021536471E+00  -0.205890E-03   0.000000E+00   0.287460E+02  -0.591851E-02
   LPB:    1  -0.414105530224864E+00   0.203395579996850E-01   0.895227E-02   0.000000E+00   0.595311E+02  -0.153218E-18
   LPB:    2  -0.414096404499889E+00   0.389295309548366E-02   0.159777E-01   0.622738E-01   0.111518E+03   0.282498E-16
   LPB:    3  -0.414094848704586E+00   0.136349809064850E-02   0.236373E-01   0.115239E+00   0.177748E+03   0.458464E-16
   LPB:    4  -0.414094193886814E+00   0.134486461678504E-02   0.330088E-01   0.301394E+00   0.276723E+03   0.481850E-16
  Finished solving LPB equations
  A_corr:   -0.345636903871567     
 End minimization
 Ecorr=   1698.58001748077     
 A_corr= -0.345636903871567     
 Ecorr_band=  -1698.92565438464     
 End Solvation calculations
   4 F= -.13921855E+03 E0= -.13921965E+03  d E =-.196306E-02
quench:  g(F)=  0.000E+00 g(S)=  0.000E+00 dE (1.order)= 0.000E+00
 bond charge predicted
       N       E                     dE             d eps       ncg     rms          rms(c)
 Begin Solvation calculations
  rms_SCF =   2.576815794119464E-002 tol =   2.576815794119464E-003
 Begin minimization
 Creating dielectric and ionic cavities
  area:      130.515338098368     
  volume:    642.946109191071     
  Acav:     6.852055250164314E-002
  Solving linear dielectric/ionic screening model
        iter                  A_solv                     rms
   LPB:       -0.417355264045634E+00   0.555749520573678E-02
   LPB:    0  -0.417355263759638E+00   0.568332025538099E-02  -0.446058E-05   0.000000E+00   0.287480E+02  -0.128233E-03
   LPB:    1  -0.415542587121190E+00   0.239668170792708E-02   0.158286E-01   0.000000E+00   0.352063E+06   0.106771E-19
   LPB:    2  -0.415354043958702E+00   0.296295341821772E-02   0.260710E-01   0.631500E-01   0.903046E+05  -0.991413E-17
   LPB:    3  -0.415296764710445E+00   0.662561292157716E-02   0.322661E-01   0.245470E+00   0.156878E+05  -0.140789E-16
   LPB:    4  -0.415273617178340E+00   0.172551669395004E-01   0.336602E-01   0.387380E+00   0.951695E+03  -0.173200E-16
   LPB:    5  -0.415264370049453E+00   0.234079248903514E-01   0.232588E-01   0.578137E+00   0.166288E+03   0.221141E-16
   LPB:    6  -0.415257108549616E+00   0.878040300135278E-02   0.212994E-01   0.857509E+00   0.232594E+03   0.406637E-16
   LPB:    7  -0.415251219946374E+00   0.848919800785733E-02   0.354738E-01   0.486908E+00   0.261055E+03   0.340223E-16
   LPB:    8  -0.415247568667019E+00   0.107593244723503E-01   0.288549E-01   0.762290E+00   0.228125E+03   0.206646E-16
   LPB:    9  -0.415244383854173E+00   0.437711623805352E-02   0.279016E-01   0.902047E+00   0.122001E+03   0.956915E-16
   LPB:   10  -0.415241591820574E+00   0.141792951517621E-02   0.391606E-01   0.624621E+00   0.119123E+04   0.240227E-15
  Finished solving LPB equations
  A_corr:   -0.346721039318931     
 End minimization
 Ecorr=   1698.32334596952     
 A_corr= -0.346721039318931     
 Ecorr_band=  -1698.67006700884     
 End Solvation calculations
DAV:   1    -0.139218260384E+03    0.19908E-03   -0.15308E-01 12960   0.993E-01    0.110E-01
 Begin Solvation calculations
  rms_SCF =   2.576815794119464E-002 tol =   2.576815794119464E-003
 Begin minimization
 Creating dielectric and ionic cavities
  area:      130.423375271995     
  volume:    642.981695241166     
  Acav:     6.847227201779722E-002
  Solving linear dielectric/ionic screening model
        iter                  A_solv                     rms
   LPB:       -0.416284156874517E+00   0.478916367862588E+00
   LPB:    0  -0.416276122311313E+00   0.474182150821597E+00  -0.747661E-03   0.000000E+00   0.287463E+02  -0.214925E-01
   LPB:    1  -0.415732369774746E+00   0.529618149617431E-01   0.900862E-02   0.000000E+00   0.592533E+02   0.510740E-18
   LPB:    2  -0.415670027936373E+00   0.924246425632892E-02   0.157749E-01   0.654743E-01   0.114725E+03   0.413199E-16
   LPB:    3  -0.415661818843485E+00   0.321372313270535E-02   0.216710E-01   0.958524E-01   0.213333E+03   0.533799E-16
   LPB:    4  -0.415659209650035E+00   0.288797738461872E-02   0.290698E-01   0.236945E+00   0.264481E+03   0.614271E-16
   LPB:    5  -0.415657886120910E+00   0.369083487300719E-02   0.321688E-01   0.458389E+00   0.254412E+03   0.391006E-16
   LPB:    6  -0.415656990465771E+00   0.435505028049635E-02   0.329997E-01   0.659680E+00   0.121096E+03   0.275511E-16
   LPB:    7  -0.415656268811934E+00   0.326401146566321E-02   0.294369E-01   0.903244E+00   0.198479E+03  -0.729649E-16
   LPB:    8  -0.415655459017579E+00   0.151790196080347E-02   0.375599E-01   0.879456E+00   0.212005E+03  -0.202809E-15
  Finished solving LPB equations
  A_corr:   -0.347183186999782     
 End minimization
 Ecorr=   1697.99341478945     
 A_corr= -0.347183186999782     
 Ecorr_band=  -1698.34059797645     
 End Solvation calculations
RMM:   2    -0.139220284636E+03   -0.20243E-02   -0.10325E-02 14277   0.280E-01    0.317E-01
 Begin Solvation calculations
  rms_SCF =   2.576815794119464E-002 tol =   2.576815794119464E-003
 Begin minimization
 Creating dielectric and ionic cavities
  area:      130.426037411294     
  volume:    642.976632968714     
  Acav:     6.847366964092938E-002
  Solving linear dielectric/ionic screening model
        iter                  A_solv                     rms
   LPB:       -0.416278425292378E+00   0.388690786619473E+00
   LPB:    0  -0.416277009136288E+00   0.387914374052471E+00  -0.313890E-03   0.000000E+00   0.287466E+02  -0.902326E-02
   LPB:    1  -0.415923555096465E+00   0.358906255743565E-01   0.864142E-02   0.000000E+00   0.628842E+02  -0.474655E-18
   LPB:    2  -0.415894980371217E+00   0.692285392556401E-02   0.157209E-01   0.444382E-01   0.119330E+03   0.176248E-16
   LPB:    3  -0.415891152439917E+00   0.386705361158737E-02   0.232746E-01   0.904853E-01   0.163718E+03   0.143973E-16
   LPB:    4  -0.415889763206047E+00   0.351727049518614E-02   0.302324E-01   0.279396E+00   0.186577E+03   0.387856E-16
   LPB:    5  -0.415889032410257E+00   0.335521539760221E-02   0.260626E-01   0.610204E+00   0.232226E+03   0.374532E-16
   LPB:    6  -0.415888572756962E+00   0.229239168899172E-02   0.276543E-01   0.592774E+00   0.136774E+03   0.494832E-16
  Finished solving LPB equations
  A_corr:   -0.347414903116032     
 End minimization
 Ecorr=   1698.04317861945     
 A_corr= -0.347414903116032     
 Ecorr_band=  -1698.39059352257     
 End Solvation calculations
RMM:   3    -0.139219028458E+03    0.12562E-02   -0.92060E-04 10079   0.884E-02    0.738E-02
 Begin Solvation calculations
  rms_SCF =   2.576815794119464E-002 tol =   2.576815794119464E-003
 Begin minimization
 Creating dielectric and ionic cavities
  area:      130.424494044490     
  volume:    642.989027034847     
  Acav:     6.847285937335712E-002
  Solving linear dielectric/ionic screening model
        iter                  A_solv                     rms
   LPB:       -0.416185885615742E+00   0.509767307142354E-01
   LPB:    0  -0.416183603273549E+00   0.371556747174082E-01  -0.398489E-03   0.000000E+00   0.287460E+02  -0.114550E-01
   LPB:    1  -0.416174539144465E+00   0.103969109660229E-01   0.147678E-01   0.000000E+00   0.494550E+02   0.729227E-18
   LPB:    2  -0.416173127415475E+00   0.455633069461882E-02   0.139637E-01   0.164717E+00   0.200418E+03  -0.209950E-16
   LPB:    3  -0.416172561407361E+00   0.251105296464828E-02   0.211416E-01   0.264811E+00   0.174624E+03  -0.249391E-16
   LPB:    4  -0.416172206652620E+00   0.220232221030711E-02   0.295640E-01   0.448209E+00   0.132333E+03  -0.276915E-16
  Finished solving LPB equations
  A_corr:   -0.347699347279263     
 End minimization
 Ecorr=   1697.91279130772     
 A_corr= -0.347699347279263     
 Ecorr_band=  -1698.26049065500     
 End Solvation calculations
RMM:   4    -0.139219004249E+03    0.24209E-04   -0.19821E-04  7157   0.630E-02
 Begin Solvation calculations
  rms_SCF =   2.576815794119464E-002 tol =   2.576815794119464E-003
 Begin minimization
 Creating dielectric and ionic cavities
  area:      130.425176297956     
  volume:    642.997245286729     
  Acav:     6.847321755642695E-002
  Solving linear dielectric/ionic screening model
        iter                  A_solv                     rms
   LPB:       -0.416519042450625E+00   0.118708352313215E+00
   LPB:    0  -0.416514823491123E+00   0.109170966972793E+00  -0.541791E-03   0.000000E+00   0.287456E+02  -0.155741E-01
   LPB:    1  -0.416482579502486E+00   0.159377232524793E-01   0.979937E-02   0.000000E+00   0.540798E+02   0.127179E-17
   LPB:    2  -0.416477604623395E+00   0.297912001879238E-02   0.149527E-01   0.101114E+00   0.115549E+03   0.728845E-16
   LPB:    3  -0.416476831018726E+00   0.216403829936600E-02   0.220805E-01   0.105305E+00   0.229438E+03   0.123161E-15
   LPB:    4  -0.416476425367457E+00   0.277248462153300E-02   0.323710E-01   0.357674E+00   0.834611E+02   0.131272E-15
   LPB:    5  -0.416476091115649E+00   0.276193218758828E-02   0.316524E-01   0.842695E+00   0.179031E+03   0.132913E-15
   LPB:    6  -0.416475712597744E+00   0.160748702045773E-02   0.361999E-01   0.990173E+00   0.102456E+03   0.153395E-15
  Finished solving LPB equations
  A_corr:   -0.348002495041317     
 End minimization
 Ecorr=   1697.75560131291     
 A_corr= -0.348002495041317     
 Ecorr_band=  -1698.10360380795     
 End Solvation calculations
   5 F= -.13921900E+03 E0= -.13922017E+03  d E =-.450789E-03
quench:  g(F)=  0.000E+00 g(S)=  0.000E+00 dE (1.order)= 0.000E+00
 bond charge predicted
       N       E                     dE             d eps       ncg     rms          rms(c)
 Begin Solvation calculations
  rms_SCF =   2.576815794119464E-002 tol =   2.576815794119464E-003
 Begin minimization
 Creating dielectric and ionic cavities
  area:      130.483577096019     
  volume:    642.976216977753     
  Acav:     6.850387797540995E-002
  Solving linear dielectric/ionic screening model
        iter                  A_solv                     rms
   LPB:       -0.417595099689079E+00   0.338162097565194E-02
   LPB:    0  -0.417595099576658E+00   0.347108399484310E-02  -0.279670E-05   0.000000E+00   0.287466E+02  -0.803954E-04
   LPB:    1  -0.417077273283157E+00   0.175009728703572E-02   0.159313E-01   0.000000E+00   0.256414E+06   0.690113E-21
   LPB:    2  -0.417021578975314E+00   0.217738903266600E-02   0.264301E-01   0.648306E-01   0.484497E+05   0.165759E-17
   LPB:    3  -0.417004252599815E+00   0.495523798240137E-02   0.321550E-01   0.255709E+00   0.830378E+04   0.882722E-17
   LPB:    4  -0.416997324369475E+00   0.102908566788618E-01   0.325868E-01   0.394568E+00   0.527627E+03  -0.350037E-18
   LPB:    5  -0.416994426918762E+00   0.113813944233147E-01   0.227626E-01   0.598705E+00   0.162593E+03   0.112583E-16
   LPB:    6  -0.416992170778607E+00   0.612370545168949E-02   0.233570E-01   0.758851E+00   0.237867E+03   0.796434E-17
   LPB:    7  -0.416990601080041E+00   0.727695110042588E-02   0.290983E-01   0.558469E+00   0.153637E+03   0.194983E-16
   LPB:    8  -0.416989438590229E+00   0.433856296939479E-02   0.241131E-01   0.893691E+00   0.226560E+03   0.544694E-16
   LPB:    9  -0.416988269442474E+00   0.138304677684979E-02   0.365390E-01   0.663707E+00   0.235818E+03   0.865723E-16
  Finished solving LPB equations
  A_corr:   -0.348484391467064     
 End minimization
 Ecorr=   1697.64782865087     
 A_corr= -0.348484391467064     
 Ecorr_band=  -1697.99631304234     
 End Solvation calculations
DAV:   1    -0.139218785456E+03    0.24300E-03   -0.68804E-02 14193   0.753E-01    0.109E-01
 Begin Solvation calculations
  rms_SCF =   2.576815794119464E-002 tol =   2.576815794119464E-003
 Begin minimization
 Creating dielectric and ionic cavities
  area:      130.457596394988     
  volume:    642.968596295341     
  Acav:     6.849023810736886E-002
  Solving linear dielectric/ionic screening model
        iter                  A_solv                     rms
   LPB:       -0.418204773123242E+00   0.348356261269723E+00
   LPB:    0  -0.418185385135499E+00   0.334851454189483E+00  -0.116141E-02   0.000000E+00   0.287469E+02  -0.333870E-01
   LPB:    1  -0.417908596953755E+00   0.289906288427449E-01   0.865607E-02   0.000000E+00   0.649981E+02  -0.257952E-17
   LPB:    2  -0.417887404572503E+00   0.596570323303948E-02   0.153293E-01   0.432344E-01   0.132119E+03   0.110165E-15
   LPB:    3  -0.417884061523542E+00   0.648334208046530E-02   0.245935E-01   0.983255E-01   0.271485E+03   0.542861E-16
   LPB:    4  -0.417882901559074E+00   0.425685320264577E-02   0.231749E-01   0.368217E+00   0.881245E+02   0.726181E-16
   LPB:    5  -0.417882148978913E+00   0.220244003033573E-02   0.269141E-01   0.558660E+00   0.368630E+03   0.388057E-16
  Finished solving LPB equations
  A_corr:   -0.349391910871544     
 End minimization
 Ecorr=   1697.60825285542     
 A_corr= -0.349391910871544     
 Ecorr_band=  -1697.95764476629     
 End Solvation calculations
RMM:   2    -0.139220346252E+03   -0.15608E-02   -0.89605E-03 16803   0.203E-01    0.264E-01
 Begin Solvation calculations
  rms_SCF =   2.576815794119464E-002 tol =   2.576815794119464E-003
 Begin minimization
 Creating dielectric and ionic cavities
  area:      130.449788262471     
  volume:    642.978182408963     
  Acav:     6.848613883779733E-002
  Solving linear dielectric/ionic screening model
        iter                  A_solv                     rms
   LPB:       -0.418019627537072E+00   0.279767849017217E+00
   LPB:    0  -0.418019522466004E+00   0.279747896095454E+00   0.854996E-04   0.000000E+00   0.287465E+02   0.245781E-02
   LPB:    1  -0.417835012741738E+00   0.273334291021688E-01   0.873885E-02   0.000000E+00   0.617432E+02   0.159230E-18
   LPB:    2  -0.417818218301634E+00   0.533964037902062E-02   0.158483E-01   0.501902E-01   0.118369E+03   0.111123E-18
   LPB:    3  -0.417815852708842E+00   0.202740511578381E-02   0.226689E-01   0.984750E-01   0.170637E+03  -0.378702E-17
   LPB:    4  -0.417815164764919E+00   0.162283248721176E-02   0.280973E-01   0.234628E+00   0.397754E+03  -0.332728E-16
  Finished solving LPB equations
  A_corr:   -0.349329025927122     
 End minimization
 Ecorr=   1697.49045154662     
 A_corr= -0.349329025927122     
 Ecorr_band=  -1697.83978057255     
 End Solvation calculations
RMM:   3    -0.139219451933E+03    0.89432E-03   -0.62599E-04  7885   0.540E-02    0.573E-02
 Begin Solvation calculations
  rms_SCF =   1.799379454013247E-002 tol =   1.799379454013247E-003
 Begin minimization
 Creating dielectric and ionic cavities
  area:      130.454262367365     
  volume:    642.992034452479     
  Acav:     6.848848774286684E-002
  Solving linear dielectric/ionic screening model
        iter                  A_solv                     rms
   LPB:       -0.418227815204455E+00   0.600845677731917E-01
   LPB:    0  -0.418223468999383E+00   0.346783957690885E-01  -0.549899E-03   0.000000E+00   0.287458E+02  -0.158073E-01
   LPB:    1  -0.418216078786867E+00   0.133936059693754E-01   0.115447E-01   0.000000E+00   0.609620E+02  -0.601340E-18
   LPB:    2  -0.418214615797457E+00   0.408339447709385E-02   0.155828E-01   0.146663E+00   0.618971E+02   0.156406E-16
   LPB:    3  -0.418214114659616E+00   0.333074271773651E-02   0.225438E-01   0.236775E+00   0.263553E+03   0.374434E-16
   LPB:    4  -0.418213713419486E+00   0.244771154703668E-02   0.296724E-01   0.608304E+00   0.728331E+02   0.533828E-16
   LPB:    5  -0.418213307614884E+00   0.149460165388480E-02   0.341577E-01   0.878571E+00   0.236980E+03   0.100008E-15
  Finished solving LPB equations
  A_corr:   -0.349724819872017     
 End minimization
 Ecorr=   1697.32489562188     
 A_corr= -0.349724819872017     
 Ecorr_band=  -1697.67462044175     
 End Solvation calculations
RMM:   4    -0.139219467790E+03   -0.15856E-04   -0.13566E-04  6771   0.567E-02
 Begin Solvation calculations
  rms_SCF =   1.799379454013247E-002 tol =   1.799379454013247E-003
 Begin minimization
 Creating dielectric and ionic cavities
  area:      130.456904354447     
  volume:    642.996799448810     
  Acav:     6.848987478608459E-002
  Solving linear dielectric/ionic screening model
        iter                  A_solv                     rms
   LPB:       -0.418727666555718E+00   0.671376385146769E-01
   LPB:    0  -0.418722495453423E+00   0.417847555374827E-01  -0.599820E-03   0.000000E+00   0.287456E+02  -0.172422E-01
   LPB:    1  -0.418712120535343E+00   0.109445613359832E-01   0.139291E-01   0.000000E+00   0.448026E+02   0.645267E-18
   LPB:    2  -0.418710311401586E+00   0.412677962078658E-02   0.140687E-01   0.172645E+00   0.222130E+03   0.689221E-16
   LPB:    3  -0.418709885515100E+00   0.352243946429834E-02   0.194598E-01   0.170192E+00   0.151762E+03   0.684463E-16
   LPB:    4  -0.418709576471230E+00   0.254238412236167E-02   0.271137E-01   0.520804E+00   0.809970E+02   0.685868E-16
   LPB:    5  -0.418709225214213E+00   0.186068959726521E-02   0.367539E-01   0.838477E+00   0.154438E+03   0.618692E-16
   LPB:    6  -0.418708807741494E+00   0.107648190858266E-02   0.397502E-01   0.109892E+01   0.112093E+03   0.536384E-16
  Finished solving LPB equations
  A_corr:   -0.350218932955409     
 End minimization
 Ecorr=   1697.13869873881     
 A_corr= -0.350218932955409     
 Ecorr_band=  -1697.48891767177     
 End Solvation calculations
   6 F= -.13921947E+03 E0= -.13922063E+03  d E =-.463540E-03
quench:  g(F)=  0.000E+00 g(S)=  0.000E+00 dE (1.order)= 0.000E+00
 bond charge predicted
       N       E                     dE             d eps       ncg     rms          rms(c)
 Begin Solvation calculations
  rms_SCF =   1.799379454013247E-002 tol =   1.799379454013247E-003
 Begin minimization
 Creating dielectric and ionic cavities
  area:      130.530238034650     
  volume:    642.964690228505     
  Acav:     6.852837496819139E-002
  Solving linear dielectric/ionic screening model
        iter                  A_solv                     rms
   LPB:       -0.420419696932060E+00   0.381822162445633E-02
   LPB:    0  -0.420419696750016E+00   0.391924819819767E-02  -0.355882E-05   0.000000E+00   0.287471E+02  -0.102306E-03
   LPB:    1  -0.419589770885009E+00   0.178238776379740E-02   0.158234E-01   0.000000E+00   0.337854E+06  -0.413392E-20
   LPB:    2  -0.419504369182595E+00   0.231933422921358E-02   0.258831E-01   0.629086E-01   0.792273E+05  -0.239971E-17
   LPB:    3  -0.419479058919008E+00   0.532556797113994E-02   0.319574E-01   0.240035E+00   0.120892E+05  -0.223870E-17
   LPB:    4  -0.419469175113127E+00   0.131097116767646E-01   0.327756E-01   0.380757E+00   0.749351E+03  -0.130052E-17
   LPB:    5  -0.419465314406066E+00   0.146083511913021E-01   0.213773E-01   0.598881E+00   0.152482E+03  -0.179051E-16
   LPB:    6  -0.419462074900300E+00   0.517736362127336E-02   0.227492E-01   0.788495E+00   0.283698E+03  -0.299979E-16
   LPB:    7  -0.419459637848085E+00   0.580982088264697E-02   0.353099E-01   0.484680E+00   0.250409E+03  -0.445838E-16
   LPB:    8  -0.419458136110624E+00   0.662794950770591E-02   0.275954E-01   0.788477E+00   0.222396E+03  -0.276005E-16
   LPB:    9  -0.419456775165736E+00   0.259606253559460E-02   0.291777E-01   0.857103E+00   0.132718E+03  -0.108657E-16
   LPB:   10  -0.419455619264655E+00   0.113420245261008E-02   0.396412E-01   0.625150E+00   0.136318E+04  -0.141328E-16
  Finished solving LPB equations
  A_corr:   -0.350927244296463     
 End minimization
 Ecorr=   1696.99477026755     
 A_corr= -0.350927244296463     
 Ecorr_band=  -1697.34569751185     
 End Solvation calculations
DAV:   1    -0.139219441602E+03    0.10331E-04   -0.66023E-02 12960   0.645E-01    0.540E-02
 Begin Solvation calculations
  rms_SCF =   1.799379454013247E-002 tol =   1.799379454013247E-003
 Begin minimization
 Creating dielectric and ionic cavities
  area:      130.475044924043     
  volume:    642.989760780290     
  Acav:     6.849939858512250E-002
  Solving linear dielectric/ionic screening model
        iter                  A_solv                     rms
   LPB:       -0.419858934887554E+00   0.228712394994518E+00
   LPB:    0  -0.419857720150893E+00   0.226779718294623E+00  -0.290715E-03   0.000000E+00   0.287459E+02  -0.835688E-02
   LPB:    1  -0.419730364949061E+00   0.270426792897691E-01   0.919453E-02   0.000000E+00   0.581178E+02  -0.351719E-19
   LPB:    2  -0.419713548535499E+00   0.476280501020198E-02   0.159034E-01   0.763408E-01   0.116989E+03  -0.740807E-16
   LPB:    3  -0.419711079053854E+00   0.179383111438864E-02   0.222321E-01   0.105047E+00   0.234998E+03  -0.758663E-16
   LPB:    4  -0.419710184512955E+00   0.169890941795157E-02   0.305037E-01   0.264011E+00   0.279183E+03  -0.783404E-16
  Finished solving LPB equations
  A_corr:   -0.351210785927833     
 End minimization
 Ecorr=   1696.77403586930     
 A_corr= -0.351210785927833     
 Ecorr_band=  -1697.12524665523     
 End Solvation calculations
RMM:   2    -0.139220108863E+03   -0.66726E-03   -0.36385E-03 15551   0.163E-01    0.174E-01
 Begin Solvation calculations
  rms_SCF =   1.799379454013247E-002 tol =   1.799379454013247E-003
 Begin minimization
 Creating dielectric and ionic cavities
  area:      130.477544460816     
  volume:    642.985709462852     
  Acav:     6.850071084192855E-002
  Solving linear dielectric/ionic screening model
        iter                  A_solv                     rms
   LPB:       -0.419966118465807E+00   0.205440012118542E+00
   LPB:    0  -0.419965394401413E+00   0.204709740194056E+00  -0.224447E-03   0.000000E+00   0.287461E+02  -0.645198E-02
   LPB:    1  -0.419866616976028E+00   0.186944575958628E-01   0.863824E-02   0.000000E+00   0.631305E+02  -0.160236E-19
   LPB:    2  -0.419858454311022E+00   0.371240745395922E-02   0.159866E-01   0.446523E-01   0.121064E+03  -0.342039E-17
   LPB:    3  -0.419857348920315E+00   0.214131792876660E-02   0.219700E-01   0.985391E-01   0.203176E+03   0.222896E-17
   LPB:    4  -0.419857014758231E+00   0.174742583737198E-02   0.280248E-01   0.236990E+00   0.209208E+03  -0.957452E-18
  Finished solving LPB equations
  A_corr:   -0.351356303916302     
 End minimization
 Ecorr=   1696.81532943161     
 A_corr= -0.351356303916302     
 Ecorr_band=  -1697.16668573553     
 End Solvation calculations
RMM:   3    -0.139219735018E+03    0.37385E-03   -0.29686E-04  7596   0.490E-02    0.476E-02
 Begin Solvation calculations
  rms_SCF =   1.799379454013247E-002 tol =   1.799379454013247E-003
 Begin minimization
 Creating dielectric and ionic cavities
  area:      130.478625740555     
  volume:    642.990024320846     
  Acav:     6.850127851379161E-002
  Solving linear dielectric/ionic screening model
        iter                  A_solv                     rms
   LPB:       -0.420013252166913E+00   0.488438529788143E-01
   LPB:    0  -0.420012372948586E+00   0.438631932183303E-01  -0.247329E-03   0.000000E+00   0.287459E+02  -0.710970E-02
   LPB:    1  -0.420006412671428E+00   0.788277844644402E-02   0.105678E-01   0.000000E+00   0.523996E+02   0.689080E-18
   LPB:    2  -0.420005205649336E+00   0.184074640468106E-02   0.155419E-01   0.137698E+00   0.124423E+03   0.326218E-16
   LPB:    3  -0.420004885892225E+00   0.133695068419129E-02   0.239117E-01   0.172187E+00   0.269117E+03   0.480184E-16
   LPB:    4  -0.420004617742918E+00   0.219299359538563E-02   0.427912E-01   0.468610E+00   0.103684E+03   0.521090E-16
   LPB:    5  -0.420004305396253E+00   0.301195394475460E-02   0.386998E-01   0.128797E+01   0.219496E+03   0.323761E-16
   LPB:    6  -0.420003925643733E+00   0.191648557639233E-02   0.346098E-01   0.135948E+01   0.749425E+02   0.380069E-17
   LPB:    7  -0.420003531278564E+00   0.883063108227251E-03   0.386170E-01   0.930719E+00   0.396333E+03  -0.298777E-16
  Finished solving LPB equations
  A_corr:   -0.351502252764772     
 End minimization
 Ecorr=   1696.65658008440     
 A_corr= -0.351502252764772     
 Ecorr_band=  -1697.00808233717     
 End Solvation calculations
RMM:   4    -0.139219720296E+03    0.14723E-04   -0.58632E-05  6581   0.361E-02
 Begin Solvation calculations
  rms_SCF =   1.799379454013247E-002 tol =   1.799379454013247E-003
 Begin minimization
 Creating dielectric and ionic cavities
  area:      130.480281413700     
  volume:    642.994716121831     
  Acav:     6.850214774219236E-002
  Solving linear dielectric/ionic screening model
[...]
   LPB:    4  -0.427715347656841E+00   0.857444021104848E-03   0.348611E-01   0.386925E+00   0.387631E+04   0.287783E-17
   LPB:    5  -0.427715208802993E+00   0.185555230274836E-02   0.325051E-01   0.482491E+00   0.406979E+03   0.401406E-17
   LPB:    6  -0.427715145911479E+00   0.153846198108337E-02   0.204682E-01   0.719291E+00   0.140052E+03   0.389354E-17
   LPB:    7  -0.427715094430893E+00   0.892673238720487E-03   0.253256E-01   0.661565E+00   0.319241E+03   0.124701E-16
   LPB:    8  -0.427715064501007E+00   0.102267322031686E-02   0.264725E-01   0.556193E+00   0.188245E+03   0.198307E-16
   LPB:    9  -0.427715043318745E+00   0.414326676445248E-03   0.235428E-01   0.795800E+00   0.180471E+03   0.219126E-16
   LPB:   10  -0.427715026657212E+00   0.126982968413644E-03   0.360863E-01   0.513167E+00   0.996059E+03   0.177933E-16
   LPB:   11  -0.427715015610688E+00   0.799857528376096E-04   0.397160E-01   0.602403E+00   0.342764E+04   0.185296E-16
  Finished solving LPB equations
  A_corr:   -0.359143040764827     
 End minimization
 Ecorr=   1694.21979054830     
 A_corr= -0.359143040764827     
 Ecorr_band=  -1694.57893358907     
 End Solvation calculations
DAV:   1    -0.139224691063E+03   -0.21423E-04   -0.23264E-03 12993   0.240E-01    0.241E-02
 Begin Solvation calculations
  rms_SCF =   1.164592088307750E-003 tol =   1.164592088307750E-004
 Begin minimization
 Creating dielectric and ionic cavities
  area:      130.611035010509     
  volume:    642.639040499889     
  Acav:     6.857079338051708E-002
  Solving linear dielectric/ionic screening model
        iter                  A_solv                     rms
   LPB:       -0.427867060591146E+00   0.795859602763490E-01
   LPB:    0  -0.427866492369261E+00   0.779878445038366E-01  -0.198775E-03   0.000000E+00   0.287624E+02  -0.571724E-02
   LPB:    1  -0.427850959385353E+00   0.737331921172044E-02   0.896325E-02   0.000000E+00   0.632566E+02   0.341631E-18
   LPB:    2  -0.427849363292503E+00   0.162396557275773E-02   0.153485E-01   0.600070E-01   0.176745E+03  -0.879140E-17
   LPB:    3  -0.427849071750907E+00   0.132792229032532E-02   0.250777E-01   0.111795E+00   0.279418E+03  -0.273567E-16
   LPB:    4  -0.427848982045409E+00   0.111780804478416E-02   0.244486E-01   0.315611E+00   0.166476E+03  -0.315503E-16
   LPB:    5  -0.427848938251348E+00   0.689161552596394E-03   0.235512E-01   0.506800E+00   0.226879E+03  -0.319615E-16
   LPB:    6  -0.427848913392580E+00   0.373506959572885E-03   0.279328E-01   0.478590E+00   0.202922E+03  -0.315435E-16
   LPB:    7  -0.427848898452679E+00   0.177115238105142E-03   0.312711E-01   0.536833E+00   0.430184E+03  -0.317346E-16
   LPB:    8  -0.427848889047023E+00   0.801587928895799E-04   0.355953E-01   0.553084E+00   0.604551E+03  -0.313168E-16
  Finished solving LPB equations
  A_corr:   -0.359278095666505     
 End minimization
 Ecorr=   1694.23212096560     
 A_corr= -0.359278095666505     
 Ecorr_band=  -1694.59139906127     
 End Solvation calculations
RMM:   2    -0.139224762819E+03   -0.71756E-04   -0.33335E-04  7771   0.491E-02
 Begin Solvation calculations
  rms_SCF =   1.164592088307750E-003 tol =   1.164592088307750E-004
 Begin minimization
 Creating dielectric and ionic cavities
  area:      130.608794401754     
  volume:    642.641539490584     
  Acav:     6.856961706092099E-002
  Solving linear dielectric/ionic screening model
        iter                  A_solv                     rms
   LPB:       -0.427828709009305E+00   0.786251212996076E-01
   LPB:    0  -0.427828656099247E+00   0.784822246486191E-01   0.606558E-04   0.000000E+00   0.287623E+02   0.174460E-02
   LPB:    1  -0.427814152698306E+00   0.742668181904622E-02   0.868695E-02   0.000000E+00   0.623835E+02  -0.664830E-19
   LPB:    2  -0.427812906859446E+00   0.149982762551731E-02   0.157695E-01   0.473197E-01   0.120505E+03   0.274072E-17
   LPB:    3  -0.427812746147715E+00   0.800098923827106E-03   0.224026E-01   0.908038E-01   0.159304E+03   0.488929E-17
   LPB:    4  -0.427812699071337E+00   0.652934735774941E-03   0.265601E-01   0.247072E+00   0.206468E+03   0.671505E-17
   LPB:    5  -0.427812679462256E+00   0.512658088685263E-03   0.234219E-01   0.472349E+00   0.206017E+03   0.960595E-17
   LPB:    6  -0.427812669657793E+00   0.282070382211985E-03   0.247492E-01   0.473181E+00   0.165039E+03   0.761080E-17
   LPB:    7  -0.427812664146902E+00   0.128696028932313E-03   0.286653E-01   0.485290E+00   0.377423E+03   0.715499E-17
   LPB:    8  -0.427812660684903E+00   0.543954477936006E-04   0.353382E-01   0.509585E+00   0.529178E+03   0.806178E-17
  Finished solving LPB equations
  A_corr:   -0.359243043623982     
 End minimization
 Ecorr=   1694.21206697032     
 A_corr= -0.359243043623982     
 Ecorr_band=  -1694.57131001394     
 End Solvation calculations
  86 F= -.13922476E+03 E0= -.13922608E+03  d E =-.217700E-04
quench:  g(F)=  0.000E+00 g(S)=  0.000E+00 dE (1.order)= 0.000E+00
 bond charge predicted
       N       E                     dE             d eps       ncg     rms          rms(c)
 Begin Solvation calculations
  rms_SCF =   1.164592088307750E-003 tol =   1.164592088307750E-004
 Begin minimization
 Creating dielectric and ionic cavities
  area:      130.605040633386     
  volume:    642.635257839484     
  Acav:     6.856764633252756E-002
  Solving linear dielectric/ionic screening model
        iter                  A_solv                     rms
   LPB:       -0.427884358678031E+00   0.807185990847827E-03
   LPB:    0  -0.427884358671337E+00   0.818668363937834E-03  -0.682275E-06   0.000000E+00   0.287626E+02  -0.196240E-04
   LPB:    1  -0.427839816542554E+00   0.294877385996988E-03   0.155990E-01   0.000000E+00   0.477347E+06   0.869835E-21
   LPB:    2  -0.427835754570633E+00   0.280366876535463E-03   0.262164E-01   0.542610E-01   0.116462E+06  -0.813221E-18
   LPB:    3  -0.427834539830780E+00   0.546639574638710E-03   0.316869E-01   0.247423E+00   0.295401E+05  -0.724711E-18
   LPB:    4  -0.427834033603638E+00   0.129477942128963E-02   0.347994E-01   0.379464E+00   0.296900E+04  -0.376134E-17
   LPB:    5  -0.427833809694597E+00   0.274026194819299E-02   0.312459E-01   0.492611E+00   0.343427E+03  -0.620193E-17
   LPB:    6  -0.427833703237051E+00   0.185562112057165E-02   0.191990E-01   0.773782E+00   0.144097E+03  -0.679499E-17
   LPB:    7  -0.427833613740923E+00   0.111422146406335E-02   0.269508E-01   0.598875E+00   0.374822E+03  -0.173468E-17
   LPB:    8  -0.427833563975608E+00   0.127437812535498E-02   0.266881E-01   0.561535E+00   0.171996E+03  -0.614402E-18
   LPB:    9  -0.427833528477727E+00   0.488864730339399E-03   0.241410E-01   0.788566E+00   0.179750E+03   0.188680E-17
   LPB:   10  -0.427833501446544E+00   0.128078884053188E-03   0.362926E-01   0.506524E+00   0.126013E+04  -0.517540E-18
   LPB:   11  -0.427833483303031E+00   0.555198670386997E-04   0.406415E-01   0.599382E+00   0.599027E+04  -0.205678E-17
  Finished solving LPB equations
  A_corr:   -0.359265836970504     
 End minimization
 Ecorr=   1694.21122401429     
 A_corr= -0.359265836970504     
 Ecorr_band=  -1694.57048985126     
 End Solvation calculations
DAV:   1    -0.139224735359E+03   -0.44296E-04   -0.35044E-03 17211   0.196E-01    0.314E-02
 Begin Solvation calculations
  rms_SCF =   1.164592088307750E-003 tol =   1.164592088307750E-004
 Begin minimization
 Creating dielectric and ionic cavities
  area:      130.612862176514     
  volume:    642.640450882938     
  Acav:     6.857175264266988E-002
  Solving linear dielectric/ionic screening model
        iter                  A_solv                     rms
   LPB:       -0.427843510155891E+00   0.143882754175558E+00
   LPB:    0  -0.427843465053087E+00   0.143800642651750E+00   0.560022E-04   0.000000E+00   0.287623E+02   0.161075E-02
   LPB:    1  -0.427794512498225E+00   0.142722587477873E-01   0.870996E-02   0.000000E+00   0.623925E+02   0.924095E-19
   LPB:    2  -0.427789725168350E+00   0.274393154281574E-02   0.165803E-01   0.513737E-01   0.112751E+03   0.498581E-17
   LPB:    3  -0.427789096182744E+00   0.117406220414130E-02   0.222089E-01   0.980876E-01   0.187355E+03   0.358816E-17
   LPB:    4  -0.427788906194508E+00   0.621806926146797E-03   0.279722E-01   0.239820E+00   0.331991E+03   0.113007E-16
   LPB:    5  -0.427788830182489E+00   0.693443620487619E-03   0.286877E-01   0.390110E+00   0.373239E+03   0.149170E-16
   LPB:    6  -0.427788793350724E+00   0.778864018116777E-03   0.277887E-01   0.500226E+00   0.179424E+03   0.180042E-16
   LPB:    7  -0.427788773049619E+00   0.552074991106849E-03   0.248045E-01   0.617498E+00   0.173123E+03   0.229529E-16
   LPB:    8  -0.427788758480527E+00   0.195064352463576E-03   0.302388E-01   0.588680E+00   0.188931E+03   0.282594E-16
   LPB:    9  -0.427788748801409E+00   0.926684694856696E-04   0.371489E-01   0.540781E+00   0.739531E+03   0.311923E-16
  Finished solving LPB equations
  A_corr:   -0.359216996158739     
 End minimization
 Ecorr=   1694.24418525283     
 A_corr= -0.359216996158739     
 Ecorr_band=  -1694.60340224898     
 End Solvation calculations
RMM:   2    -0.139224915442E+03   -0.18008E-03   -0.32595E-04  7806   0.573E-02    0.118E-01
 Begin Solvation calculations
  rms_SCF =   1.164592088307750E-003 tol =   1.164592088307750E-004
 Begin minimization
 Creating dielectric and ionic cavities
  area:      130.608630767802     
  volume:    642.643284648486     
  Acav:     6.856953115309630E-002
  Solving linear dielectric/ionic screening model
        iter                  A_solv                     rms
   LPB:       -0.427783016733284E+00   0.140872489978741E+00
   LPB:    0  -0.427782929469717E+00   0.140754038028032E+00   0.778970E-04   0.000000E+00   0.287622E+02   0.224049E-02
   LPB:    1  -0.427736380316333E+00   0.134011777398593E-01   0.868524E-02   0.000000E+00   0.622896E+02  -0.404680E-19
   LPB:    2  -0.427732391300873E+00   0.259925670089786E-02   0.157466E-01   0.472659E-01   0.118900E+03  -0.396074E-17
   LPB:    3  -0.427731896465645E+00   0.124676457749563E-02   0.221389E-01   0.882322E-01   0.164669E+03  -0.426738E-17
   LPB:    4  -0.427731760529029E+00   0.943859490894944E-03   0.264477E-01   0.229955E+00   0.228598E+03  -0.864005E-17
   LPB:    5  -0.427731705408044E+00   0.879124600683088E-03   0.246396E-01   0.435246E+00   0.217362E+03  -0.246044E-16
   LPB:    6  -0.427731678539212E+00   0.542811020728461E-03   0.241724E-01   0.496873E+00   0.138199E+03  -0.329141E-16
   LPB:    7  -0.427731663757062E+00   0.238536838743482E-03   0.269098E-01   0.494196E+00   0.277351E+03  -0.330894E-16
   LPB:    8  -0.427731655148517E+00   0.842023782171211E-04   0.334706E-01   0.468208E+00   0.382104E+03  -0.342708E-16
  Finished solving LPB equations
  A_corr:   -0.359162123995421     
 End minimization
 Ecorr=   1694.20860538816     
 A_corr= -0.359162123995421     
 Ecorr_band=  -1694.56776751215     
 End Solvation calculations
RMM:   3    -0.139224753358E+03    0.16208E-03   -0.10205E-04  6918   0.434E-02    0.255E-02
 Begin Solvation calculations
  rms_SCF =   1.164592088307750E-003 tol =   1.164592088307750E-004
 Begin minimization
 Creating dielectric and ionic cavities
  area:      130.606931203115     
  volume:    642.642514358699     
  Acav:     6.856863888163547E-002
  Solving linear dielectric/ionic screening model
        iter                  A_solv                     rms
   LPB:       -0.427736002063793E+00   0.555063926968493E-02
   LPB:    0  -0.427735996103586E+00   0.523190364695261E-02  -0.203580E-04   0.000000E+00   0.287622E+02  -0.585540E-03
   LPB:    1  -0.427735902289490E+00   0.725220801444723E-03   0.951471E-02   0.000000E+00   0.733140E+02   0.341595E-19
   LPB:    2  -0.427735884688067E+00   0.316944545572816E-03   0.183299E-01   0.973901E-01   0.328196E+03   0.724886E-19
   LPB:    3  -0.427735877284917E+00   0.299746971182180E-03   0.278349E-01   0.276974E+00   0.212284E+03   0.459263E-18
   LPB:    4  -0.427735873379227E+00   0.296706736531393E-03   0.280209E-01   0.524069E+00   0.179399E+03   0.188741E-17
   LPB:    5  -0.427735870841153E+00   0.115207952219189E-03   0.247877E-01   0.734603E+00   0.214424E+03   0.621225E-17
  Finished solving LPB equations
  A_corr:   -0.359167231959518     
 End minimization
 Ecorr=   1694.20962884530     
 A_corr= -0.359167231959518     
 Ecorr_band=  -1694.56879607726     
 End Solvation calculations
RMM:   4    -0.139224748559E+03    0.47983E-05   -0.16964E-05  6545   0.181E-02
 Begin Solvation calculations
  rms_SCF =   1.164592088307750E-003 tol =   1.164592088307750E-004
 Begin minimization
 Creating dielectric and ionic cavities
  area:      130.606509243185     
  volume:    642.644810692823     
  Acav:     6.856841735267198E-002
  Solving linear dielectric/ionic screening model
        iter                  A_solv                     rms
   LPB:       -0.427688051000618E+00   0.567150401141377E-02
   LPB:    0  -0.427687980715567E+00   0.278279735939392E-02   0.699095E-04   0.000000E+00   0.287621E+02   0.201074E-02
   LPB:    1  -0.427687854090069E+00   0.154248956379865E-02   0.148105E-01   0.000000E+00   0.125784E+03   0.958448E-19
   LPB:    2  -0.427687830676334E+00   0.582447426651357E-03   0.131937E-01   0.207564E+00   0.173714E+03  -0.948355E-18
   LPB:    3  -0.427687822490329E+00   0.313652042931031E-03   0.228833E-01   0.201581E+00   0.161951E+03  -0.131265E-17
   LPB:    4  -0.427687819511492E+00   0.236635832786797E-03   0.238770E-01   0.348751E+00   0.146241E+03  -0.130918E-17
   LPB:    5  -0.427687817750137E+00   0.155084704024231E-03   0.245914E-01   0.574112E+00   0.222096E+03  -0.199045E-17
   LPB:    6  -0.427687816260726E+00   0.750155554229817E-04   0.365283E-01   0.569273E+00   0.139757E+03  -0.280766E-17
  Finished solving LPB equations
  A_corr:   -0.359119398908054     
 End minimization
 Ecorr=   1694.20317199019     
 A_corr= -0.359119398908054     
 Ecorr_band=  -1694.56229138909     
 End Solvation calculations
  87 F= -.13922475E+03 E0= -.13922608E+03  d E =0.142594E-04
quench:  g(F)=  0.000E+00 g(S)=  0.000E+00 dE (1.order)= 0.000E+00
 bond charge predicted
       N       E                     dE             d eps       ncg     rms          rms(c)
 Begin Solvation calculations
  rms_SCF =   1.164592088307750E-003 tol =   1.164592088307750E-004
 Begin minimization
 Creating dielectric and ionic cavities
  area:      130.612177153063     
  volume:    642.641931104834     
  Acav:     6.857139300535782E-002
  Solving linear dielectric/ionic screening model
        iter                  A_solv                     rms
   LPB:       -0.427723431294492E+00   0.486787480014953E-03
   LPB:    0  -0.427723431292454E+00   0.490691044779048E-03  -0.376461E-06   0.000000E+00   0.287622E+02  -0.108279E-04
   LPB:    1  -0.427705230034990E+00   0.264774181400047E-03   0.157979E-01   0.000000E+00   0.579023E+06   0.344075E-21
   LPB:    2  -0.427703362896798E+00   0.273327236572189E-03   0.267571E-01   0.605668E-01   0.604066E+05   0.351978E-18
   LPB:    3  -0.427702790035875E+00   0.546553676338780E-03   0.318806E-01   0.257505E+00   0.184646E+05  -0.176010E-18
   LPB:    4  -0.427702557834552E+00   0.151093403909388E-02   0.337771E-01   0.382578E+00   0.176199E+04  -0.127732E-17
   LPB:    5  -0.427702468062716E+00   0.230470349561957E-02   0.244751E-01   0.533548E+00   0.177204E+03  -0.357429E-17
   LPB:    6  -0.427702407662067E+00   0.797933870076241E-03   0.192585E-01   0.855071E+00   0.211620E+03  -0.218462E-18
   LPB:    7  -0.427702362314633E+00   0.580736409547216E-03   0.333641E-01   0.433366E+00   0.794962E+03   0.233503E-17
   LPB:    8  -0.427702337970376E+00   0.813871367817687E-03   0.300796E-01   0.595458E+00   0.176970E+03   0.428359E-17
   LPB:    9  -0.427702322167356E+00   0.406911029238420E-03   0.240265E-01   0.812690E+00   0.183696E+03   0.470730E-17
   LPB:   10  -0.427702309271703E+00   0.117034539363886E-03   0.350991E-01   0.558596E+00   0.516183E+03   0.107041E-16
   LPB:   11  -0.427702300476795E+00   0.563948154083265E-04   0.401655E-01   0.595979E+00   0.391299E+04   0.231876E-16
  Finished solving LPB equations
  A_corr:   -0.359130907471437     
 End minimization
 Ecorr=   1694.19858521005     
 A_corr= -0.359130907471437     
 Ecorr_band=  -1694.55771611752     
 End Solvation calculations
DAV:   1    -0.139224769944E+03   -0.16587E-04   -0.22868E-03 12612   0.132E-01    0.181E-02
 Begin Solvation calculations
  rms_SCF =   1.164592088307750E-003 tol =   1.164592088307750E-004
 Begin minimization
 Creating dielectric and ionic cavities
  area:      130.610025117337     
  volume:    642.636604730619     
  Acav:     6.857026318660182E-002
  Solving linear dielectric/ionic screening model
        iter                  A_solv                     rms
   LPB:       -0.427757526569296E+00   0.367307634677349E-01
   LPB:    0  -0.427757331995382E+00   0.356693196596210E-01  -0.116317E-03   0.000000E+00   0.287625E+02  -0.334557E-02
   LPB:    1  -0.427754160445068E+00   0.322642206314734E-02   0.883408E-02   0.000000E+00   0.635429E+02  -0.907380E-19
   LPB:    2  -0.427753859554620E+00   0.837647695413947E-03   0.156312E-01   0.536174E-01   0.162233E+03  -0.149219E-17
   LPB:    3  -0.427753805193891E+00   0.700460179184705E-03   0.242116E-01   0.116639E+00   0.190506E+03   0.124325E-17
   LPB:    4  -0.427753787289299E+00   0.521050005230286E-03   0.235787E-01   0.338207E+00   0.156100E+03   0.396799E-17
   LPB:    5  -0.427753777348805E+00   0.279461607760134E-03   0.247806E-01   0.528265E+00   0.247282E+03   0.586462E-17
   LPB:    6  -0.427753771208078E+00   0.162716892713190E-03   0.307592E-01   0.497679E+00   0.280529E+03   0.986127E-17
   LPB:    7  -0.427753767024082E+00   0.920433593410814E-04   0.340962E-01   0.614669E+00   0.536533E+03   0.126992E-16
  Finished solving LPB equations
  A_corr:   -0.359183503837480     
 End minimization
 Ecorr=   1694.22167026957     
 A_corr= -0.359183503837480     
 Ecorr_band=  -1694.58085377340     
 End Solvation calculations
RMM:   2    -0.139224812092E+03   -0.42147E-04   -0.27475E-04  7697   0.396E-02
 Begin Solvation calculations
  rms_SCF =   1.164592088307750E-003 tol =   1.164592088307750E-004
 Begin minimization
 Creating dielectric and ionic cavities
  area:      130.608610193897     
  volume:    642.638331037050     
  Acav:     6.856952035179595E-002
  Solving linear dielectric/ionic screening model
        iter                  A_solv                     rms
   LPB:       -0.427733880668980E+00   0.478375501975188E-01
   LPB:    0  -0.427733848445953E+00   0.477019133232551E-01   0.473353E-04   0.000000E+00   0.287624E+02   0.136148E-02
   LPB:    1  -0.427728484153233E+00   0.450388822235055E-02   0.868775E-02   0.000000E+00   0.624363E+02  -0.389647E-19
   LPB:    2  -0.427728025800923E+00   0.925883266841772E-03   0.157327E-01   0.471835E-01   0.121317E+03   0.127874E-17
   LPB:    3  -0.427727966304844E+00   0.508594857996330E-03   0.224133E-01   0.911145E-01   0.156998E+03   0.860023E-18
   LPB:    4  -0.427727948272751E+00   0.401784177234637E-03   0.262767E-01   0.258519E+00   0.204104E+03   0.197451E-17
   LPB:    5  -0.427727940972264E+00   0.312575578653696E-03   0.231974E-01   0.458604E+00   0.208899E+03   0.739490E-18
   LPB:    6  -0.427727937181082E+00   0.178238288673388E-03   0.254100E-01   0.474086E+00   0.164606E+03   0.290559E-17
   LPB:    7  -0.427727934789214E+00   0.852428541435308E-04   0.305369E-01   0.524980E+00   0.373148E+03   0.615392E-17
  Finished solving LPB equations
  A_corr:   -0.359158414437418     
 End minimization
 Ecorr=   1694.20634868563     
 A_corr= -0.359158414437418     
 Ecorr_band=  -1694.56550710007     
 End Solvation calculations
  88 F= -.13922481E+03 E0= -.13922614E+03  d E =-.635323E-04
quench:  g(F)=  0.000E+00 g(S)=  0.000E+00 dE (1.order)= 0.000E+00
 reached required accuracy - stopping structural energy minimisation
