 vasp.5.4.4.18Apr17-6-g9f103f2a35 (build Feb 06 2024 13:54:16) complex          
  
 POSCAR found type information on POSCAR  Pd N  O 
 04/POSCAR found :  3 types and      40 ions
 scaLAPACK will be used

 ----------------------------------------------------------------------------- 
|                                                                             |
|  ADVICE TO THIS USER RUNNING 'VASP/VAMP'   (HEAR YOUR MASTER'S VOICE ...):  |
|                                                                             |
|      You enforced a specific xc-type in the INCAR file,                     |
|      a different type was found on the POTCAR file                          |
|          I HOPE YOU KNOW, WHAT YOU ARE  DOING                               |
|                                                                             |
 ----------------------------------------------------------------------------- 

 LDA part: xc-table for Pade appr. of Perdew
 POSCAR found type information on POSCAR  Pd N  O 
 00/POSCAR found :  3 types and      40 ions
 POSCAR found type information on POSCAR  Pd N  O 
 06/POSCAR found :  3 types and      40 ions
 Jacobian:    21.0960049830057     
 POSCAR, INCAR and KPOINTS ok, starting setup
 FFT: planning ...
 WAVECAR not read
 entering main loop
       N       E                     dE             d eps       ncg     rms          rms(c)
DAV:   1     0.266811543566E+04    0.26681E+04   -0.17931E+05 11097   0.149E+03
DAV:   2    -0.101293965850E+02   -0.26782E+04   -0.25084E+04 12285   0.322E+02
DAV:   3    -0.184203159343E+03   -0.17407E+03   -0.15678E+03 13050   0.729E+01
DAV:   4    -0.191273810928E+03   -0.70707E+01   -0.67538E+01 12762   0.144E+01
DAV:   5    -0.191491393044E+03   -0.21758E+00   -0.21478E+00 12699   0.267E+00    0.377E+01
RMM:   6    -0.187555641068E+03    0.39358E+01   -0.44038E+01 11092   0.139E+01    0.294E+01
RMM:   7    -0.269450989274E+03   -0.81895E+02   -0.38244E+01 11145   0.962E+00    0.643E+01
RMM:   8    -0.195193298050E+03    0.74258E+02   -0.25673E+01 11089   0.807E+00    0.336E+01
RMM:   9    -0.192358702717E+03    0.28346E+01   -0.21012E+01 11094   0.842E+00    0.278E+01
RMM:  10    -0.191047798103E+03    0.13109E+01   -0.12162E+01 11098   0.640E+00    0.239E+01
RMM:  11    -0.183820902561E+03    0.72269E+01   -0.67419E+00 11094   0.497E+00    0.139E+01
RMM:  12    -0.182491295805E+03    0.13296E+01   -0.27437E+00 11094   0.320E+00    0.975E+00
RMM:  13    -0.182255679512E+03    0.23562E+00   -0.11867E+00 11099   0.206E+00    0.792E+00
RMM:  14    -0.181879282885E+03    0.37640E+00   -0.54719E-01 11094   0.140E+00    0.601E+00
RMM:  15    -0.181727797097E+03    0.15149E+00   -0.28808E-01 11092   0.102E+00    0.375E+00
RMM:  16    -0.181656130801E+03    0.71666E-01   -0.14993E-01 11098   0.744E-01    0.298E+00
RMM:  17    -0.181723670974E+03   -0.67540E-01   -0.80745E-02 11094   0.538E-01    0.432E+00
RMM:  18    -0.181703902565E+03    0.19768E-01   -0.38408E-02 11096   0.371E-01    0.388E+00
RMM:  19    -0.181601597589E+03    0.10230E+00   -0.43910E-02 11094   0.396E-01    0.168E+00
RMM:  20    -0.181580169328E+03    0.21428E-01   -0.19807E-02 11097   0.260E-01    0.791E-01
RMM:  21    -0.181575161038E+03    0.50083E-02   -0.72434E-03 11103   0.156E-01    0.625E-01
RMM:  22    -0.181570930603E+03    0.42304E-02   -0.35578E-03 11095   0.112E-01    0.373E-01
RMM:  23    -0.181568641529E+03    0.22891E-02   -0.17065E-03 11106   0.747E-02    0.211E-01
RMM:  24    -0.181567349574E+03    0.12920E-02   -0.13487E-03 10956   0.636E-02    0.289E-01
RMM:  25    -0.181566522911E+03    0.82666E-03   -0.50014E-04  8641   0.419E-02    0.207E-01
RMM:  26    -0.181566047994E+03    0.47492E-03   -0.38004E-04  7725   0.376E-02    0.195E-01
RMM:  27    -0.181565639425E+03    0.40857E-03   -0.22617E-04  6538   0.302E-02    0.165E-01
RMM:  28    -0.181565439485E+03    0.19994E-03   -0.10974E-04  6255   0.189E-02    0.119E-01
RMM:  29    -0.181565529279E+03   -0.89794E-04   -0.13665E-04  6331   0.222E-02
   1 F= -.18156553E+03 E0= -.18155744E+03  d E =-.181566E+03
quench:  g(F)=  0.000E+00 g(S)=  0.000E+00 dE (1.order)= 0.000E+00
 bond charge predicted
       N       E                     dE             d eps       ncg     rms          rms(c)
DAV:   1    -0.181573911005E+03   -0.84715E-02   -0.83106E-01 11394   0.140E+00    0.320E-01
RMM:   2    -0.181614389688E+03   -0.40479E-01   -0.33018E-02 11094   0.257E-01    0.208E+00
RMM:   3    -0.181581842511E+03    0.32547E-01   -0.55360E-03 11116   0.139E-01    0.965E-01
RMM:   4    -0.181575543743E+03    0.62988E-02   -0.28529E-03 11068   0.102E-01    0.323E-01
RMM:   5    -0.181575379068E+03    0.16468E-03   -0.13013E-03 11021   0.704E-02    0.270E-01
RMM:   6    -0.181575234944E+03    0.14412E-03   -0.89209E-04 10731   0.571E-02    0.235E-01
RMM:   7    -0.181575247610E+03   -0.12666E-04   -0.64324E-04 10187   0.490E-02
   2 F= -.18157525E+03 E0= -.18156735E+03  d E =-.971833E-02
quench:  g(F)=  0.000E+00 g(S)=  0.000E+00 dE (1.order)= 0.000E+00
 bond charge predicted
       N       E                     dE             d eps       ncg     rms          rms(c)
DAV:   1    -0.181570060208E+03    0.51747E-02   -0.95372E-01 11256   0.170E+00    0.345E-01
RMM:   2    -0.181610619535E+03   -0.40559E-01   -0.39470E-02 11104   0.311E-01    0.218E+00
RMM:   3    -0.181576142622E+03    0.34477E-01   -0.56369E-03 11118   0.136E-01    0.686E-01
RMM:   4    -0.181572542109E+03    0.36005E-02   -0.26966E-03 11080   0.102E-01    0.286E-01
RMM:   5    -0.181572816180E+03   -0.27407E-03   -0.15311E-03 11074   0.753E-02    0.340E-01
RMM:   6    -0.181572142488E+03    0.67369E-03   -0.10178E-03 11002   0.610E-02    0.194E-01
RMM:   7    -0.181572146762E+03   -0.42740E-05   -0.53513E-04  9340   0.442E-02
   3 F= -.18157215E+03 E0= -.18156416E+03  d E =0.310085E-02
quench:  g(F)=  0.000E+00 g(S)=  0.000E+00 dE (1.order)= 0.000E+00
 bond charge predicted
       N       E                     dE             d eps       ncg     rms          rms(c)
DAV:   1    -0.181575117112E+03   -0.29746E-02   -0.41434E-01 11316   0.979E-01    0.247E-01
RMM:   2    -0.181578653567E+03   -0.35365E-02   -0.17010E-02 11104   0.202E-01    0.579E-01
RMM:   3    -0.181579618498E+03   -0.96493E-03   -0.24996E-03 11089   0.959E-02    0.707E-01
RMM:   4    -0.181576270377E+03    0.33481E-02   -0.60444E-04  9628   0.412E-02    0.267E-01
RMM:   5    -0.181576028242E+03    0.24214E-03   -0.77297E-04 10742   0.553E-02    0.218E-01
RMM:   6    -0.181575816788E+03    0.21145E-03   -0.39831E-04  7337   0.384E-02    0.147E-01
RMM:   7    -0.181575753146E+03    0.63641E-04   -0.26825E-04  6496   0.349E-02
   4 F= -.18157575E+03 E0= -.18156771E+03  d E =-.360638E-02
quench:  g(F)=  0.000E+00 g(S)=  0.000E+00 dE (1.order)= 0.000E+00
 bond charge predicted
       N       E                     dE             d eps       ncg     rms          rms(c)
DAV:   1    -0.181575306763E+03    0.51002E-03   -0.41017E-02 11340   0.354E-01    0.104E-01
RMM:   2    -0.181576174706E+03   -0.86794E-03   -0.26232E-03 10974   0.933E-02    0.301E-01
RMM:   3    -0.181575606810E+03    0.56790E-03   -0.58726E-04 10145   0.472E-02    0.166E-01
RMM:   4    -0.181575948406E+03   -0.34160E-03   -0.13520E-04  6096   0.213E-02    0.268E-01
RMM:   5    -0.181575420962E+03    0.52744E-03   -0.12210E-04  6016   0.217E-02    0.820E-02
RMM:   6    -0.181575402652E+03    0.18309E-04   -0.60018E-05  5791   0.178E-02
   5 F= -.18157540E+03 E0= -.18156746E+03  d E =0.350494E-03
quench:  g(F)=  0.000E+00 g(S)=  0.000E+00 dE (1.order)= 0.000E+00
 bond charge predicted
       N       E                     dE             d eps       ncg     rms          rms(c)
DAV:   1    -0.181575173096E+03    0.24787E-03   -0.13830E-02 11304   0.203E-01    0.516E-02
RMM:   2    -0.181576092178E+03   -0.91908E-03   -0.89507E-04  9378   0.559E-02    0.324E-01
RMM:   3    -0.181575674332E+03    0.41785E-03   -0.20081E-04  6245   0.278E-02    0.243E-01
RMM:   4    -0.181575231766E+03    0.44257E-03   -0.10621E-04  5976   0.221E-02    0.349E-02
RMM:   5    -0.181575227108E+03    0.46575E-05   -0.29500E-05  5625   0.113E-02
   6 F= -.18157523E+03 E0= -.18156725E+03  d E =0.175544E-03
quench:  g(F)=  0.000E+00 g(S)=  0.000E+00 dE (1.order)= 0.000E+00
 bond charge predicted
       N       E                     dE             d eps       ncg     rms          rms(c)
DAV:   1    -0.181574752116E+03    0.47965E-03   -0.10513E-02 11322   0.199E-01    0.319E-02
RMM:   2    -0.181575080884E+03   -0.32877E-03   -0.34884E-04  6722   0.365E-02    0.190E-01
RMM:   3    -0.181574901306E+03    0.17958E-03   -0.80877E-05  5905   0.189E-02    0.127E-01
RMM:   4    -0.181574786353E+03    0.11495E-03   -0.34505E-05  5667   0.129E-02    0.272E-02
RMM:   5    -0.181574785945E+03    0.40808E-06   -0.98233E-06  4844   0.699E-03
   7 F= -.18157479E+03 E0= -.18156682E+03  d E =0.441164E-03
quench:  g(F)=  0.000E+00 g(S)=  0.000E+00 dE (1.order)= 0.000E+00
 bond charge predicted
       N       E                     dE             d eps       ncg     rms          rms(c)
DAV:   1    -0.181573990223E+03    0.79613E-03   -0.24535E-02 11130   0.304E-01    0.380E-02
RMM:   2    -0.181574192440E+03   -0.20222E-03   -0.56260E-04  7117   0.457E-02    0.139E-01
RMM:   3    -0.181574141232E+03    0.51208E-04   -0.77555E-05  5845   0.185E-02
   8 F= -.18157414E+03 E0= -.18156619E+03  d E =0.644713E-03
quench:  g(F)=  0.000E+00 g(S)=  0.000E+00 dE (1.order)= 0.000E+00
 bond charge predicted
       N       E                     dE             d eps       ncg     rms          rms(c)
DAV:   1    -0.181573131319E+03    0.10611E-02   -0.29577E-02 11088   0.314E-01    0.716E-02
RMM:   2    -0.181573905727E+03   -0.77441E-03   -0.14569E-03 10745   0.724E-02    0.289E-01
RMM:   3    -0.181573559129E+03    0.34660E-03   -0.35575E-04  7361   0.381E-02    0.228E-01
RMM:   4    -0.181573219623E+03    0.33951E-03   -0.80479E-05  5942   0.191E-02    0.770E-02
RMM:   5    -0.181573180775E+03    0.38848E-04   -0.37390E-05  5673   0.124E-02
   9 F= -.18157318E+03 E0= -.18156523E+03  d E =0.960457E-03
quench:  g(F)=  0.000E+00 g(S)=  0.000E+00 dE (1.order)= 0.000E+00
 bond charge predicted
       N       E                     dE             d eps       ncg     rms          rms(c)
DAV:   1    -0.181572789092E+03    0.43053E-03   -0.19709E-02 11130   0.249E-01    0.542E-02
RMM:   2    -0.181573367138E+03   -0.57805E-03   -0.10260E-03  9218   0.583E-02    0.250E-01
RMM:   3    -0.181573315604E+03    0.51534E-04   -0.18070E-04  6130   0.261E-02
  10 F= -.18157332E+03 E0= -.18156537E+03  d E =-.134829E-03
quench:  g(F)=  0.000E+00 g(S)=  0.000E+00 dE (1.order)= 0.000E+00
 bond charge predicted
       N       E                     dE             d eps       ncg     rms          rms(c)
DAV:   1    -0.181572662656E+03    0.70448E-03   -0.74437E-03 11262   0.181E-01    0.539E-02
RMM:   2    -0.181573042538E+03   -0.37988E-03   -0.77205E-04  8267   0.537E-02    0.200E-01
RMM:   3    -0.181572939396E+03    0.10314E-03   -0.18300E-04  6202   0.291E-02    0.189E-01
RMM:   4    -0.181572734009E+03    0.20539E-03   -0.58364E-05  5883   0.160E-02    0.867E-02
RMM:   5    -0.181572676832E+03    0.57177E-04   -0.29058E-05  5630   0.109E-02
  11 F= -.18157268E+03 E0= -.18156474E+03  d E =0.638772E-03
quench:  g(F)=  0.000E+00 g(S)=  0.000E+00 dE (1.order)= 0.000E+00
 bond charge predicted
       N       E                     dE             d eps       ncg     rms          rms(c)
DAV:   1    -0.181572383050E+03    0.35096E-03   -0.70539E-03 11088   0.163E-01    0.311E-02
RMM:   2    -0.181572517213E+03   -0.13416E-03   -0.23179E-04  6286   0.311E-02    0.121E-01
RMM:   3    -0.181572535126E+03   -0.17913E-04   -0.60326E-05  5848   0.172E-02
  12 F= -.18157254E+03 E0= -.18156459E+03  d E =0.141706E-03
quench:  g(F)=  0.000E+00 g(S)=  0.000E+00 dE (1.order)= 0.000E+00
 bond charge predicted
       N       E                     dE             d eps       ncg     rms          rms(c)
DAV:   1    -0.181571887799E+03    0.62941E-03   -0.15010E-02 11160   0.247E-01    0.505E-02
RMM:   2    -0.181572932639E+03   -0.10448E-02   -0.67837E-04  8413   0.527E-02    0.370E-01
RMM:   3    -0.181572223832E+03    0.70881E-03   -0.20322E-04  6228   0.276E-02    0.188E-01
RMM:   4    -0.181571920514E+03    0.30332E-03   -0.73686E-05  5819   0.183E-02    0.473E-02
RMM:   5    -0.181571915134E+03    0.53796E-05   -0.24687E-05  5648   0.115E-02
  13 F= -.18157192E+03 E0= -.18156395E+03  d E =0.619991E-03
quench:  g(F)=  0.000E+00 g(S)=  0.000E+00 dE (1.order)= 0.000E+00
 bond charge predicted
       N       E                     dE             d eps       ncg     rms          rms(c)
DAV:   1    -0.181571385829E+03    0.53468E-03   -0.20248E-02 11136   0.263E-01    0.421E-02
RMM:   2    -0.181571993839E+03   -0.60801E-03   -0.69485E-04  7904   0.497E-02    0.257E-01
RMM:   3    -0.181571592779E+03    0.40106E-03   -0.12005E-04  5966   0.223E-02    0.148E-01
RMM:   4    -0.181571438801E+03    0.15398E-03   -0.59678E-05  5744   0.164E-02    0.357E-02
RMM:   5    -0.181571437260E+03    0.15410E-05   -0.19302E-05  5621   0.903E-03
  14 F= -.18157144E+03 E0= -.18156351E+03  d E =0.477874E-03
quench:  g(F)=  0.000E+00 g(S)=  0.000E+00 dE (1.order)= 0.000E+00
 bond charge predicted
       N       E                     dE             d eps       ncg     rms          rms(c)
DAV:   1    -0.181571154371E+03    0.28443E-03   -0.10091E-02 11088   0.166E-01    0.365E-02
RMM:   2    -0.181571301296E+03   -0.14693E-03   -0.53510E-04  6901   0.399E-02    0.116E-01
RMM:   3    -0.181571366293E+03   -0.64997E-04   -0.64819E-05  5876   0.168E-02
  15 F= -.18157137E+03 E0= -.18156342E+03  d E =0.709672E-04
quench:  g(F)=  0.000E+00 g(S)=  0.000E+00 dE (1.order)= 0.000E+00
 bond charge predicted
       N       E                     dE             d eps       ncg     rms          rms(c)
DAV:   1    -0.181571031148E+03    0.27015E-03   -0.57446E-03 11265   0.158E-01    0.569E-02
RMM:   2    -0.181571932412E+03   -0.90126E-03   -0.73189E-04  9336   0.539E-02    0.349E-01
RMM:   3    -0.181571813728E+03    0.11868E-03   -0.28845E-04  6844   0.327E-02    0.303E-01
RMM:   4    -0.181571029449E+03    0.78428E-03   -0.10352E-04  6019   0.202E-02    0.403E-02
RMM:   5    -0.181571030296E+03   -0.84710E-06   -0.28438E-05  5710   0.123E-02
  16 F= -.18157103E+03 E0= -.18156306E+03  d E =0.335997E-03
quench:  g(F)=  0.000E+00 g(S)=  0.000E+00 dE (1.order)= 0.000E+00
 bond charge predicted
       N       E                     dE             d eps       ncg     rms          rms(c)
DAV:   1    -0.181570766560E+03    0.26289E-03   -0.51211E-03 11385   0.134E-01    0.246E-02
RMM:   2    -0.181571234084E+03   -0.46752E-03   -0.20492E-04  6348   0.276E-02    0.233E-01
RMM:   3    -0.181570800014E+03    0.43407E-03   -0.55860E-05  5826   0.159E-02    0.586E-02
RMM:   4    -0.181570778466E+03    0.21548E-04   -0.23532E-05  5619   0.107E-02
  17 F= -.18157078E+03 E0= -.18156287E+03  d E =0.251830E-03
quench:  g(F)=  0.000E+00 g(S)=  0.000E+00 dE (1.order)= 0.000E+00
 bond charge predicted
       N       E                     dE             d eps       ncg     rms          rms(c)
DAV:   1    -0.181570330873E+03    0.46914E-03   -0.12304E-02 11271   0.209E-01    0.264E-02
RMM:   2    -0.181570395905E+03   -0.65033E-04   -0.28722E-04  6328   0.324E-02
  18 F= -.18157040E+03 E0= -.18156245E+03  d E =0.382561E-03
quench:  g(F)=  0.000E+00 g(S)=  0.000E+00 dE (1.order)= 0.000E+00
 bond charge predicted
       N       E                     dE             d eps       ncg     rms          rms(c)
DAV:   1    -0.181570035562E+03    0.29531E-03   -0.12146E-02 11142   0.207E-01    0.758E-02
RMM:   2    -0.181578486288E+03   -0.84507E-02   -0.17203E-03 10962   0.737E-02    0.104E+00
RMM:   3    -0.181570374858E+03    0.81114E-02   -0.89226E-04 10538   0.503E-02    0.163E-01
RMM:   4    -0.181570031685E+03    0.34317E-03   -0.11824E-04  6260   0.252E-02    0.312E-02
RMM:   5    -0.181570039295E+03   -0.76101E-05   -0.32955E-05  5780   0.134E-02
  19 F= -.18157004E+03 E0= -.18156213E+03  d E =0.356610E-03
quench:  g(F)=  0.000E+00 g(S)=  0.000E+00 dE (1.order)= 0.000E+00
 bond charge predicted
       N       E                     dE             d eps       ncg     rms          rms(c)
DAV:   1    -0.181569929192E+03    0.10249E-03   -0.54336E-03 11409   0.126E-01    0.406E-02
RMM:   2    -0.181571358237E+03   -0.14290E-02   -0.44274E-04  7384   0.379E-02    0.407E-01
RMM:   3    -0.181570118246E+03    0.12400E-02   -0.17740E-04  6221   0.285E-02    0.164E-01
RMM:   4    -0.181569933421E+03    0.18482E-03   -0.72492E-05  5988   0.190E-02    0.337E-02
RMM:   5    -0.181569932901E+03    0.52042E-06   -0.14967E-05  5366   0.880E-03
  20 F= -.18156993E+03 E0= -.18156201E+03  d E =0.106395E-03
quench:  g(F)=  0.000E+00 g(S)=  0.000E+00 dE (1.order)= 0.000E+00
 bond charge predicted
       N       E                     dE             d eps       ncg     rms          rms(c)
DAV:   1    -0.181569690829E+03    0.24259E-03   -0.64706E-03 11211   0.145E-01    0.251E-02
RMM:   2    -0.181569771246E+03   -0.80417E-04   -0.18857E-04  6205   0.262E-02
  21 F= -.18156977E+03 E0= -.18156183E+03  d E =0.161655E-03
quench:  g(F)=  0.000E+00 g(S)=  0.000E+00 dE (1.order)= 0.000E+00
 bond charge predicted
       N       E                     dE             d eps       ncg     rms          rms(c)
DAV:   1    -0.181569587081E+03    0.10375E-03   -0.74282E-03 11400   0.181E-01    0.128E-01
RMM:   2    -0.181606943435E+03   -0.37356E-01   -0.50015E-03 11088   0.123E-01    0.219E+00
RMM:   3    -0.181570400715E+03    0.36543E-01   -0.35268E-03 10987   0.100E-01    0.209E-01
RMM:   4    -0.181569520181E+03    0.88053E-03   -0.30427E-04  6887   0.439E-02    0.665E-02
RMM:   5    -0.181569514434E+03    0.57470E-05   -0.76063E-05  5949   0.200E-02
  22 F= -.18156951E+03 E0= -.18156156E+03  d E =0.256812E-03
quench:  g(F)=  0.000E+00 g(S)=  0.000E+00 dE (1.order)= 0.000E+00
 bond charge predicted
       N       E                     dE             d eps       ncg     rms          rms(c)
DAV:   1    -0.181569328267E+03    0.19191E-03   -0.41261E-03 11391   0.119E-01    0.346E-02
RMM:   2    -0.181569577424E+03   -0.24916E-03   -0.24496E-04  6532   0.332E-02    0.163E-01
RMM:   3    -0.181569594535E+03   -0.17110E-04   -0.96027E-05  5975   0.208E-02
  23 F= -.18156959E+03 E0= -.18156165E+03  d E =-.801008E-04
quench:  g(F)=  0.000E+00 g(S)=  0.000E+00 dE (1.order)= 0.000E+00
 bond charge predicted
       N       E                     dE             d eps       ncg     rms          rms(c)
DAV:   1    -0.181569005284E+03    0.57214E-03   -0.11048E-02 11172   0.209E-01    0.401E-02
RMM:   2    -0.181569509735E+03   -0.50445E-03   -0.40910E-04  7161   0.473E-02    0.261E-01
RMM:   3    -0.181569262358E+03    0.24738E-03   -0.12308E-04  5986   0.234E-02    0.167E-01
RMM:   4    -0.181569019086E+03    0.24327E-03   -0.45998E-05  5727   0.147E-02    0.370E-02
RMM:   5    -0.181569017197E+03    0.18890E-05   -0.13000E-05  5330   0.847E-03
  24 F= -.18156902E+03 E0= -.18156110E+03  d E =0.577337E-03
quench:  g(F)=  0.000E+00 g(S)=  0.000E+00 dE (1.order)= 0.000E+00
 bond charge predicted
       N       E                     dE             d eps       ncg     rms          rms(c)
DAV:   1    -0.181568705208E+03    0.31388E-03   -0.13035E-02 11295   0.212E-01    0.437E-02
RMM:   2    -0.181569823852E+03   -0.11186E-02   -0.65096E-04  8533   0.464E-02    0.351E-01
RMM:   3    -0.181568865745E+03    0.95811E-03   -0.14077E-04  6024   0.241E-02    0.146E-01
RMM:   4    -0.181568731520E+03    0.13422E-03   -0.78466E-05  5927   0.191E-02    0.391E-02
RMM:   5    -0.181568726890E+03    0.46304E-05   -0.22301E-05  5597   0.981E-03
  25 F= -.18156873E+03 E0= -.18156079E+03  d E =0.290307E-03
quench:  g(F)=  0.000E+00 g(S)=  0.000E+00 dE (1.order)= 0.000E+00
 bond charge predicted
       N       E                     dE             d eps       ncg     rms          rms(c)
DAV:   1    -0.181568526800E+03    0.20472E-03   -0.10735E-02 11136   0.185E-01    0.306E-02
RMM:   2    -0.181568933509E+03   -0.40671E-03   -0.42730E-04  6757   0.371E-02    0.210E-01
RMM:   3    -0.181568596313E+03    0.33720E-03   -0.60171E-05  5843   0.164E-02    0.772E-02
RMM:   4    -0.181568560305E+03    0.36007E-04   -0.29182E-05  5682   0.117E-02
  26 F= -.18156856E+03 E0= -.18156068E+03  d E =0.166585E-03
quench:  g(F)=  0.000E+00 g(S)=  0.000E+00 dE (1.order)= 0.000E+00
 bond charge predicted
       N       E                     dE             d eps       ncg     rms          rms(c)
DAV:   1    -0.181568474460E+03    0.12185E-03   -0.35015E-03 11100   0.100E-01    0.255E-02
RMM:   2    -0.181568597426E+03   -0.12297E-03   -0.23601E-04  6243   0.270E-02    0.109E-01
RMM:   3    -0.181568591437E+03    0.59889E-05   -0.44545E-05  5832   0.140E-02
  27 F= -.18156859E+03 E0= -.18156069E+03  d E =-.311316E-04
quench:  g(F)=  0.000E+00 g(S)=  0.000E+00 dE (1.order)= 0.000E+00
 bond charge predicted
       N       E                     dE             d eps       ncg     rms          rms(c)
DAV:   1    -0.181568358082E+03    0.23934E-03   -0.31919E-03 11175   0.116E-01    0.310E-02
RMM:   2    -0.181568575696E+03   -0.21761E-03   -0.21395E-04  6422   0.317E-02    0.169E-01
RMM:   3    -0.181568535290E+03    0.40405E-04   -0.81701E-05  5955   0.202E-02
  28 F= -.18156854E+03 E0= -.18156061E+03  d E =0.561467E-04
quench:  g(F)=  0.000E+00 g(S)=  0.000E+00 dE (1.order)= 0.000E+00
 bond charge predicted
       N       E                     dE             d eps       ncg     rms          rms(c)
DAV:   1    -0.181568236540E+03    0.33916E-03   -0.51657E-03 11160   0.150E-01    0.474E-02
RMM:   2    -0.181568510916E+03   -0.27438E-03   -0.42684E-04  7011   0.372E-02    0.167E-01
RMM:   3    -0.181568756726E+03   -0.24581E-03   -0.12537E-04  6068   0.224E-02    0.266E-01
RMM:   4    -0.181568248172E+03    0.50855E-03   -0.79969E-05  5896   0.193E-02    0.390E-02
RMM:   5    -0.181568237495E+03    0.10677E-04   -0.15226E-05  5458   0.865E-03
  29 F= -.18156824E+03 E0= -.18156035E+03  d E =0.297796E-03
quench:  g(F)=  0.000E+00 g(S)=  0.000E+00 dE (1.order)= 0.000E+00
 bond charge predicted
       N       E                     dE             d eps       ncg     rms          rms(c)
DAV:   1    -0.181568077163E+03    0.17101E-03   -0.37169E-03 11235   0.110E-01    0.249E-02
RMM:   2    -0.181568751575E+03   -0.67441E-03   -0.17469E-04  6305   0.238E-02    0.280E-01
RMM:   3    -0.181568111244E+03    0.64033E-03   -0.69857E-05  5944   0.186E-02    0.760E-02
RMM:   4    -0.181568078769E+03    0.32476E-04   -0.24413E-05  5706   0.112E-02
  30 F= -.18156808E+03 E0= -.18156017E+03  d E =0.158726E-03
quench:  g(F)=  0.000E+00 g(S)=  0.000E+00 dE (1.order)= 0.000E+00
 bond charge predicted
       N       E                     dE             d eps       ncg     rms          rms(c)
DAV:   1    -0.181567825379E+03    0.28587E-03   -0.74017E-03 11112   0.160E-01    0.252E-02
RMM:   2    -0.181567920503E+03   -0.95124E-04   -0.22283E-04  6278   0.288E-02
  31 F= -.18156792E+03 E0= -.18155999E+03  d E =0.158265E-03
quench:  g(F)=  0.000E+00 g(S)=  0.000E+00 dE (1.order)= 0.000E+00
 bond charge predicted
       N       E                     dE             d eps       ncg     rms          rms(c)
DAV:   1    -0.181567675306E+03    0.15007E-03   -0.89512E-03 11181   0.183E-01    0.104E-01
RMM:   2    -0.181597655438E+03   -0.29980E-01   -0.39556E-03 11091   0.109E-01    0.195E+00
RMM:   3    -0.181568165125E+03    0.29490E-01   -0.26695E-03 10966   0.891E-02    0.135E-01
RMM:   4    -0.181567659980E+03    0.50515E-03   -0.21425E-04  6486   0.378E-02    0.660E-02
RMM:   5    -0.181567629295E+03    0.30685E-04   -0.58475E-05  5877   0.165E-02
  32 F= -.18156763E+03 E0= -.18155977E+03  d E =0.291208E-03
quench:  g(F)=  0.000E+00 g(S)=  0.000E+00 dE (1.order)= 0.000E+00
 bond charge predicted
       N       E                     dE             d eps       ncg     rms          rms(c)
DAV:   1    -0.181567555920E+03    0.10406E-03   -0.37829E-03 11388   0.105E-01    0.325E-02
RMM:   2    -0.181567892101E+03   -0.33618E-03   -0.30182E-04  6498   0.337E-02    0.189E-01
RMM:   3    -0.181567710902E+03    0.18120E-03   -0.74055E-05  5937   0.181E-02    0.145E-01
RMM:   4    -0.181567567026E+03    0.14388E-03   -0.42309E-05  5703   0.138E-02    0.246E-02
RMM:   5    -0.181567564009E+03    0.30164E-05   -0.90376E-06  4649   0.672E-03
  33 F= -.18156756E+03 E0= -.18155967E+03  d E =0.652858E-04
quench:  g(F)=  0.000E+00 g(S)=  0.000E+00 dE (1.order)= 0.000E+00
 bond charge predicted
       N       E                     dE             d eps       ncg     rms          rms(c)
DAV:   1    -0.181567419582E+03    0.14744E-03   -0.39849E-03 11250   0.119E-01    0.214E-02
RMM:   2    -0.181567485125E+03   -0.65543E-04   -0.12313E-04  5969   0.226E-02
  34 F= -.18156749E+03 E0= -.18155955E+03  d E =0.788849E-04
quench:  g(F)=  0.000E+00 g(S)=  0.000E+00 dE (1.order)= 0.000E+00
 bond charge predicted
       N       E                     dE             d eps       ncg     rms          rms(c)
DAV:   1    -0.181567262135E+03    0.15745E-03   -0.52924E-03 11148   0.138E-01    0.560E-02
RMM:   2    -0.181575177979E+03   -0.79158E-02   -0.10812E-03 10672   0.565E-02    0.994E-01
RMM:   3    -0.181567325685E+03    0.78523E-02   -0.68074E-04 10098   0.485E-02    0.648E-02
RMM:   4    -0.181567235891E+03    0.89794E-04   -0.67934E-05  6085   0.207E-02
  35 F= -.18156724E+03 E0= -.18155938E+03  d E =0.249234E-03
quench:  g(F)=  0.000E+00 g(S)=  0.000E+00 dE (1.order)= 0.000E+00
 bond charge predicted
       N       E                     dE             d eps       ncg     rms          rms(c)
DAV:   1    -0.181567136521E+03    0.18916E-03   -0.60209E-03 11388   0.146E-01    0.366E-02
RMM:   2    -0.181567493667E+03   -0.35715E-03   -0.34802E-04  6941   0.381E-02    0.201E-01
RMM:   3    -0.181567393044E+03    0.10062E-03   -0.11722E-04  5999   0.232E-02    0.181E-01
RMM:   4    -0.181567150565E+03    0.24248E-03   -0.39102E-05  5750   0.127E-02    0.282E-02
RMM:   5    -0.181567146586E+03    0.39793E-05   -0.95443E-06  4568   0.697E-03
  36 F= -.18156715E+03 E0= -.18155925E+03  d E =0.893052E-04
quench:  g(F)=  0.000E+00 g(S)=  0.000E+00 dE (1.order)= 0.000E+00
 bond charge predicted
       N       E                     dE             d eps       ncg     rms          rms(c)
DAV:   1    -0.181567004492E+03    0.14607E-03   -0.66290E-03 11202   0.148E-01    0.279E-02
RMM:   2    -0.181567089659E+03   -0.85166E-04   -0.27944E-04  6355   0.276E-02
  37 F= -.18156709E+03 E0= -.18155920E+03  d E =0.569270E-04
quench:  g(F)=  0.000E+00 g(S)=  0.000E+00 dE (1.order)= 0.000E+00
 bond charge predicted
       N       E                     dE             d eps       ncg     rms          rms(c)
DAV:   1    -0.181567075727E+03   -0.71234E-04   -0.48659E-03 10998   0.144E-01    0.141E-01
RMM:   2    -0.181619415543E+03   -0.52340E-01   -0.66510E-03 11088   0.139E-01    0.258E+00
RMM:   3    -0.181568044652E+03    0.51371E-01   -0.47649E-03 11016   0.117E-01    0.201E-01
RMM:   4    -0.181566991382E+03    0.10533E-02   -0.36043E-04  7334   0.480E-02    0.712E-02
RMM:   5    -0.181566986145E+03    0.52371E-05   -0.92495E-05  6016   0.214E-02
  38 F= -.18156699E+03 E0= -.18155917E+03  d E =0.103514E-03
quench:  g(F)=  0.000E+00 g(S)=  0.000E+00 dE (1.order)= 0.000E+00
 bond charge predicted
       N       E                     dE             d eps       ncg     rms          rms(c)
DAV:   1    -0.181566876425E+03    0.11496E-03   -0.18630E-03 11169   0.909E-02    0.279E-02
RMM:   2    -0.181566956903E+03   -0.80478E-04   -0.16136E-04  6044   0.284E-02
  39 F= -.18156696E+03 E0= -.18155912E+03  d E =0.292417E-04
quench:  g(F)=  0.000E+00 g(S)=  0.000E+00 dE (1.order)= 0.000E+00
 bond charge predicted
       N       E                     dE             d eps       ncg     rms          rms(c)
DAV:   1    -0.181566749831E+03    0.12659E-03   -0.44272E-03 11112   0.144E-01    0.620E-02
RMM:   2    -0.181577296755E+03   -0.10547E-01   -0.13670E-03 10898   0.644E-02    0.114E+00
RMM:   3    -0.181566904607E+03    0.10392E-01   -0.92556E-04 10556   0.548E-02    0.112E-01
RMM:   4    -0.181566730944E+03    0.17366E-03   -0.97881E-05  6116   0.255E-02    0.292E-02
RMM:   5    -0.181566736666E+03   -0.57217E-05   -0.24788E-05  5803   0.114E-02
  40 F= -.18156674E+03 E0= -.18155886E+03  d E =0.220237E-03
quench:  g(F)=  0.000E+00 g(S)=  0.000E+00 dE (1.order)= 0.000E+00
 bond charge predicted
       N       E                     dE             d eps       ncg     rms          rms(c)
DAV:   1    -0.181566570426E+03    0.16052E-03   -0.80825E-03 11361   0.168E-01    0.298E-02
RMM:   2    -0.181566784472E+03   -0.21405E-03   -0.28200E-04  6490   0.296E-02    0.153E-01
RMM:   3    -0.181566685377E+03    0.99095E-04   -0.53236E-05  5872   0.159E-02
  41 F= -.18156669E+03 E0= -.18155881E+03  d E =0.512895E-04
quench:  g(F)=  0.000E+00 g(S)=  0.000E+00 dE (1.order)= 0.000E+00
 bond charge predicted
       N       E                     dE             d eps       ncg     rms          rms(c)
DAV:   1    -0.181566455235E+03    0.32924E-03   -0.61619E-03 11088   0.150E-01    0.418E-02
RMM:   2    -0.181567182498E+03   -0.72726E-03   -0.50657E-04  7606   0.450E-02    0.300E-01
RMM:   3    -0.181566743833E+03    0.43867E-03   -0.14732E-04  6071   0.248E-02    0.187E-01
RMM:   4    -0.181566477540E+03    0.26629E-03   -0.62021E-05  5943   0.166E-02    0.362E-02
RMM:   5    -0.181566463734E+03    0.13806E-04   -0.12899E-05  4588   0.750E-03
  42 F= -.18156646E+03 E0= -.18155859E+03  d E =0.221642E-03
quench:  g(F)=  0.000E+00 g(S)=  0.000E+00 dE (1.order)= 0.000E+00
 bond charge predicted
       N       E                     dE             d eps       ncg     rms          rms(c)
DAV:   1    -0.181566404198E+03    0.73342E-04   -0.25227E-03 10890   0.833E-02    0.222E-02
RMM:   2    -0.181566508393E+03   -0.10419E-03   -0.16247E-04  6060   0.221E-02    0.107E-01
RMM:   3    -0.181566480111E+03    0.28282E-04   -0.30405E-05  5785   0.118E-02
  43 F= -.18156648E+03 E0= -.18155860E+03  d E =-.163762E-04
quench:  g(F)=  0.000E+00 g(S)=  0.000E+00 dE (1.order)= 0.000E+00
 bond charge predicted
       N       E                     dE             d eps       ncg     rms          rms(c)
DAV:   1    -0.181566299376E+03    0.20902E-03   -0.33033E-03 11244   0.118E-01    0.271E-02
RMM:   2    -0.181566419971E+03   -0.12059E-03   -0.17614E-04  6183   0.290E-02    0.125E-01
RMM:   3    -0.181566384905E+03    0.35066E-04   -0.62037E-05  5853   0.180E-02
  44 F= -.18156638E+03 E0= -.18155852E+03  d E =0.952054E-04
quench:  g(F)=  0.000E+00 g(S)=  0.000E+00 dE (1.order)= 0.000E+00
 reached required accuracy - stopping structural energy minimisation
