 vasp.5.4.4.18Apr17-6-g9f103f2a35 (build Feb 06 2024 13:54:16) complex          
  
 POSCAR found type information on POSCAR  Cu Pd Cu N  O 
 03/POSCAR found :  5 types and      40 ions
 scaLAPACK will be used

 ----------------------------------------------------------------------------- 
|                                                                             |
|  ADVICE TO THIS USER RUNNING 'VASP/VAMP'   (HEAR YOUR MASTER'S VOICE ...):  |
|                                                                             |
|      You enforced a specific xc-type in the INCAR file,                     |
|      a different type was found on the POTCAR file                          |
|          I HOPE YOU KNOW, WHAT YOU ARE  DOING                               |
|                                                                             |
 ----------------------------------------------------------------------------- 

 LDA part: xc-table for Pade appr. of Perdew
 POSCAR found type information on POSCAR  Cu Pd Cu N  O 
 00/POSCAR found :  5 types and      40 ions
 POSCAR found type information on POSCAR  Cu Pd Cu N  O 
 06/POSCAR found :  5 types and      40 ions
 Jacobian:    20.5888137679208     
 POSCAR, INCAR and KPOINTS ok, starting setup
 FFT: planning ...
 WAVECAR not read
 entering main loop
       N       E                     dE             d eps       ncg     rms          rms(c)
DAV:   1     0.418229842139E+04    0.41823E+04   -0.17834E+05  4032   0.202E+03
DAV:   2     0.610734373020E+03   -0.35716E+04   -0.34439E+04  4050   0.460E+02
DAV:   3    -0.291221614206E+02   -0.63986E+03   -0.58793E+03  4797   0.232E+02
DAV:   4    -0.148885344618E+03   -0.11976E+03   -0.10703E+03  6714   0.940E+01
DAV:   5    -0.162326297603E+03   -0.13441E+02   -0.12956E+02  6381   0.304E+01    0.434E+01
RMM:   6    -0.164664000945E+03   -0.23377E+01   -0.35653E+02  4087   0.943E+01    0.447E+01
RMM:   7    -0.164423419111E+03    0.24058E+00   -0.12003E+02  4150   0.442E+01    0.333E+01
RMM:   8    -0.146116737113E+03    0.18307E+02   -0.15682E+01  4096   0.167E+01    0.236E+01
RMM:   9    -0.138773666386E+03    0.73431E+01   -0.53376E+00  4104   0.102E+01    0.135E+01
RMM:  10    -0.136118549549E+03    0.26551E+01   -0.72883E+00  4073   0.100E+01    0.996E+00
RMM:  11    -0.133923724308E+03    0.21948E+01   -0.32388E+00  4110   0.521E+00    0.462E+00
RMM:  12    -0.133820383168E+03    0.10334E+00   -0.78645E-01  4123   0.362E+00    0.501E+00
RMM:  13    -0.133656421755E+03    0.16396E+00   -0.18028E-01  4110   0.165E+00    0.305E+00
RMM:  14    -0.133563995267E+03    0.92426E-01   -0.23083E-01  4087   0.177E+00    0.240E+00
RMM:  15    -0.133475803448E+03    0.88192E-01   -0.23212E-01  4135   0.161E+00    0.180E+00
RMM:  16    -0.133467569691E+03    0.82338E-02   -0.87869E-02  4147   0.907E-01    0.133E+00
RMM:  17    -0.133460538249E+03    0.70314E-02   -0.95033E-03  4798   0.252E-01    0.110E+00
RMM:  18    -0.133446366966E+03    0.14171E-01   -0.73581E-03  4081   0.253E-01    0.804E-01
RMM:  19    -0.133435766763E+03    0.10600E-01   -0.12631E-02  4121   0.300E-01    0.411E-01
RMM:  20    -0.133433688992E+03    0.20778E-02   -0.37030E-03  4129   0.163E-01    0.304E-01
RMM:  21    -0.133432812316E+03    0.87668E-03   -0.10777E-03  4094   0.891E-02    0.188E-01
RMM:  22    -0.133432183137E+03    0.62918E-03   -0.12862E-03  4103   0.917E-02    0.132E-01
RMM:  23    -0.133432373591E+03   -0.19045E-03   -0.70280E-04  4088   0.793E-02    0.150E-01
RMM:  24    -0.133432631428E+03   -0.25784E-03   -0.23449E-04  4058   0.388E-02    0.970E-02
RMM:  25    -0.133433103753E+03   -0.47232E-03   -0.27880E-04  4055   0.461E-02    0.392E-02
RMM:  26    -0.133433327651E+03   -0.22390E-03   -0.43570E-05  2645   0.232E-02    0.274E-02
RMM:  27    -0.133433602763E+03   -0.27511E-03   -0.95947E-05  3376   0.228E-02    0.323E-02
RMM:  28    -0.133433720070E+03   -0.11731E-03   -0.21344E-05  2471   0.152E-02    0.292E-02
RMM:  29    -0.133433806718E+03   -0.86648E-04   -0.19090E-05  2466   0.130E-02    0.172E-02
RMM:  30    -0.133433852546E+03   -0.45828E-04   -0.11767E-05  2424   0.102E-02    0.143E-02
RMM:  31    -0.133433863994E+03   -0.11448E-04   -0.44470E-06  2323   0.727E-03    0.785E-03
RMM:  32    -0.133433876471E+03   -0.12478E-04   -0.38603E-06  2320   0.693E-03    0.420E-03
RMM:  33    -0.133433884876E+03   -0.84048E-05   -0.24585E-06  2318   0.431E-03
   1 F= -.13343388E+03 E0= -.13343118E+03  d E =-.133434E+03
quench:  g(F)=  0.000E+00 g(S)=  0.000E+00 dE (1.order)= 0.000E+00
 bond charge predicted
       N       E                     dE             d eps       ncg     rms          rms(c)
DAV:   1    -0.133433867543E+03    0.89277E-05   -0.10374E-02  4113   0.138E-01    0.203E-02
RMM:   2    -0.133433897387E+03   -0.29843E-04   -0.29017E-04  3499   0.322E-02    0.229E-02
RMM:   3    -0.133433908351E+03   -0.10964E-04   -0.22210E-05  2354   0.162E-02    0.460E-02
RMM:   4    -0.133433890454E+03    0.17896E-04   -0.76735E-06  2341   0.979E-03    0.869E-03
RMM:   5    -0.133433894986E+03   -0.45317E-05   -0.55081E-06  2211   0.110E-02
   2 F= -.13343389E+03 E0= -.13343116E+03  d E =-.101101E-04
quench:  g(F)=  0.000E+00 g(S)=  0.000E+00 dE (1.order)= 0.000E+00
 bond charge predicted
       N       E                     dE             d eps       ncg     rms          rms(c)
DAV:   1    -0.133433844864E+03    0.45590E-04   -0.32883E-02  4284   0.258E-01    0.602E-02
RMM:   2    -0.133434824600E+03   -0.97974E-03   -0.12225E-03  5153   0.635E-02    0.362E-01
RMM:   3    -0.133433842953E+03    0.98165E-03   -0.20376E-04  3552   0.378E-02    0.407E-02
RMM:   4    -0.133433908622E+03   -0.65670E-04   -0.61825E-05  2598   0.281E-02    0.201E-02
RMM:   5    -0.133433908910E+03   -0.28763E-06   -0.22159E-05  2374   0.213E-02
   3 F= -.13343391E+03 E0= -.13343117E+03  d E =-.139241E-04
quench:  g(F)=  0.000E+00 g(S)=  0.000E+00 dE (1.order)= 0.000E+00
 bond charge predicted
       N       E                     dE             d eps       ncg     rms          rms(c)
DAV:   1    -0.133433764547E+03    0.14408E-03   -0.72011E-02  4032   0.372E-01    0.611E-02
RMM:   2    -0.133434291785E+03   -0.52724E-03   -0.19934E-03  5756   0.818E-02    0.227E-01
RMM:   3    -0.133433896023E+03    0.39576E-03   -0.17904E-04  3192   0.324E-02    0.716E-02
RMM:   4    -0.133433922254E+03   -0.26231E-04   -0.48459E-05  2562   0.254E-02    0.192E-02
RMM:   5    -0.133433936084E+03   -0.13831E-04   -0.30547E-05  2420   0.239E-02    0.273E-02
RMM:   6    -0.133433922567E+03    0.13517E-04   -0.13465E-05  2280   0.193E-02    0.843E-03
RMM:   7    -0.133433922833E+03   -0.26605E-06   -0.38784E-06  2163   0.904E-03
   4 F= -.13343392E+03 E0= -.13343116E+03  d E =-.139233E-04
quench:  g(F)=  0.000E+00 g(S)=  0.000E+00 dE (1.order)= 0.000E+00
 bond charge predicted
       N       E                     dE             d eps       ncg     rms          rms(c)
DAV:   1    -0.133433614745E+03    0.30782E-03   -0.94787E-02  4077   0.397E-01    0.865E-02
RMM:   2    -0.133434790650E+03   -0.11759E-02   -0.33900E-03  5644   0.943E-02    0.368E-01
RMM:   3    -0.133433810037E+03    0.98061E-03   -0.39887E-04  4025   0.492E-02    0.937E-02
RMM:   4    -0.133433813487E+03   -0.34497E-05   -0.13183E-04  2759   0.299E-02    0.306E-02
RMM:   5    -0.133433829830E+03   -0.16344E-04   -0.71230E-05  2742   0.302E-02    0.307E-02
RMM:   6    -0.133433813169E+03    0.16661E-04   -0.31786E-05  2454   0.285E-02    0.184E-02
RMM:   7    -0.133433809071E+03    0.40976E-05   -0.10150E-05  2232   0.158E-02
   5 F= -.13343381E+03 E0= -.13343103E+03  d E =0.113762E-03
quench:  g(F)=  0.000E+00 g(S)=  0.000E+00 dE (1.order)= 0.000E+00
 bond charge predicted
       N       E                     dE             d eps       ncg     rms          rms(c)
DAV:   1    -0.133433782537E+03    0.30632E-04   -0.51736E-02  4185   0.280E-01    0.652E-02
RMM:   2    -0.133434020790E+03   -0.23825E-03   -0.23322E-03  5159   0.701E-02    0.105E-01
RMM:   3    -0.133434000812E+03    0.19978E-04   -0.12822E-04  2999   0.235E-02    0.116E-01
RMM:   4    -0.133433911460E+03    0.89352E-04   -0.67944E-05  2665   0.233E-02    0.408E-02
RMM:   5    -0.133433921023E+03   -0.95626E-05   -0.54983E-05  2729   0.280E-02
   6 F= -.13343392E+03 E0= -.13343116E+03  d E =-.111951E-03
quench:  g(F)=  0.000E+00 g(S)=  0.000E+00 dE (1.order)= 0.000E+00
 bond charge predicted
       N       E                     dE             d eps       ncg     rms          rms(c)
DAV:   1    -0.133433925426E+03   -0.13966E-04   -0.15214E-02  5913   0.290E-01    0.383E-02
RMM:   2    -0.133434132336E+03   -0.20691E-03   -0.80647E-04  4496   0.511E-02    0.132E-01
RMM:   3    -0.133433963678E+03    0.16866E-03   -0.51888E-05  2609   0.194E-02    0.529E-02
RMM:   4    -0.133433971805E+03   -0.81274E-05   -0.30754E-05  2525   0.173E-02
   7 F= -.13343397E+03 E0= -.13343115E+03  d E =-.507824E-04
quench:  g(F)=  0.000E+00 g(S)=  0.000E+00 dE (1.order)= 0.000E+00
 bond charge predicted
       N       E                     dE             d eps       ncg     rms          rms(c)
DAV:   1    -0.133433910861E+03    0.52817E-04   -0.25736E-02  5013   0.280E-01    0.486E-02
RMM:   2    -0.133434284676E+03   -0.37381E-03   -0.84995E-04  4655   0.625E-02    0.223E-01
RMM:   3    -0.133433941756E+03    0.34292E-03   -0.12283E-04  2844   0.302E-02    0.580E-02
RMM:   4    -0.133433973405E+03   -0.31648E-04   -0.50397E-05  2622   0.289E-02    0.239E-02
RMM:   5    -0.133433967202E+03    0.62029E-05   -0.13274E-05  2276   0.195E-02
   8 F= -.13343397E+03 E0= -.13343115E+03  d E =0.460318E-05
quench:  g(F)=  0.000E+00 g(S)=  0.000E+00 dE (1.order)= 0.000E+00
 bond charge predicted
       N       E                     dE             d eps       ncg     rms          rms(c)
DAV:   1    -0.133433828649E+03    0.14476E-03   -0.54686E-02  4086   0.319E-01    0.520E-02
RMM:   2    -0.133434204563E+03   -0.37591E-03   -0.16134E-03  5410   0.696E-02    0.181E-01
RMM:   3    -0.133433930849E+03    0.27371E-03   -0.12448E-04  2915   0.268E-02    0.685E-02
RMM:   4    -0.133433945266E+03   -0.14417E-04   -0.42368E-05  2566   0.223E-02    0.221E-02
RMM:   5    -0.133433945622E+03   -0.35575E-06   -0.11720E-05  2334   0.124E-02
   9 F= -.13343395E+03 E0= -.13343112E+03  d E =0.215797E-04
quench:  g(F)=  0.000E+00 g(S)=  0.000E+00 dE (1.order)= 0.000E+00
 bond charge predicted
       N       E                     dE             d eps       ncg     rms          rms(c)
DAV:   1    -0.133433634025E+03    0.31124E-03   -0.93877E-02  4518   0.445E-01    0.739E-02
RMM:   2    -0.133434578911E+03   -0.94489E-03   -0.30358E-03  5421   0.975E-02    0.302E-01
RMM:   3    -0.133433820959E+03    0.75795E-03   -0.28103E-04  3823   0.405E-02    0.766E-02
RMM:   4    -0.133433863738E+03   -0.42779E-04   -0.96339E-05  2747   0.298E-02    0.374E-02
RMM:   5    -0.133433859800E+03    0.39377E-05   -0.64145E-05  3247   0.353E-02
  10 F= -.13343386E+03 E0= -.13343101E+03  d E =0.858216E-04
quench:  g(F)=  0.000E+00 g(S)=  0.000E+00 dE (1.order)= 0.000E+00
 bond charge predicted
       N       E                     dE             d eps       ncg     rms          rms(c)
DAV:   1    -0.133433740207E+03    0.12353E-03   -0.46429E-02  5094   0.341E-01    0.737E-02
RMM:   2    -0.133434373982E+03   -0.63378E-03   -0.24241E-03  5090   0.729E-02    0.263E-01
RMM:   3    -0.133433856828E+03    0.51715E-03   -0.21374E-04  3371   0.338E-02    0.959E-02
RMM:   4    -0.133433854948E+03    0.18792E-05   -0.10398E-04  2711   0.277E-02    0.288E-02
RMM:   5    -0.133433854420E+03    0.52868E-06   -0.62690E-05  2577   0.236E-02
  11 F= -.13343385E+03 E0= -.13343095E+03  d E =0.538083E-05
quench:  g(F)=  0.000E+00 g(S)=  0.000E+00 dE (1.order)= 0.000E+00
 bond charge predicted
       N       E                     dE             d eps       ncg     rms          rms(c)
DAV:   1    -0.133433869281E+03   -0.14333E-04   -0.23542E-02  5148   0.294E-01    0.405E-02
RMM:   2    -0.133433995715E+03   -0.12643E-03   -0.10829E-03  4619   0.636E-02    0.527E-02
RMM:   3    -0.133433997180E+03   -0.14653E-05   -0.64775E-05  2802   0.227E-02
  12 F= -.13343400E+03 E0= -.13343120E+03  d E =-.142761E-03
quench:  g(F)=  0.000E+00 g(S)=  0.000E+00 dE (1.order)= 0.000E+00
 bond charge predicted
       N       E                     dE             d eps       ncg     rms          rms(c)
DAV:   1    -0.133433867784E+03    0.12793E-03   -0.25681E-02  4032   0.202E-01    0.106E-01
RMM:   2    -0.133439073349E+03   -0.52056E-02   -0.20111E-03  4202   0.856E-02    0.863E-01
RMM:   3    -0.133433395981E+03    0.56774E-02   -0.78265E-04  4062   0.752E-02    0.540E-02
RMM:   4    -0.133433811245E+03   -0.41526E-03   -0.19149E-04  2823   0.370E-02    0.540E-02
RMM:   5    -0.133433837077E+03   -0.25832E-04   -0.75481E-05  2695   0.311E-02    0.276E-02
RMM:   6    -0.133433848751E+03   -0.11673E-04   -0.21259E-05  2376   0.223E-02    0.119E-02
RMM:   7    -0.133433850289E+03   -0.15380E-05   -0.66874E-06  2222   0.120E-02
  13 F= -.13343385E+03 E0= -.13343094E+03  d E =0.146892E-03
quench:  g(F)=  0.000E+00 g(S)=  0.000E+00 dE (1.order)= 0.000E+00
 bond charge predicted
       N       E                     dE             d eps       ncg     rms          rms(c)
DAV:   1    -0.133433920113E+03   -0.71362E-04   -0.32794E-02  4167   0.241E-01    0.122E-01
RMM:   2    -0.133440069504E+03   -0.61494E-02   -0.21577E-03  4365   0.886E-02    0.949E-01
RMM:   3    -0.133433321080E+03    0.67484E-02   -0.99631E-04  4074   0.831E-02    0.482E-02
RMM:   4    -0.133433857492E+03   -0.53641E-03   -0.28544E-04  3557   0.572E-02    0.498E-02
RMM:   5    -0.133433878593E+03   -0.21101E-04   -0.74050E-05  2620   0.294E-02    0.190E-02
RMM:   6    -0.133433891048E+03   -0.12454E-04   -0.16608E-05  2400   0.185E-02    0.121E-02
RMM:   7    -0.133433892233E+03   -0.11848E-05   -0.88109E-06  2208   0.157E-02
  14 F= -.13343389E+03 E0= -.13343098E+03  d E =-.419440E-04
quench:  g(F)=  0.000E+00 g(S)=  0.000E+00 dE (1.order)= 0.000E+00
 bond charge predicted
       N       E                     dE             d eps       ncg     rms          rms(c)
DAV:   1    -0.133433773610E+03    0.11744E-03   -0.48042E-02  4149   0.299E-01    0.430E-02
RMM:   2    -0.133433936487E+03   -0.16288E-03   -0.15130E-03  5276   0.670E-02    0.635E-02
RMM:   3    -0.133433962781E+03   -0.26294E-04   -0.82747E-05  2780   0.193E-02    0.107E-01
RMM:   4    -0.133433876124E+03    0.86657E-04   -0.29361E-05  2483   0.205E-02    0.197E-02
RMM:   5    -0.133433896378E+03   -0.20255E-04   -0.14609E-05  2355   0.162E-02    0.172E-02
RMM:   6    -0.133433894160E+03    0.22188E-05   -0.10100E-05  2311   0.152E-02
  15 F= -.13343389E+03 E0= -.13343097E+03  d E =-.192690E-05
quench:  g(F)=  0.000E+00 g(S)=  0.000E+00 dE (1.order)= 0.000E+00
 bond charge predicted
       N       E                     dE             d eps       ncg     rms          rms(c)
DAV:   1    -0.133433706335E+03    0.19004E-03   -0.86234E-02  4059   0.407E-01    0.103E-01
RMM:   2    -0.133437068013E+03   -0.33617E-02   -0.31510E-03  5155   0.103E-01    0.681E-01
RMM:   3    -0.133433617131E+03    0.34509E-02   -0.67887E-04  4083   0.677E-02    0.502E-02
RMM:   4    -0.133433850409E+03   -0.23328E-03   -0.19730E-04  3286   0.499E-02    0.325E-02
RMM:   5    -0.133433865739E+03   -0.15330E-04   -0.72786E-05  2708   0.337E-02    0.238E-02
RMM:   6    -0.133433859116E+03    0.66231E-05   -0.20047E-05  2389   0.229E-02
  16 F= -.13343386E+03 E0= -.13343091E+03  d E =0.350433E-04
quench:  g(F)=  0.000E+00 g(S)=  0.000E+00 dE (1.order)= 0.000E+00
 bond charge predicted
       N       E                     dE             d eps       ncg     rms          rms(c)
DAV:   1    -0.133433594418E+03    0.27132E-03   -0.64234E-02  4257   0.323E-01    0.704E-02
RMM:   2    -0.133433860868E+03   -0.26645E-03   -0.30085E-03  5411   0.793E-02    0.872E-02
RMM:   3    -0.133433908806E+03   -0.47937E-04   -0.15347E-04  3060   0.248E-02    0.146E-01
RMM:   4    -0.133433739117E+03    0.16969E-03   -0.59050E-05  2661   0.232E-02    0.417E-02
RMM:   5    -0.133433754337E+03   -0.15220E-04   -0.47121E-05  2556   0.205E-02    0.127E-02
RMM:   6    -0.133433754891E+03   -0.55385E-06   -0.26081E-05  2392   0.248E-02
  17 F= -.13343375E+03 E0= -.13343077E+03  d E =0.104225E-03
quench:  g(F)=  0.000E+00 g(S)=  0.000E+00 dE (1.order)= 0.000E+00
 bond charge predicted
       N       E                     dE             d eps       ncg     rms          rms(c)
DAV:   1    -0.133433796007E+03   -0.41670E-04   -0.37099E-02  4518   0.256E-01    0.565E-02
RMM:   2    -0.133433965866E+03   -0.16986E-03   -0.17627E-03  4864   0.607E-02    0.754E-02
RMM:   3    -0.133433997388E+03   -0.31523E-04   -0.10292E-04  2920   0.215E-02    0.118E-01
RMM:   4    -0.133433882190E+03    0.11520E-03   -0.45980E-05  2582   0.201E-02    0.261E-02
RMM:   5    -0.133433907848E+03   -0.25659E-04   -0.28339E-05  2483   0.210E-02    0.222E-02
RMM:   6    -0.133433898842E+03    0.90061E-05   -0.19281E-05  2364   0.217E-02
  18 F= -.13343390E+03 E0= -.13343092E+03  d E =-.143951E-03
quench:  g(F)=  0.000E+00 g(S)=  0.000E+00 dE (1.order)= 0.000E+00
 bond charge predicted
       N       E                     dE             d eps       ncg     rms          rms(c)
DAV:   1    -0.133433872623E+03    0.35226E-04   -0.15724E-02  4941   0.198E-01    0.356E-02
RMM:   2    -0.133434069215E+03   -0.19659E-03   -0.66175E-04  4089   0.424E-02    0.148E-01
RMM:   3    -0.133433894801E+03    0.17441E-03   -0.54150E-05  2644   0.212E-02    0.419E-02
RMM:   4    -0.133433910579E+03   -0.15778E-04   -0.23331E-05  2488   0.179E-02    0.137E-02
RMM:   5    -0.133433912743E+03   -0.21644E-05   -0.12189E-05  2307   0.140E-02
  19 F= -.13343391E+03 E0= -.13343090E+03  d E =-.139011E-04
quench:  g(F)=  0.000E+00 g(S)=  0.000E+00 dE (1.order)= 0.000E+00
 bond charge predicted
       N       E                     dE             d eps       ncg     rms          rms(c)
DAV:   1    -0.133433827194E+03    0.83385E-04   -0.38629E-02  4662   0.305E-01    0.626E-02
RMM:   2    -0.133434789790E+03   -0.96260E-03   -0.13857E-03  4954   0.718E-02    0.367E-01
RMM:   3    -0.133433852361E+03    0.93743E-03   -0.22966E-04  3526   0.408E-02    0.477E-02
RMM:   4    -0.133433924505E+03   -0.72144E-04   -0.79653E-05  2722   0.347E-02    0.294E-02
RMM:   5    -0.133433912365E+03    0.12140E-04   -0.25612E-05  2366   0.246E-02    0.119E-02
RMM:   6    -0.133433912884E+03   -0.51898E-06   -0.65312E-06  2232   0.111E-02
  20 F= -.13343391E+03 E0= -.13343089E+03  d E =-.140215E-06
quench:  g(F)=  0.000E+00 g(S)=  0.000E+00 dE (1.order)= 0.000E+00
 bond charge predicted
       N       E                     dE             d eps       ncg     rms          rms(c)
DAV:   1    -0.133433737602E+03    0.17476E-03   -0.62795E-02  4032   0.333E-01    0.595E-02
RMM:   2    -0.133434159573E+03   -0.42197E-03   -0.21106E-03  5419   0.759E-02    0.195E-01
RMM:   3    -0.133433896413E+03    0.26316E-03   -0.19036E-04  3020   0.326E-02    0.927E-02
RMM:   4    -0.133433879209E+03    0.17204E-04   -0.63478E-05  2605   0.261E-02    0.238E-02
RMM:   5    -0.133433891494E+03   -0.12286E-04   -0.30642E-05  2425   0.209E-02    0.241E-02
RMM:   6    -0.133433886632E+03    0.48622E-05   -0.17800E-05  2325   0.212E-02
  21 F= -.13343389E+03 E0= -.13343086E+03  d E =0.262513E-04
quench:  g(F)=  0.000E+00 g(S)=  0.000E+00 dE (1.order)= 0.000E+00
 bond charge predicted
       N       E                     dE             d eps       ncg     rms          rms(c)
DAV:   1    -0.133433645423E+03    0.24607E-03   -0.67449E-02  4212   0.346E-01    0.638E-02
RMM:   2    -0.133433877820E+03   -0.23240E-03   -0.25539E-03  5369   0.782E-02    0.736E-02
RMM:   3    -0.133433920668E+03   -0.42849E-04   -0.16666E-04  3143   0.259E-02    0.126E-01
RMM:   4    -0.133433806545E+03    0.11412E-03   -0.60473E-05  2682   0.228E-02    0.450E-02
RMM:   5    -0.133433806574E+03   -0.29184E-07   -0.32006E-05  2511   0.209E-02
  22 F= -.13343381E+03 E0= -.13343075E+03  d E =0.800582E-04
quench:  g(F)=  0.000E+00 g(S)=  0.000E+00 dE (1.order)= 0.000E+00
 bond charge predicted
       N       E                     dE             d eps       ncg     rms          rms(c)
DAV:   1    -0.133433874812E+03   -0.68267E-04   -0.24370E-02  5184   0.251E-01    0.605E-02
RMM:   2    -0.133434755731E+03   -0.88092E-03   -0.14576E-03  4647   0.666E-02    0.332E-01
RMM:   3    -0.133433870841E+03    0.88489E-03   -0.17642E-04  3240   0.354E-02    0.536E-02
RMM:   4    -0.133433930082E+03   -0.59241E-04   -0.81571E-05  2685   0.288E-02    0.246E-02
RMM:   5    -0.133433942163E+03   -0.12080E-04   -0.53378E-05  2701   0.297E-02    0.283E-02
RMM:   6    -0.133433927311E+03    0.14852E-04   -0.19779E-05  2365   0.200E-02    0.550E-03
RMM:   7    -0.133433928656E+03   -0.13459E-05   -0.53588E-06  2174   0.108E-02
  23 F= -.13343393E+03 E0= -.13343087E+03  d E =-.122082E-03
quench:  g(F)=  0.000E+00 g(S)=  0.000E+00 dE (1.order)= 0.000E+00
 bond charge predicted
       N       E                     dE             d eps       ncg     rms          rms(c)
DAV:   1    -0.133433887194E+03    0.40116E-04   -0.19828E-02  4167   0.193E-01    0.274E-02
RMM:   2    -0.133433940996E+03   -0.53801E-04   -0.57474E-04  4051   0.431E-02    0.241E-02
RMM:   3    -0.133433952714E+03   -0.11718E-04   -0.40771E-05  2493   0.189E-02    0.545E-02
RMM:   4    -0.133433932030E+03    0.20684E-04   -0.11268E-05  2375   0.120E-02    0.218E-02
RMM:   5    -0.133433932369E+03   -0.33879E-06   -0.67528E-06  2303   0.107E-02
  24 F= -.13343393E+03 E0= -.13343085E+03  d E =-.371270E-05
quench:  g(F)=  0.000E+00 g(S)=  0.000E+00 dE (1.order)= 0.000E+00
 bond charge predicted
       N       E                     dE             d eps       ncg     rms          rms(c)
DAV:   1    -0.133433844972E+03    0.87058E-04   -0.42439E-02  4194   0.279E-01    0.618E-02
RMM:   2    -0.133434838723E+03   -0.99375E-03   -0.14771E-03  5185   0.651E-02    0.366E-01
RMM:   3    -0.133433856919E+03    0.98180E-03   -0.22119E-04  3539   0.387E-02    0.461E-02
RMM:   4    -0.133433923493E+03   -0.66574E-04   -0.70789E-05  2618   0.272E-02    0.192E-02
RMM:   5    -0.133433931866E+03   -0.83736E-05   -0.31005E-05  2429   0.227E-02
  25 F= -.13343393E+03 E0= -.13343081E+03  d E =0.502725E-06
quench:  g(F)=  0.000E+00 g(S)=  0.000E+00 dE (1.order)= 0.000E+00
 bond charge predicted
       N       E                     dE             d eps       ncg     rms          rms(c)
DAV:   1    -0.133433699397E+03    0.22410E-03   -0.74332E-02  4653   0.409E-01    0.665E-02
RMM:   2    -0.133434297835E+03   -0.59844E-03   -0.24277E-03  5420   0.841E-02    0.250E-01
RMM:   3    -0.133433872059E+03    0.42578E-03   -0.21690E-04  3301   0.345E-02    0.852E-02
RMM:   4    -0.133433883893E+03   -0.11834E-04   -0.79322E-05  2640   0.301E-02    0.268E-02
RMM:   5    -0.133433894533E+03   -0.10640E-04   -0.48662E-05  2831   0.303E-02    0.301E-02
RMM:   6    -0.133433876122E+03    0.18411E-04   -0.15265E-05  2334   0.202E-02    0.940E-03
RMM:   7    -0.133433875707E+03    0.41517E-06   -0.58909E-06  2253   0.993E-03
  26 F= -.13343388E+03 E0= -.13343075E+03  d E =0.561598E-04
quench:  g(F)=  0.000E+00 g(S)=  0.000E+00 dE (1.order)= 0.000E+00
 bond charge predicted
       N       E                     dE             d eps       ncg     rms          rms(c)
DAV:   1    -0.133433752978E+03    0.12314E-03   -0.45930E-02  4059   0.256E-01    0.640E-02
RMM:   2    -0.133434061296E+03   -0.30832E-03   -0.20805E-03  5060   0.647E-02    0.158E-01
RMM:   3    -0.133433929594E+03    0.13170E-03   -0.14821E-04  2935   0.283E-02    0.115E-01
RMM:   4    -0.133433858300E+03    0.71294E-04   -0.76003E-05  2658   0.245E-02    0.277E-02
RMM:   5    -0.133433858416E+03   -0.11650E-06   -0.42665E-05  2512   0.182E-02
  27 F= -.13343386E+03 E0= -.13343072E+03  d E =0.172904E-04
quench:  g(F)=  0.000E+00 g(S)=  0.000E+00 dE (1.order)= 0.000E+00
 bond charge predicted
       N       E                     dE             d eps       ncg     rms          rms(c)
DAV:   1    -0.133433880204E+03   -0.21904E-04   -0.25325E-02  4896   0.240E-01    0.411E-02
RMM:   2    -0.133434018894E+03   -0.13869E-03   -0.10842E-03  4397   0.573E-02    0.859E-02
RMM:   3    -0.133433968275E+03    0.50619E-04   -0.65883E-05  2684   0.196E-02    0.655E-02
RMM:   4    -0.133433950160E+03    0.18115E-04   -0.31586E-05  2538   0.164E-02    0.215E-02
RMM:   5    -0.133433955776E+03   -0.56156E-05   -0.23139E-05  2432   0.205E-02
  28 F= -.13343396E+03 E0= -.13343079E+03  d E =-.973595E-04
quench:  g(F)=  0.000E+00 g(S)=  0.000E+00 dE (1.order)= 0.000E+00
 bond charge predicted
       N       E                     dE             d eps       ncg     rms          rms(c)
DAV:   1    -0.133433878962E+03    0.71198E-04   -0.28554E-02  4914   0.295E-01    0.519E-02
RMM:   2    -0.133434448663E+03   -0.56970E-03   -0.11063E-03  4723   0.647E-02    0.282E-01
RMM:   3    -0.133433896893E+03    0.55177E-03   -0.15282E-04  3022   0.328E-02    0.520E-02
RMM:   4    -0.133433949862E+03   -0.52969E-04   -0.59817E-05  2610   0.304E-02    0.242E-02
RMM:   5    -0.133433945540E+03    0.43226E-05   -0.21232E-05  2350   0.204E-02
  29 F= -.13343395E+03 E0= -.13343078E+03  d E =0.102361E-04
quench:  g(F)=  0.000E+00 g(S)=  0.000E+00 dE (1.order)= 0.000E+00
 bond charge predicted
       N       E                     dE             d eps       ncg     rms          rms(c)
DAV:   1    -0.133433792029E+03    0.15783E-03   -0.59676E-02  4068   0.329E-01    0.456E-02
RMM:   2    -0.133433944693E+03   -0.15266E-03   -0.16244E-03  5300   0.693E-02    0.375E-02
RMM:   3    -0.133433972402E+03   -0.27709E-04   -0.93776E-05  2850   0.196E-02    0.894E-02
RMM:   4    -0.133433920172E+03    0.52230E-04   -0.26449E-05  2496   0.174E-02    0.366E-02
RMM:   5    -0.133433927404E+03   -0.72324E-05   -0.17376E-05  2415   0.173E-02
  30 F= -.13343393E+03 E0= -.13343076E+03  d E =0.181352E-04
quench:  g(F)=  0.000E+00 g(S)=  0.000E+00 dE (1.order)= 0.000E+00
 bond charge predicted
       N       E                     dE             d eps       ncg     rms          rms(c)
DAV:   1    -0.133433674948E+03    0.24522E-03   -0.72065E-02  4752   0.388E-01    0.757E-02
RMM:   2    -0.133434585288E+03   -0.91034E-03   -0.28640E-03  5333   0.824E-02    0.319E-01
RMM:   3    -0.133433809229E+03    0.77606E-03   -0.25886E-04  3681   0.374E-02    0.903E-02
RMM:   4    -0.133433830470E+03   -0.21241E-04   -0.11188E-04  2752   0.269E-02    0.304E-02
RMM:   5    -0.133433839643E+03   -0.91735E-05   -0.59136E-05  2751   0.285E-02
  31 F= -.13343384E+03 E0= -.13343067E+03  d E =0.877611E-04
quench:  g(F)=  0.000E+00 g(S)=  0.000E+00 dE (1.order)= 0.000E+00
 bond charge predicted
       N       E                     dE             d eps       ncg     rms          rms(c)
DAV:   1    -0.133433757285E+03    0.73185E-04   -0.46398E-02  5103   0.384E-01    0.575E-02
RMM:   2    -0.133433966259E+03   -0.20897E-03   -0.21998E-03  5044   0.754E-02    0.719E-02
RMM:   3    -0.133433939170E+03    0.27089E-04   -0.10683E-04  3021   0.234E-02    0.826E-02
RMM:   4    -0.133433922208E+03    0.16962E-04   -0.39109E-05  2585   0.176E-02    0.626E-02
RMM:   5    -0.133433906047E+03    0.16160E-04   -0.40282E-05  2677   0.268E-02    0.315E-02
RMM:   6    -0.133433889321E+03    0.16726E-04   -0.22048E-05  2387   0.232E-02    0.846E-03
RMM:   7    -0.133433887747E+03    0.15744E-05   -0.59836E-06  2246   0.107E-02
  32 F= -.13343389E+03 E0= -.13343066E+03  d E =-.481032E-04
quench:  g(F)=  0.000E+00 g(S)=  0.000E+00 dE (1.order)= 0.000E+00
 bond charge predicted
       N       E                     dE             d eps       ncg     rms          rms(c)
DAV:   1    -0.133433896697E+03   -0.73761E-05   -0.15955E-02  4113   0.157E-01    0.463E-02
RMM:   2    -0.133434387193E+03   -0.49050E-03   -0.75755E-04  4148   0.444E-02    0.263E-01
RMM:   3    -0.133433867680E+03    0.51951E-03   -0.11378E-04  2840   0.309E-02    0.385E-02
RMM:   4    -0.133433931208E+03   -0.63528E-04   -0.44142E-05  2544   0.226E-02    0.194E-02
RMM:   5    -0.133433937423E+03   -0.62155E-05   -0.26919E-05  2425   0.202E-02
  33 F= -.13343394E+03 E0= -.13343069E+03  d E =-.496770E-04
quench:  g(F)=  0.000E+00 g(S)=  0.000E+00 dE (1.order)= 0.000E+00
 bond charge predicted
       N       E                     dE             d eps       ncg     rms          rms(c)
DAV:   1    -0.133433848542E+03    0.82666E-04   -0.33410E-02  4779   0.297E-01    0.509E-02
RMM:   2    -0.133434482953E+03   -0.63441E-03   -0.10977E-03  4924   0.613E-02    0.294E-01
RMM:   3    -0.133433855743E+03    0.62721E-03   -0.15364E-04  3074   0.328E-02    0.391E-02
RMM:   4    -0.133433929684E+03   -0.73940E-04   -0.47303E-05  2550   0.265E-02    0.227E-02
RMM:   5    -0.133433923896E+03    0.57879E-05   -0.17181E-05  2317   0.199E-02
  34 F= -.13343392E+03 E0= -.13343067E+03  d E =0.135278E-04
quench:  g(F)=  0.000E+00 g(S)=  0.000E+00 dE (1.order)= 0.000E+00
 bond charge predicted
       N       E                     dE             d eps       ncg     rms          rms(c)
DAV:   1    -0.133433760101E+03    0.16958E-03   -0.68943E-02  4167   0.349E-01    0.577E-02
RMM:   2    -0.133434275042E+03   -0.51494E-03   -0.18922E-03  5371   0.761E-02    0.230E-01
RMM:   3    -0.133433875265E+03    0.39978E-03   -0.19900E-04  3074   0.345E-02    0.729E-02
RMM:   4    -0.133433901674E+03   -0.26409E-04   -0.59971E-05  2574   0.245E-02    0.224E-02
RMM:   5    -0.133433903401E+03   -0.17275E-05   -0.19394E-05  2368   0.143E-02
  35 F= -.13343390E+03 E0= -.13343065E+03  d E =0.204946E-04
quench:  g(F)=  0.000E+00 g(S)=  0.000E+00 dE (1.order)= 0.000E+00
 bond charge predicted
       N       E                     dE             d eps       ncg     rms          rms(c)
DAV:   1    -0.133433544006E+03    0.35767E-03   -0.10868E-01  4590   0.466E-01    0.719E-02
RMM:   2    -0.133434103255E+03   -0.55925E-03   -0.32893E-03  5322   0.983E-02    0.187E-01
RMM:   3    -0.133433850244E+03    0.25301E-03   -0.26729E-04  3522   0.357E-02    0.123E-01
RMM:   4    -0.133433792460E+03    0.57784E-04   -0.10438E-04  2853   0.296E-02    0.449E-02
RMM:   5    -0.133433792883E+03   -0.42391E-06   -0.68775E-05  3430   0.384E-02
  36 F= -.13343379E+03 E0= -.13343051E+03  d E =0.110518E-03
quench:  g(F)=  0.000E+00 g(S)=  0.000E+00 dE (1.order)= 0.000E+00
 bond charge predicted
       N       E                     dE             d eps       ncg     rms          rms(c)
DAV:   1    -0.133433747327E+03    0.45133E-04   -0.47514E-02  5049   0.337E-01    0.749E-02
RMM:   2    -0.133434482429E+03   -0.73510E-03   -0.24102E-03  4999   0.717E-02    0.299E-01
RMM:   3    -0.133433843482E+03    0.63895E-03   -0.21832E-04  3409   0.347E-02    0.914E-02
RMM:   4    -0.133433860663E+03   -0.17180E-04   -0.11115E-04  2758   0.282E-02    0.290E-02
RMM:   5    -0.133433866559E+03   -0.58969E-05   -0.54254E-05  2624   0.256E-02
  37 F= -.13343387E+03 E0= -.13343053E+03  d E =-.736759E-04
quench:  g(F)=  0.000E+00 g(S)=  0.000E+00 dE (1.order)= 0.000E+00
 bond charge predicted
       N       E                     dE             d eps       ncg     rms          rms(c)
DAV:   1    -0.133433852246E+03    0.84165E-05   -0.20594E-02  5337   0.316E-01    0.359E-02
RMM:   2    -0.133433944375E+03   -0.92129E-04   -0.87726E-04  4588   0.578E-02    0.404E-02
RMM:   3    -0.133433927362E+03    0.17014E-04   -0.55176E-05  2661   0.214E-02    0.379E-02
RMM:   4    -0.133433931642E+03   -0.42799E-05   -0.17626E-05  2403   0.154E-02
  38 F= -.13343393E+03 E0= -.13343066E+03  d E =-.650821E-04
quench:  g(F)=  0.000E+00 g(S)=  0.000E+00 dE (1.order)= 0.000E+00
 bond charge predicted
       N       E                     dE             d eps       ncg     rms          rms(c)
DAV:   1    -0.133433819067E+03    0.10829E-03   -0.35942E-02  4950   0.298E-01    0.625E-02
RMM:   2    -0.133434946865E+03   -0.11278E-02   -0.11797E-03  4370   0.691E-02    0.421E-01
RMM:   3    -0.133433758189E+03    0.11887E-02   -0.23250E-04  3485   0.423E-02    0.412E-02
RMM:   4    -0.133433871347E+03   -0.11316E-03   -0.88025E-05  2965   0.366E-02    0.508E-02
RMM:   5    -0.133433859501E+03    0.11845E-04   -0.31106E-05  2411   0.240E-02    0.250E-02
RMM:   6    -0.133433862994E+03   -0.34931E-05   -0.87058E-06  2285   0.121E-02
  39 F= -.13343386E+03 E0= -.13343052E+03  d E =0.686470E-04
quench:  g(F)=  0.000E+00 g(S)=  0.000E+00 dE (1.order)= 0.000E+00
 bond charge predicted
       N       E                     dE             d eps       ncg     rms          rms(c)
DAV:   1    -0.133433801836E+03    0.57665E-04   -0.68314E-02  4185   0.340E-01    0.131E-01
RMM:   2    -0.133441091487E+03   -0.72897E-02   -0.32589E-03  4569   0.103E-01    0.105E+00
RMM:   3    -0.133433089481E+03    0.80020E-02   -0.11521E-03  4086   0.863E-02    0.513E-02
RMM:   4    -0.133433825627E+03   -0.73615E-03   -0.30316E-04  3596   0.598E-02    0.568E-02
RMM:   5    -0.133433827787E+03   -0.21597E-05   -0.90183E-05  2715   0.354E-02
  40 F= -.13343383E+03 E0= -.13343048E+03  d E =0.352076E-04
quench:  g(F)=  0.000E+00 g(S)=  0.000E+00 dE (1.order)= 0.000E+00
 bond charge predicted
       N       E                     dE             d eps       ncg     rms          rms(c)
DAV:   1    -0.133433633854E+03    0.19177E-03   -0.83681E-02  4185   0.377E-01    0.758E-02
RMM:   2    -0.133435484085E+03   -0.18502E-02   -0.27263E-03  4992   0.898E-02    0.516E-01
RMM:   3    -0.133433619637E+03    0.18644E-02   -0.37468E-04  3929   0.511E-02    0.503E-02
RMM:   4    -0.133433801498E+03   -0.18186E-03   -0.11854E-04  2886   0.380E-02    0.660E-02
RMM:   5    -0.133433781606E+03    0.19892E-04   -0.62692E-05  2692   0.310E-02    0.258E-02
RMM:   6    -0.133433787490E+03   -0.58841E-05   -0.22790E-05  2433   0.230E-02
  41 F= -.13343379E+03 E0= -.13343041E+03  d E =0.402967E-04
quench:  g(F)=  0.000E+00 g(S)=  0.000E+00 dE (1.order)= 0.000E+00
 bond charge predicted
       N       E                     dE             d eps       ncg     rms          rms(c)
DAV:   1    -0.133433594296E+03    0.18731E-03   -0.93999E-02  4104   0.398E-01    0.142E-01
RMM:   2    -0.133441398922E+03   -0.78046E-02   -0.44123E-03  4695   0.118E-01    0.108E+00
RMM:   3    -0.133432907075E+03    0.84918E-02   -0.13263E-03  4087   0.927E-02    0.641E-02
RMM:   4    -0.133433686612E+03   -0.77954E-03   -0.35752E-04  3627   0.616E-02    0.562E-02
RMM:   5    -0.133433706842E+03   -0.20230E-04   -0.14506E-04  3717   0.430E-02    0.296E-02
RMM:   6    -0.133433703522E+03    0.33205E-05   -0.27144E-05  2471   0.241E-02
  42 F= -.13343370E+03 E0= -.13343032E+03  d E =0.839684E-04
quench:  g(F)=  0.000E+00 g(S)=  0.000E+00 dE (1.order)= 0.000E+00
 bond charge predicted
       N       E                     dE             d eps       ncg     rms          rms(c)
DAV:   1    -0.133433672730E+03    0.34112E-04   -0.33033E-02  4284   0.219E-01    0.624E-02
RMM:   2    -0.133434447644E+03   -0.77491E-03   -0.16877E-03  4847   0.630E-02    0.324E-01
RMM:   3    -0.133433686448E+03    0.76120E-03   -0.16149E-04  3161   0.342E-02    0.530E-02
RMM:   4    -0.133433753202E+03   -0.66753E-04   -0.72808E-05  2640   0.251E-02    0.341E-02
RMM:   5    -0.133433762130E+03   -0.89284E-05   -0.69255E-05  3002   0.310E-02
  43 F= -.13343376E+03 E0= -.13343039E+03  d E =-.586082E-04
quench:  g(F)=  0.000E+00 g(S)=  0.000E+00 dE (1.order)= 0.000E+00
 bond charge predicted
       N       E                     dE             d eps       ncg     rms          rms(c)
DAV:   1    -0.133433671828E+03    0.81374E-04   -0.24758E-02  5148   0.306E-01    0.345E-02
RMM:   2    -0.133433779491E+03   -0.10766E-03   -0.87313E-04  4510   0.537E-02    0.767E-02
RMM:   3    -0.133433749740E+03    0.29751E-04   -0.65924E-05  2637   0.174E-02    0.464E-02
RMM:   4    -0.133433750336E+03   -0.59569E-06   -0.21111E-05  2459   0.152E-02
  44 F= -.13343375E+03 E0= -.13343030E+03  d E =0.117940E-04
quench:  g(F)=  0.000E+00 g(S)=  0.000E+00 dE (1.order)= 0.000E+00
 bond charge predicted
       N       E                     dE             d eps       ncg     rms          rms(c)
DAV:   1    -0.133433656700E+03    0.93040E-04   -0.41805E-02  4860   0.342E-01    0.108E-01
RMM:   2    -0.133437634932E+03   -0.39782E-02   -0.22632E-03  4475   0.955E-02    0.797E-01
RMM:   3    -0.133433379805E+03    0.42551E-02   -0.73077E-04  4078   0.718E-02    0.654E-02
RMM:   4    -0.133433685672E+03   -0.30587E-03   -0.23243E-04  3686   0.560E-02    0.402E-02
RMM:   5    -0.133433691089E+03   -0.54167E-05   -0.54766E-05  2543   0.268E-02
  45 F= -.13343369E+03 E0= -.13343027E+03  d E =0.592472E-04
quench:  g(F)=  0.000E+00 g(S)=  0.000E+00 dE (1.order)= 0.000E+00
 bond charge predicted
       N       E                     dE             d eps       ncg     rms          rms(c)
DAV:   1    -0.133433551357E+03    0.13431E-03   -0.59101E-02  4167   0.313E-01    0.809E-02
RMM:   2    -0.133436099190E+03   -0.25478E-02   -0.21207E-03  4693   0.784E-02    0.620E-01
RMM:   3    -0.133433380178E+03    0.27190E-02   -0.45899E-04  4000   0.575E-02    0.497E-02
RMM:   4    -0.133433636695E+03   -0.25652E-03   -0.13781E-04  2867   0.384E-02    0.588E-02
RMM:   5    -0.133433632606E+03    0.40896E-05   -0.69204E-05  2783   0.317E-02
  46 F= -.13343363E+03 E0= -.13343017E+03  d E =0.584831E-04
quench:  g(F)=  0.000E+00 g(S)=  0.000E+00 dE (1.order)= 0.000E+00
 bond charge predicted
       N       E                     dE             d eps       ncg     rms          rms(c)
DAV:   1    -0.133433506490E+03    0.13021E-03   -0.57414E-02  4725   0.330E-01    0.106E-01
RMM:   2    -0.133437350083E+03   -0.38436E-02   -0.27532E-03  4666   0.891E-02    0.766E-01
RMM:   3    -0.133433259402E+03    0.40907E-02   -0.71084E-04  4095   0.693E-02    0.613E-02
RMM:   4    -0.133433568317E+03   -0.30892E-03   -0.22434E-04  3101   0.481E-02    0.426E-02
RMM:   5    -0.133433594912E+03   -0.26595E-04   -0.10255E-04  3169   0.358E-02    0.302E-02
RMM:   6    -0.133433580110E+03    0.14802E-04   -0.29337E-05  2439   0.265E-02    0.140E-02
RMM:   7    -0.133433579631E+03    0.47853E-06   -0.80127E-06  2191   0.142E-02
  47 F= -.13343358E+03 E0= -.13343012E+03  d E =0.529743E-04
quench:  g(F)=  0.000E+00 g(S)=  0.000E+00 dE (1.order)= 0.000E+00
 bond charge predicted
       N       E                     dE             d eps       ncg     rms          rms(c)
DAV:   1    -0.133433514413E+03    0.65697E-04   -0.38937E-02  4158   0.248E-01    0.582E-02
RMM:   2    -0.133434169737E+03   -0.65532E-03   -0.16660E-03  4832   0.620E-02    0.295E-01
RMM:   3    -0.133433548025E+03    0.62171E-03   -0.16295E-04  3023   0.339E-02    0.468E-02
RMM:   4    -0.133433611263E+03   -0.63238E-04   -0.71909E-05  2667   0.263E-02    0.389E-02
RMM:   5    -0.133433614911E+03   -0.36473E-05   -0.54377E-05  2875   0.293E-02
  48 F= -.13343361E+03 E0= -.13343016E+03  d E =-.352792E-04
quench:  g(F)=  0.000E+00 g(S)=  0.000E+00 dE (1.order)= 0.000E+00
 bond charge predicted
       N       E                     dE             d eps       ncg     rms          rms(c)
DAV:   1    -0.133433524781E+03    0.86482E-04   -0.26820E-02  5247   0.306E-01    0.419E-02
RMM:   2    -0.133433764990E+03   -0.24021E-03   -0.10683E-03  4693   0.544E-02    0.152E-01
RMM:   3    -0.133433587585E+03    0.17740E-03   -0.84463E-05  2705   0.218E-02    0.551E-02
RMM:   4    -0.133433597264E+03   -0.96785E-05   -0.36933E-05  2538   0.192E-02
  49 F= -.13343360E+03 E0= -.13343009E+03  d E =0.176469E-04
quench:  g(F)=  0.000E+00 g(S)=  0.000E+00 dE (1.order)= 0.000E+00
 bond charge predicted
       N       E                     dE             d eps       ncg     rms          rms(c)
DAV:   1    -0.133433442477E+03    0.14511E-03   -0.46627E-02  4059   0.291E-01    0.557E-02
RMM:   2    -0.133434100485E+03   -0.65801E-03   -0.15687E-03  5092   0.659E-02    0.294E-01
RMM:   3    -0.133433494556E+03    0.60593E-03   -0.16065E-04  3138   0.329E-02    0.530E-02
RMM:   4    -0.133433557194E+03   -0.62638E-04   -0.57902E-05  2604   0.289E-02    0.232E-02
RMM:   5    -0.133433557792E+03   -0.59803E-06   -0.26185E-05  2421   0.236E-02
  50 F= -.13343356E+03 E0= -.13343002E+03  d E =0.394720E-04
quench:  g(F)=  0.000E+00 g(S)=  0.000E+00 dE (1.order)= 0.000E+00
 bond charge predicted
       N       E                     dE             d eps       ncg     rms          rms(c)
DAV:   1    -0.133433325907E+03    0.23129E-03   -0.68088E-02  4572   0.367E-01    0.802E-02
RMM:   2    -0.133434893294E+03   -0.15674E-02   -0.25303E-03  5190   0.824E-02    0.473E-01
RMM:   3    -0.133433362315E+03    0.15310E-02   -0.40783E-04  4011   0.522E-02    0.685E-02
RMM:   4    -0.133433462626E+03   -0.10031E-03   -0.12856E-04  2788   0.332E-02    0.297E-02
RMM:   5    -0.133433479598E+03   -0.16972E-04   -0.67126E-05  3006   0.323E-02    0.304E-02
RMM:   6    -0.133433464719E+03    0.14879E-04   -0.21009E-05  2358   0.232E-02    0.130E-02
RMM:   7    -0.133433462341E+03    0.23777E-05   -0.51419E-06  2232   0.103E-02
  51 F= -.13343346E+03 E0= -.13342993E+03  d E =0.954507E-04
quench:  g(F)=  0.000E+00 g(S)=  0.000E+00 dE (1.order)= 0.000E+00
 bond charge predicted
       N       E                     dE             d eps       ncg     rms          rms(c)
DAV:   1    -0.133433246698E+03    0.21802E-03   -0.65665E-02  4050   0.319E-01    0.668E-02
RMM:   2    -0.133433732220E+03   -0.48552E-03   -0.25402E-03  5153   0.745E-02    0.222E-01
RMM:   3    -0.133433393273E+03    0.33895E-03   -0.20339E-04  3052   0.342E-02    0.743E-02
RMM:   4    -0.133433414798E+03   -0.21526E-04   -0.95886E-05  2743   0.277E-02    0.438E-02
RMM:   5    -0.133433418357E+03   -0.35590E-05   -0.64033E-05  2977   0.308E-02
  52 F= -.13343342E+03 E0= -.13342990E+03  d E =0.439837E-04
quench:  g(F)=  0.000E+00 g(S)=  0.000E+00 dE (1.order)= 0.000E+00
 bond charge predicted
       N       E                     dE             d eps       ncg     rms          rms(c)
DAV:   1    -0.133433421340E+03   -0.65414E-05   -0.22825E-02  5742   0.333E-01    0.444E-02
RMM:   2    -0.133433597474E+03   -0.17613E-03   -0.11429E-03  4492   0.544E-02    0.110E-01
RMM:   3    -0.133433519055E+03    0.78419E-04   -0.61024E-05  2699   0.217E-02    0.848E-02
RMM:   4    -0.133433485080E+03    0.33975E-04   -0.40127E-05  2570   0.177E-02    0.211E-02
RMM:   5    -0.133433496787E+03   -0.11707E-04   -0.26425E-05  2470   0.227E-02    0.243E-02
RMM:   6    -0.133433485957E+03    0.10831E-04   -0.15372E-05  2338   0.191E-02    0.495E-03
RMM:   7    -0.133433486105E+03   -0.14785E-06   -0.33641E-06  2168   0.806E-03
  53 F= -.13343349E+03 E0= -.13342992E+03  d E =-.677472E-04
quench:  g(F)=  0.000E+00 g(S)=  0.000E+00 dE (1.order)= 0.000E+00
 bond charge predicted
       N       E                     dE             d eps       ncg     rms          rms(c)
DAV:   1    -0.133433394465E+03    0.91492E-04   -0.32342E-02  4086   0.237E-01    0.411E-02
RMM:   2    -0.133433723500E+03   -0.32903E-03   -0.87115E-04  4396   0.521E-02    0.204E-01
RMM:   3    -0.133433426025E+03    0.29747E-03   -0.10098E-04  2757   0.280E-02    0.390E-02
RMM:   4    -0.133433463662E+03   -0.37637E-04   -0.34227E-05  2495   0.237E-02    0.159E-02
RMM:   5    -0.133433465082E+03   -0.14202E-05   -0.16502E-05  2312   0.187E-02
  54 F= -.13343347E+03 E0= -.13342986E+03  d E =0.210227E-04
quench:  g(F)=  0.000E+00 g(S)=  0.000E+00 dE (1.order)= 0.000E+00
 bond charge predicted
       N       E                     dE             d eps       ncg     rms          rms(c)
DAV:   1    -0.133433286913E+03    0.17675E-03   -0.68739E-02  4248   0.359E-01    0.787E-02
RMM:   2    -0.133435088812E+03   -0.18019E-02   -0.22227E-03  5162   0.813E-02    0.515E-01
RMM:   3    -0.133433262104E+03    0.18267E-02   -0.41231E-04  4018   0.536E-02    0.555E-02
RMM:   4    -0.133433409335E+03   -0.14723E-03   -0.12185E-04  2763   0.337E-02    0.280E-02
RMM:   5    -0.133433418793E+03   -0.94579E-05   -0.53541E-05  2588   0.296E-02
  55 F= -.13343342E+03 E0= -.13342979E+03  d E =0.462886E-04
quench:  g(F)=  0.000E+00 g(S)=  0.000E+00 dE (1.order)= 0.000E+00
 bond charge predicted
       N       E                     dE             d eps       ncg     rms          rms(c)
DAV:   1    -0.133433047944E+03    0.36139E-03   -0.10219E-01  4653   0.452E-01    0.681E-02
RMM:   2    -0.133433358693E+03   -0.31075E-03   -0.33004E-03  5405   0.900E-02    0.747E-02
RMM:   3    -0.133433455809E+03   -0.97116E-04   -0.20541E-04  3344   0.265E-02    0.163E-01
RMM:   4    -0.133433256225E+03    0.19958E-03   -0.71967E-05  2678   0.258E-02    0.280E-02
RMM:   5    -0.133433286798E+03   -0.30573E-04   -0.30259E-05  2477   0.181E-02    0.157E-02
RMM:   6    -0.133433288056E+03   -0.12573E-05   -0.22865E-05  2400   0.212E-02
  56 F= -.13343329E+03 E0= -.13342967E+03  d E =0.130738E-03
quench:  g(F)=  0.000E+00 g(S)=  0.000E+00 dE (1.order)= 0.000E+00
 bond charge predicted
       N       E                     dE             d eps       ncg     rms          rms(c)
DAV:   1    -0.133433245224E+03    0.41574E-04   -0.44859E-02  4914   0.281E-01    0.666E-02
RMM:   2    -0.133433584517E+03   -0.33929E-03   -0.21899E-03  4890   0.646E-02    0.171E-01
RMM:   3    -0.133433418630E+03    0.16589E-03   -0.12621E-04  3004   0.251E-02    0.118E-01
RMM:   4    -0.133433350204E+03    0.68426E-04   -0.79932E-05  2680   0.253E-02    0.282E-02
RMM:   5    -0.133433354600E+03   -0.43960E-05   -0.48195E-05  2543   0.230E-02
  57 F= -.13343335E+03 E0= -.13342974E+03  d E =-.665447E-04
quench:  g(F)=  0.000E+00 g(S)=  0.000E+00 dE (1.order)= 0.000E+00
 bond charge predicted
       N       E                     dE             d eps       ncg     rms          rms(c)
DAV:   1    -0.133433340926E+03    0.92787E-05   -0.21503E-02  5148   0.269E-01    0.357E-02
RMM:   2    -0.133433430627E+03   -0.89701E-04   -0.84119E-04  4347   0.571E-02    0.431E-02
RMM:   3    -0.133433404128E+03    0.26499E-04   -0.66691E-05  2964   0.275E-02    0.233E-02
RMM:   4    -0.133433405091E+03   -0.96268E-06   -0.22228E-05  2391   0.215E-02
  58 F= -.13343341E+03 E0= -.13342978E+03  d E =-.504903E-04
quench:  g(F)=  0.000E+00 g(S)=  0.000E+00 dE (1.order)= 0.000E+00
 bond charge predicted
       N       E                     dE             d eps       ncg     rms          rms(c)
DAV:   1    -0.133433270607E+03    0.13352E-03   -0.43553E-02  4536   0.279E-01    0.407E-02
RMM:   2    -0.133433452030E+03   -0.18142E-03   -0.10327E-03  4270   0.523E-02    0.114E-01
RMM:   3    -0.133433362060E+03    0.89970E-04   -0.61650E-05  2683   0.196E-02    0.710E-02
RMM:   4    -0.133433351027E+03    0.11033E-04   -0.23831E-05  2505   0.178E-02    0.284E-02
RMM:   5    -0.133433351545E+03   -0.51731E-06   -0.10363E-05  2329   0.132E-02
  59 F= -.13343335E+03 E0= -.13342969E+03  d E =0.535461E-04
quench:  g(F)=  0.000E+00 g(S)=  0.000E+00 dE (1.order)= 0.000E+00
 bond charge predicted
       N       E                     dE             d eps       ncg     rms          rms(c)
DAV:   1    -0.133433181524E+03    0.16950E-03   -0.93335E-02  4644   0.420E-01    0.113E-01
RMM:   2    -0.133438483053E+03   -0.53015E-02   -0.32071E-03  4687   0.104E-01    0.899E-01
RMM:   3    -0.133432785357E+03    0.56977E-02   -0.88892E-04  4093   0.784E-02    0.484E-02
RMM:   4    -0.133433279237E+03   -0.49388E-03   -0.24292E-04  3134   0.522E-02    0.328E-02
RMM:   5    -0.133433314533E+03   -0.35296E-04   -0.93192E-05  2938   0.369E-02    0.244E-02
RMM:   6    -0.133433311636E+03    0.28968E-05   -0.21571E-05  2396   0.238E-02
  60 F= -.13343331E+03 E0= -.13342964E+03  d E =0.399089E-04
quench:  g(F)=  0.000E+00 g(S)=  0.000E+00 dE (1.order)= 0.000E+00
 bond charge predicted
       N       E                     dE             d eps       ncg     rms          rms(c)
DAV:   1    -0.133432924676E+03    0.38986E-03   -0.11462E-01  4095   0.415E-01    0.823E-02
RMM:   2    -0.133434420303E+03   -0.14956E-02   -0.39623E-03  5284   0.970E-02    0.442E-01
RMM:   3    -0.133433047429E+03    0.13729E-02   -0.33409E-04  3792   0.468E-02    0.622E-02
RMM:   4    -0.133433168905E+03   -0.12148E-03   -0.12193E-04  2803   0.291E-02    0.566E-02
RMM:   5    -0.133433172160E+03   -0.32555E-05   -0.86482E-05  3413   0.355E-02
  61 F= -.13343317E+03 E0= -.13342950E+03  d E =0.139476E-03
quench:  g(F)=  0.000E+00 g(S)=  0.000E+00 dE (1.order)= 0.000E+00
 bond charge predicted
       N       E                     dE             d eps       ncg     rms          rms(c)
DAV:   1    -0.133432996863E+03    0.17204E-03   -0.75644E-02  5094   0.458E-01    0.898E-02
RMM:   2    -0.133434718403E+03   -0.17215E-02   -0.36926E-03  5022   0.952E-02    0.476E-01
RMM:   3    -0.133433105176E+03    0.16132E-02   -0.37431E-04  4038   0.470E-02    0.778E-02
RMM:   4    -0.133433197694E+03   -0.92518E-04   -0.15707E-04  2863   0.316E-02    0.317E-02
RMM:   5    -0.133433193996E+03    0.36983E-05   -0.66048E-05  2588   0.271E-02
  62 F= -.13343319E+03 E0= -.13342948E+03  d E =-.218355E-04
quench:  g(F)=  0.000E+00 g(S)=  0.000E+00 dE (1.order)= 0.000E+00
 bond charge predicted
       N       E                     dE             d eps       ncg     rms          rms(c)
DAV:   1    -0.133433228001E+03   -0.30307E-04   -0.23122E-02  5472   0.306E-01    0.505E-02
RMM:   2    -0.133433922332E+03   -0.69433E-03   -0.11894E-03  4548   0.671E-02    0.290E-01
RMM:   3    -0.133433215916E+03    0.70642E-03   -0.12851E-04  2937   0.312E-02    0.479E-02
RMM:   4    -0.133433284819E+03   -0.68902E-04   -0.70321E-05  2720   0.285E-02    0.257E-02
RMM:   5    -0.133433286012E+03   -0.11936E-05   -0.39402E-05  2468   0.268E-02
  63 F= -.13343329E+03 E0= -.13342957E+03  d E =-.920168E-04
quench:  g(F)=  0.000E+00 g(S)=  0.000E+00 dE (1.order)= 0.000E+00
 bond charge predicted
       N       E                     dE             d eps       ncg     rms          rms(c)
DAV:   1    -0.133433187812E+03    0.97007E-04   -0.35873E-02  4653   0.265E-01    0.327E-02
RMM:   2    -0.133433287681E+03   -0.99868E-04   -0.85852E-04  4162   0.487E-02    0.580E-02
RMM:   3    -0.133433289526E+03   -0.18453E-05   -0.58644E-05  2554   0.179E-02
  64 F= -.13343329E+03 E0= -.13342948E+03  d E =-.351347E-05
quench:  g(F)=  0.000E+00 g(S)=  0.000E+00 dE (1.order)= 0.000E+00
 bond charge predicted
       N       E                     dE             d eps       ncg     rms          rms(c)
DAV:   1    -0.133433308790E+03   -0.21110E-04   -0.76085E-02  4095   0.380E-01    0.231E-01
RMM:   2    -0.133457611507E+03   -0.24303E-01   -0.67388E-03  4252   0.157E-01    0.193E+00
RMM:   3    -0.133430098208E+03    0.27513E-01   -0.34884E-03  4087   0.147E-01    0.888E-02
RMM:   4    -0.133433071732E+03   -0.29735E-02   -0.79532E-04  4055   0.897E-02    0.840E-02
RMM:   5    -0.133433101573E+03   -0.29842E-04   -0.19698E-04  3231   0.447E-02    0.403E-02
RMM:   6    -0.133433128592E+03   -0.27019E-04   -0.38343E-05  2547   0.253E-02    0.246E-02
RMM:   7    -0.133433138302E+03   -0.97096E-05   -0.23880E-05  2383   0.246E-02
  65 F= -.13343314E+03 E0= -.13342940E+03  d E =0.151224E-03
quench:  g(F)=  0.000E+00 g(S)=  0.000E+00 dE (1.order)= 0.000E+00
 bond charge predicted
       N       E                     dE             d eps       ncg     rms          rms(c)
DAV:   1    -0.133433242730E+03   -0.11414E-03   -0.48821E-02  4356   0.273E-01    0.151E-01
RMM:   2    -0.133444265455E+03   -0.11023E-01   -0.35892E-03  4162   0.108E-01    0.131E+00
RMM:   3    -0.133432106821E+03    0.12159E-01   -0.15664E-03  4071   0.102E-01    0.841E-02
RMM:   4    -0.133433153470E+03   -0.10466E-02   -0.41255E-04  3785   0.645E-02    0.919E-02
RMM:   5    -0.133433156147E+03   -0.26763E-05   -0.15241E-04  2917   0.363E-02    0.337E-02
RMM:   6    -0.133433175470E+03   -0.19324E-04   -0.32098E-05  2491   0.247E-02    0.128E-02
RMM:   7    -0.133433181711E+03   -0.62406E-05   -0.10775E-05  2268   0.164E-02
  66 F= -.13343318E+03 E0= -.13342939E+03  d E =-.434089E-04
quench:  g(F)=  0.000E+00 g(S)=  0.000E+00 dE (1.order)= 0.000E+00
 bond charge predicted
       N       E                     dE             d eps       ncg     rms          rms(c)
DAV:   1    -0.133433096446E+03    0.79024E-04   -0.40737E-02  4167   0.253E-01    0.769E-02
RMM:   2    -0.133435047600E+03   -0.19512E-02   -0.16473E-03  4747   0.672E-02    0.552E-01
RMM:   3    -0.133432970938E+03    0.20767E-02   -0.36121E-04  3905   0.511E-02    0.447E-02
RMM:   4    -0.133433149550E+03   -0.17861E-03   -0.11934E-04  2765   0.350E-02    0.339E-02
RMM:   5    -0.133433166189E+03   -0.16639E-04   -0.63563E-05  2750   0.310E-02    0.251E-02
RMM:   6    -0.133433156182E+03    0.10007E-04   -0.20139E-05  2344   0.234E-02    0.997E-03
RMM:   7    -0.133433156901E+03   -0.71945E-06   -0.52335E-06  2225   0.111E-02
  67 F= -.13343316E+03 E0= -.13342937E+03  d E =0.248094E-04
quench:  g(F)=  0.000E+00 g(S)=  0.000E+00 dE (1.order)= 0.000E+00
 bond charge predicted
       N       E                     dE             d eps       ncg     rms          rms(c)
DAV:   1    -0.133433017471E+03    0.13871E-03   -0.50495E-02  4131   0.281E-01    0.609E-02
RMM:   2    -0.133433985165E+03   -0.96769E-03   -0.17230E-03  4896   0.674E-02    0.376E-01
RMM:   3    -0.133433017663E+03    0.96750E-03   -0.23246E-04  3311   0.415E-02    0.438E-02
RMM:   4    -0.133433115625E+03   -0.97962E-04   -0.84892E-05  2680   0.298E-02    0.441E-02
RMM:   5    -0.133433117699E+03   -0.20736E-05   -0.56471E-05  2847   0.296E-02
  68 F= -.13343312E+03 E0= -.13342932E+03  d E =0.392028E-04
quench:  g(F)=  0.000E+00 g(S)=  0.000E+00 dE (1.order)= 0.000E+00
 bond charge predicted
       N       E                     dE             d eps       ncg     rms          rms(c)
DAV:   1    -0.133432988089E+03    0.12754E-03   -0.45224E-02  5130   0.325E-01    0.602E-02
RMM:   2    -0.133433626971E+03   -0.63888E-03   -0.17858E-03  4900   0.645E-02    0.286E-01
RMM:   3    -0.133433042734E+03    0.58424E-03   -0.18227E-04  3075   0.328E-02    0.632E-02
RMM:   4    -0.133433094159E+03   -0.51426E-04   -0.79198E-05  2652   0.273E-02    0.232E-02
RMM:   5    -0.133433096472E+03   -0.23130E-05   -0.37814E-05  2465   0.200E-02
  69 F= -.13343310E+03 E0= -.13342925E+03  d E =0.212264E-04
quench:  g(F)=  0.000E+00 g(S)=  0.000E+00 dE (1.order)= 0.000E+00
 bond charge predicted
       N       E                     dE             d eps       ncg     rms          rms(c)
DAV:   1    -0.133432983515E+03    0.11064E-03   -0.44778E-02  5049   0.341E-01    0.501E-02
RMM:   2    -0.133433155614E+03   -0.17210E-03   -0.17390E-03  4851   0.710E-02    0.632E-02
RMM:   3    -0.133433145670E+03    0.99434E-05   -0.84111E-05  2937   0.235E-02
  70 F= -.13343315E+03 E0= -.13342924E+03  d E =-.491981E-04
quench:  g(F)=  0.000E+00 g(S)=  0.000E+00 dE (1.order)= 0.000E+00
 bond charge predicted
       N       E                     dE             d eps       ncg     rms          rms(c)
DAV:   1    -0.133433007579E+03    0.14803E-03   -0.45528E-02  4671   0.310E-01    0.138E-01
RMM:   2    -0.133440075974E+03   -0.70684E-02   -0.33514E-03  4347   0.115E-01    0.109E+00
RMM:   3    -0.133432291585E+03    0.77844E-02   -0.12309E-03  4081   0.927E-02    0.822E-02
RMM:   4    -0.133433017202E+03   -0.72562E-03   -0.37912E-04  3936   0.701E-02    0.593E-02
RMM:   5    -0.133433019037E+03   -0.18354E-05   -0.98935E-05  2672   0.315E-02
  71 F= -.13343302E+03 E0= -.13342919E+03  d E =0.126633E-03
quench:  g(F)=  0.000E+00 g(S)=  0.000E+00 dE (1.order)= 0.000E+00
 bond charge predicted
       N       E                     dE             d eps       ncg     rms          rms(c)
DAV:   1    -0.133433139499E+03   -0.12230E-03   -0.27190E-02  4644   0.208E-01    0.123E-01
RMM:   2    -0.133440402829E+03   -0.72633E-02   -0.21956E-03  4152   0.806E-02    0.107E+00
RMM:   3    -0.133432341343E+03    0.80615E-02   -0.10676E-03  4069   0.852E-02    0.590E-02
RMM:   4    -0.133433072069E+03   -0.73073E-03   -0.29151E-04  3272   0.522E-02    0.598E-02
RMM:   5    -0.133433093229E+03   -0.21160E-04   -0.10226E-04  2668   0.323E-02    0.214E-02
RMM:   6    -0.133433104947E+03   -0.11718E-04   -0.20999E-05  2415   0.226E-02    0.663E-03
RMM:   7    -0.133433109108E+03   -0.41611E-05   -0.73132E-06  2199   0.143E-02
  72 F= -.13343311E+03 E0= -.13342924E+03  d E =-.900711E-04
quench:  g(F)=  0.000E+00 g(S)=  0.000E+00 dE (1.order)= 0.000E+00
 bond charge predicted
       N       E                     dE             d eps       ncg     rms          rms(c)
DAV:   1    -0.133433009308E+03    0.95639E-04   -0.40967E-02  4167   0.254E-01    0.453E-02
RMM:   2    -0.133433346213E+03   -0.33691E-03   -0.10279E-03  4443   0.532E-02    0.204E-01
RMM:   3    -0.133433057956E+03    0.28826E-03   -0.11606E-04  2738   0.289E-02    0.482E-02
RMM:   4    -0.133433086332E+03   -0.28377E-04   -0.42652E-05  2556   0.216E-02    0.164E-02
RMM:   5    -0.133433092844E+03   -0.65116E-05   -0.19137E-05  2359   0.178E-02
  73 F= -.13343309E+03 E0= -.13342919E+03  d E =0.162643E-04
quench:  g(F)=  0.000E+00 g(S)=  0.000E+00 dE (1.order)= 0.000E+00
 bond charge predicted
       N       E                     dE             d eps       ncg     rms          rms(c)
DAV:   1    -0.133432853608E+03    0.23272E-03   -0.78720E-02  4671   0.399E-01    0.537E-02
RMM:   2    -0.133433060804E+03   -0.20720E-03   -0.21749E-03  5109   0.754E-02    0.479E-02
RMM:   3    -0.133433132121E+03   -0.71316E-04   -0.14176E-04  3041   0.233E-02    0.128E-01
RMM:   4    -0.133433009362E+03    0.12276E-03   -0.41618E-05  2512   0.225E-02    0.328E-02
RMM:   5    -0.133433040494E+03   -0.31132E-04   -0.32262E-05  2526   0.225E-02    0.293E-02
RMM:   6    -0.133433023720E+03    0.16775E-04   -0.19721E-05  2352   0.231E-02    0.107E-02
RMM:   7    -0.133433023770E+03   -0.49964E-07   -0.65779E-06  2206   0.114E-02
  74 F= -.13343302E+03 E0= -.13342912E+03  d E =0.690743E-04
quench:  g(F)=  0.000E+00 g(S)=  0.000E+00 dE (1.order)= 0.000E+00
 bond charge predicted
       N       E                     dE             d eps       ncg     rms          rms(c)
DAV:   1    -0.133432773459E+03    0.25026E-03   -0.69952E-02  4041   0.309E-01    0.695E-02
RMM:   2    -0.133433044573E+03   -0.27111E-03   -0.25636E-03  5046   0.707E-02    0.119E-01
RMM:   3    -0.133433089112E+03   -0.44540E-04   -0.21251E-04  2992   0.330E-02    0.165E-01
RMM:   4    -0.133432905041E+03    0.18407E-03   -0.92734E-05  2698   0.272E-02    0.310E-02
RMM:   5    -0.133432919429E+03   -0.14388E-04   -0.58314E-05  2564   0.209E-02    0.152E-02
RMM:   6    -0.133432923971E+03   -0.45417E-05   -0.29262E-05  2544   0.256E-02
  75 F= -.13343292E+03 E0= -.13342899E+03  d E =0.997987E-04
quench:  g(F)=  0.000E+00 g(S)=  0.000E+00 dE (1.order)= 0.000E+00
 bond charge predicted
       N       E                     dE             d eps       ncg     rms          rms(c)
DAV:   1    -0.133432948240E+03   -0.28811E-04   -0.36035E-02  4869   0.267E-01    0.524E-02
RMM:   2    -0.133433084570E+03   -0.13633E-03   -0.15683E-03  4569   0.583E-02    0.560E-02
RMM:   3    -0.133433105722E+03   -0.21151E-04   -0.95972E-05  2887   0.211E-02    0.102E-01
RMM:   4    -0.133433034969E+03    0.70753E-04   -0.31530E-05  2536   0.175E-02    0.382E-02
RMM:   5    -0.133433036553E+03   -0.15835E-05   -0.27401E-05  2500   0.170E-02
  76 F= -.13343304E+03 E0= -.13342911E+03  d E =-.112582E-03
quench:  g(F)=  0.000E+00 g(S)=  0.000E+00 dE (1.order)= 0.000E+00
 bond charge predicted
       N       E                     dE             d eps       ncg     rms          rms(c)
DAV:   1    -0.133432953022E+03    0.81947E-04   -0.28970E-02  4923   0.247E-01    0.369E-02
RMM:   2    -0.133433105724E+03   -0.15270E-03   -0.86582E-04  4146   0.525E-02    0.112E-01
RMM:   3    -0.133433024432E+03    0.81291E-04   -0.66059E-05  2609   0.206E-02    0.659E-02
RMM:   4    -0.133433012563E+03    0.11870E-04   -0.29227E-05  2503   0.183E-02    0.170E-02
RMM:   5    -0.133433017481E+03   -0.49188E-05   -0.19042E-05  2301   0.197E-02
  77 F= -.13343302E+03 E0= -.13342908E+03  d E =0.190711E-04
quench:  g(F)=  0.000E+00 g(S)=  0.000E+00 dE (1.order)= 0.000E+00
 bond charge predicted
       N       E                     dE             d eps       ncg     rms          rms(c)
DAV:   1    -0.133432840100E+03    0.17246E-03   -0.62104E-02  4464   0.335E-01    0.457E-02
RMM:   2    -0.133433030049E+03   -0.18995E-03   -0.15049E-03  4743   0.652E-02    0.881E-02
RMM:   3    -0.133433015591E+03    0.14458E-04   -0.12274E-04  2786   0.246E-02    0.101E-01
RMM:   4    -0.133432957099E+03    0.58492E-04   -0.42095E-05  2530   0.193E-02    0.278E-02
RMM:   5    -0.133432967926E+03   -0.10827E-04   -0.24245E-05  2423   0.222E-02    0.202E-02
RMM:   6    -0.133432965103E+03    0.28232E-05   -0.13402E-05  2278   0.186E-02
  78 F= -.13343297E+03 E0= -.13342899E+03  d E =0.523789E-04
quench:  g(F)=  0.000E+00 g(S)=  0.000E+00 dE (1.order)= 0.000E+00
 bond charge predicted
       N       E                     dE             d eps       ncg     rms          rms(c)
DAV:   1    -0.133432661305E+03    0.30662E-03   -0.84045E-02  4086   0.353E-01    0.804E-02
RMM:   2    -0.133434055464E+03   -0.13942E-02   -0.28806E-03  5329   0.811E-02    0.444E-01
RMM:   3    -0.133432740238E+03    0.13152E-02   -0.36483E-04  3875   0.495E-02    0.751E-02
RMM:   4    -0.133432826019E+03   -0.85781E-04   -0.13666E-04  2788   0.301E-02    0.307E-02
RMM:   5    -0.133432836743E+03   -0.10724E-04   -0.69900E-05  2609   0.277E-02    0.282E-02
RMM:   6    -0.133432825383E+03    0.11359E-04   -0.31385E-05  2456   0.287E-02    0.193E-02
RMM:   7    -0.133432819656E+03    0.57275E-05   -0.74428E-06  2207   0.135E-02
  79 F= -.13343282E+03 E0= -.13342884E+03  d E =0.145447E-03
quench:  g(F)=  0.000E+00 g(S)=  0.000E+00 dE (1.order)= 0.000E+00
 bond charge predicted
       N       E                     dE             d eps       ncg     rms          rms(c)
DAV:   1    -0.133432708902E+03    0.11648E-03   -0.59204E-02  4140   0.292E-01    0.680E-02
RMM:   2    -0.133433135966E+03   -0.42706E-03   -0.23962E-03  4949   0.709E-02    0.211E-01
RMM:   3    -0.133432862829E+03    0.27314E-03   -0.20126E-04  2977   0.348E-02    0.915E-02
RMM:   4    -0.133432858059E+03    0.47706E-05   -0.10188E-04  2738   0.269E-02    0.422E-02
RMM:   5    -0.133432865779E+03   -0.77204E-05   -0.69182E-05  3025   0.314E-02
  80 F= -.13343287E+03 E0= -.13342891E+03  d E =-.461234E-04
quench:  g(F)=  0.000E+00 g(S)=  0.000E+00 dE (1.order)= 0.000E+00
 bond charge predicted
       N       E                     dE             d eps       ncg     rms          rms(c)
DAV:   1    -0.133432839687E+03    0.18372E-04   -0.20435E-02  5850   0.329E-01    0.371E-02
RMM:   2    -0.133432940558E+03   -0.10087E-03   -0.85167E-04  4355   0.506E-02    0.610E-02
RMM:   3    -0.133432949164E+03   -0.86054E-05   -0.53261E-05  2593   0.191E-02
  81 F= -.13343295E+03 E0= -.13342887E+03  d E =-.833844E-04
quench:  g(F)=  0.000E+00 g(S)=  0.000E+00 dE (1.order)= 0.000E+00
 bond charge predicted
       N       E                     dE             d eps       ncg     rms          rms(c)
DAV:   1    -0.133432967544E+03   -0.26986E-04   -0.44039E-02  4032   0.277E-01    0.205E-01
RMM:   2    -0.133454351750E+03   -0.21384E-01   -0.51493E-03  4168   0.139E-01    0.183E+00
RMM:   3    -0.133429981908E+03    0.24370E-01   -0.28394E-03  4083   0.134E-01    0.793E-02
RMM:   4    -0.133432718778E+03   -0.27369E-02   -0.68874E-04  3931   0.815E-02    0.678E-02
RMM:   5    -0.133432781205E+03   -0.62427E-04   -0.18389E-04  3045   0.427E-02    0.292E-02
RMM:   6    -0.133432805684E+03   -0.24479E-04   -0.28951E-05  2478   0.243E-02    0.247E-02
RMM:   7    -0.133432808857E+03   -0.31733E-05   -0.13574E-05  2273   0.188E-02
  82 F= -.13343281E+03 E0= -.13342881E+03  d E =0.140306E-03
quench:  g(F)=  0.000E+00 g(S)=  0.000E+00 dE (1.order)= 0.000E+00
 bond charge predicted
       N       E                     dE             d eps       ncg     rms          rms(c)
DAV:   1    -0.133432884147E+03   -0.78463E-04   -0.36282E-02  4257   0.238E-01    0.128E-01
RMM:   2    -0.133441019850E+03   -0.81357E-02   -0.24881E-03  4154   0.910E-02    0.115E+00
RMM:   3    -0.133431979871E+03    0.90400E-02   -0.11895E-03  4068   0.913E-02    0.684E-02
RMM:   4    -0.133432808174E+03   -0.82830E-03   -0.32402E-04  3570   0.566E-02    0.768E-02
RMM:   5    -0.133432821792E+03   -0.13618E-04   -0.10076E-04  2646   0.309E-02    0.307E-02
RMM:   6    -0.133432835801E+03   -0.14008E-04   -0.22306E-05  2441   0.216E-02    0.121E-02
RMM:   7    -0.133432841515E+03   -0.57139E-05   -0.84637E-06  2241   0.151E-02
  83 F= -.13343284E+03 E0= -.13342880E+03  d E =-.326574E-04
quench:  g(F)=  0.000E+00 g(S)=  0.000E+00 dE (1.order)= 0.000E+00
 bond charge predicted
       N       E                     dE             d eps       ncg     rms          rms(c)
DAV:   1    -0.133432701383E+03    0.13442E-03   -0.62378E-02  4140   0.317E-01    0.731E-02
RMM:   2    -0.133434665950E+03   -0.19646E-02   -0.16589E-03  4731   0.728E-02    0.558E-01
RMM:   3    -0.133432588529E+03    0.20774E-02   -0.36395E-04  3926   0.527E-02    0.349E-02
RMM:   4    -0.133432789356E+03   -0.20083E-03   -0.11744E-04  2811   0.395E-02    0.344E-02
RMM:   5    -0.133432793170E+03   -0.38142E-05   -0.46066E-05  2504   0.291E-02
  84 F= -.13343279E+03 E0= -.13342873E+03  d E =0.483450E-04
quench:  g(F)=  0.000E+00 g(S)=  0.000E+00 dE (1.order)= 0.000E+00
 bond charge predicted
       N       E                     dE             d eps       ncg     rms          rms(c)
DAV:   1    -0.133432530678E+03    0.25868E-03   -0.11387E-01  4167   0.431E-01    0.633E-02
RMM:   2    -0.133433507680E+03   -0.97700E-03   -0.26052E-03  5171   0.865E-02    0.361E-01
RMM:   3    -0.133432637598E+03    0.87008E-03   -0.26003E-04  3347   0.402E-02    0.394E-02
RMM:   4    -0.133432750644E+03   -0.11305E-03   -0.86096E-05  2861   0.368E-02    0.543E-02
RMM:   5    -0.133432730329E+03    0.20315E-04   -0.43329E-05  2522   0.285E-02    0.219E-02
RMM:   6    -0.133432734421E+03   -0.40915E-05   -0.19632E-05  2414   0.213E-02
  85 F= -.13343273E+03 E0= -.13342865E+03  d E =0.587492E-04
quench:  g(F)=  0.000E+00 g(S)=  0.000E+00 dE (1.order)= 0.000E+00
 bond charge predicted
       N       E                     dE             d eps       ncg     rms          rms(c)
DAV:   1    -0.133432339908E+03    0.39042E-03   -0.18422E-01  4104   0.534E-01    0.135E-01
RMM:   2    -0.133439502435E+03   -0.71625E-02   -0.54740E-03  4897   0.122E-01    0.106E+00
RMM:   3    -0.133431799427E+03    0.77030E-02   -0.11372E-03  4098   0.867E-02    0.630E-02
RMM:   4    -0.133432591258E+03   -0.79183E-03   -0.30315E-04  3417   0.565E-02    0.534E-02
RMM:   5    -0.133432609297E+03   -0.18039E-04   -0.12832E-04  3785   0.431E-02    0.321E-02
RMM:   6    -0.133432604439E+03    0.48577E-05   -0.31444E-05  2497   0.257E-02
  86 F= -.13343260E+03 E0= -.13342851E+03  d E =0.129982E-03
quench:  g(F)=  0.000E+00 g(S)=  0.000E+00 dE (1.order)= 0.000E+00
 bond charge predicted
       N       E                     dE             d eps       ncg     rms          rms(c)
DAV:   1    -0.133432154717E+03    0.45458E-03   -0.14610E-01  4113   0.456E-01    0.160E-01
RMM:   2    -0.133442913986E+03   -0.10759E-01   -0.69742E-03  4388   0.138E-01    0.130E+00
RMM:   3    -0.133431306210E+03    0.11608E-01   -0.16371E-03  4075   0.106E-01    0.103E-01
RMM:   4    -0.133432337764E+03   -0.10316E-02   -0.48682E-04  3885   0.664E-02    0.111E-01
RMM:   5    -0.133432326494E+03    0.11270E-04   -0.26510E-04  4008   0.515E-02    0.448E-02
RMM:   6    -0.133432320444E+03    0.60498E-05   -0.68402E-05  3003   0.339E-02
  87 F= -.13343232E+03 E0= -.13342818E+03  d E =0.283995E-03
quench:  g(F)=  0.000E+00 g(S)=  0.000E+00 dE (1.order)= 0.000E+00
 bond charge predicted
       N       E                     dE             d eps       ncg     rms          rms(c)
DAV:   1    -0.133432469580E+03   -0.14309E-03   -0.57770E-02  4446   0.297E-01    0.102E-01
RMM:   2    -0.133435403958E+03   -0.29344E-02   -0.31918E-03  4842   0.880E-02    0.683E-01
RMM:   3    -0.133432326018E+03    0.30779E-02   -0.56281E-04  4064   0.622E-02    0.734E-02
RMM:   4    -0.133432591694E+03   -0.26568E-03   -0.19776E-04  2976   0.395E-02    0.437E-02
RMM:   5    -0.133432624425E+03   -0.32732E-04   -0.12901E-04  3785   0.416E-02    0.419E-02
RMM:   6    -0.133432586962E+03    0.37464E-04   -0.39249E-05  2606   0.296E-02    0.123E-02
RMM:   7    -0.133432586696E+03    0.26554E-06   -0.97782E-06  2201   0.155E-02
  88 F= -.13343259E+03 E0= -.13342844E+03  d E =-.266252E-03
quench:  g(F)=  0.000E+00 g(S)=  0.000E+00 dE (1.order)= 0.000E+00
 bond charge predicted
       N       E                     dE             d eps       ncg     rms          rms(c)
DAV:   1    -0.133432524749E+03    0.62213E-04   -0.29019E-02  4311   0.214E-01    0.511E-02
RMM:   2    -0.133433286015E+03   -0.76127E-03   -0.98500E-04  4517   0.503E-02    0.343E-01
RMM:   3    -0.133432487857E+03    0.79816E-03   -0.16905E-04  3069   0.362E-02    0.361E-02
RMM:   4    -0.133432573391E+03   -0.85534E-04   -0.60691E-05  2587   0.253E-02    0.208E-02
RMM:   5    -0.133432583324E+03   -0.99323E-05   -0.30939E-05  2458   0.206E-02
  89 F= -.13343258E+03 E0= -.13342840E+03  d E =0.337229E-05
quench:  g(F)=  0.000E+00 g(S)=  0.000E+00 dE (1.order)= 0.000E+00
 bond charge predicted
       N       E                     dE             d eps       ncg     rms          rms(c)
DAV:   1    -0.133432423828E+03    0.14956E-03   -0.56736E-02  4842   0.355E-01    0.539E-02
RMM:   2    -0.133432893312E+03   -0.46948E-03   -0.16216E-03  4878   0.678E-02    0.245E-01
RMM:   3    -0.133432523763E+03    0.36955E-03   -0.15323E-04  2939   0.305E-02    0.687E-02
RMM:   4    -0.133432548113E+03   -0.24349E-04   -0.59575E-05  2595   0.281E-02    0.265E-02
RMM:   5    -0.133432550341E+03   -0.22286E-05   -0.33046E-05  2458   0.258E-02
  90 F= -.13343255E+03 E0= -.13342835E+03  d E =0.329824E-04
quench:  g(F)=  0.000E+00 g(S)=  0.000E+00 dE (1.order)= 0.000E+00
 bond charge predicted
       N       E                     dE             d eps       ncg     rms          rms(c)
DAV:   1    -0.133432300611E+03    0.24750E-03   -0.78748E-02  4635   0.372E-01    0.719E-02
RMM:   2    -0.133433212675E+03   -0.91206E-03   -0.24821E-03  5163   0.759E-02    0.353E-01
RMM:   3    -0.133432406583E+03    0.80609E-03   -0.29441E-04  3506   0.423E-02    0.801E-02
RMM:   4    -0.133432459148E+03   -0.52565E-04   -0.10969E-04  2724   0.295E-02    0.281E-02
RMM:   5    -0.133432472531E+03   -0.13383E-04   -0.56656E-05  2709   0.289E-02    0.306E-02
RMM:   6    -0.133432458407E+03    0.14124E-04   -0.27016E-05  2403   0.265E-02    0.153E-02
RMM:   7    -0.133432454985E+03    0.34226E-05   -0.59547E-06  2230   0.114E-02
  91 F= -.13343245E+03 E0= -.13342827E+03  d E =0.953564E-04
quench:  g(F)=  0.000E+00 g(S)=  0.000E+00 dE (1.order)= 0.000E+00
 bond charge predicted
       N       E                     dE             d eps       ncg     rms          rms(c)
DAV:   1    -0.133432285295E+03    0.17311E-03   -0.66222E-02  4104   0.307E-01    0.703E-02
RMM:   2    -0.133432905134E+03   -0.61984E-03   -0.24409E-03  4957   0.720E-02    0.280E-01
RMM:   3    -0.133432402394E+03    0.50274E-03   -0.25821E-04  3066   0.414E-02    0.783E-02
RMM:   4    -0.133432442631E+03   -0.40237E-04   -0.11159E-04  2762   0.281E-02    0.443E-02
RMM:   5    -0.133432452467E+03   -0.98361E-05   -0.81488E-05  3340   0.339E-02
  92 F= -.13343245E+03 E0= -.13342829E+03  d E =0.251750E-05
quench:  g(F)=  0.000E+00 g(S)=  0.000E+00 dE (1.order)= 0.000E+00
 bond charge predicted
       N       E                     dE             d eps       ncg     rms          rms(c)
DAV:   1    -0.133432432514E+03    0.10117E-04   -0.25282E-02  5814   0.348E-01    0.430E-02
RMM:   2    -0.133432531489E+03   -0.98974E-04   -0.11017E-03  4370   0.532E-02    0.478E-02
RMM:   3    -0.133432527394E+03    0.40946E-05   -0.54785E-05  2720   0.191E-02
  93 F= -.13343253E+03 E0= -.13342836E+03  d E =-.749267E-04
quench:  g(F)=  0.000E+00 g(S)=  0.000E+00 dE (1.order)= 0.000E+00
 bond charge predicted
       N       E                     dE             d eps       ncg     rms          rms(c)
DAV:   1    -0.133432371065E+03    0.16042E-03   -0.42215E-02  4446   0.263E-01    0.783E-02
RMM:   2    -0.133434584256E+03   -0.22132E-02   -0.14892E-03  4232   0.760E-02    0.615E-01
RMM:   3    -0.133432184969E+03    0.23993E-02   -0.40204E-04  3977   0.563E-02    0.493E-02
RMM:   4    -0.133432425075E+03   -0.24011E-03   -0.14700E-04  3431   0.443E-02    0.621E-02
RMM:   5    -0.133432410249E+03    0.14825E-04   -0.44054E-05  2500   0.247E-02    0.297E-02
RMM:   6    -0.133432415276E+03   -0.50272E-05   -0.11957E-05  2308   0.149E-02
  94 F= -.13343242E+03 E0= -.13342817E+03  d E =0.112118E-03
quench:  g(F)=  0.000E+00 g(S)=  0.000E+00 dE (1.order)= 0.000E+00
 bond charge predicted
       N       E                     dE             d eps       ncg     rms          rms(c)
DAV:   1    -0.133432433875E+03   -0.23625E-04   -0.66578E-02  4176   0.310E-01    0.164E-01
RMM:   2    -0.133446185689E+03   -0.13752E-01   -0.40031E-03  4264   0.111E-01    0.150E+00
RMM:   3    -0.133430567276E+03    0.15618E-01   -0.19178E-03  4082   0.111E-01    0.737E-02
RMM:   4    -0.133432341653E+03   -0.17744E-02   -0.49132E-04  3784   0.708E-02    0.742E-02
RMM:   5    -0.133432369388E+03   -0.27735E-04   -0.15784E-04  3071   0.410E-02    0.277E-02
RMM:   6    -0.133432390070E+03   -0.20682E-04   -0.26520E-05  2461   0.235E-02    0.165E-02
RMM:   7    -0.133432396081E+03   -0.60111E-05   -0.13639E-05  2309   0.189E-02
  95 F= -.13343240E+03 E0= -.13342817E+03  d E =0.191953E-04
quench:  g(F)=  0.000E+00 g(S)=  0.000E+00 dE (1.order)= 0.000E+00
 bond charge predicted
       N       E                     dE             d eps       ncg     rms          rms(c)
DAV:   1    -0.133432205778E+03    0.18429E-03   -0.70951E-02  4113   0.329E-01    0.832E-02
RMM:   2    -0.133434865785E+03   -0.26600E-02   -0.24555E-03  4614   0.838E-02    0.653E-01
RMM:   3    -0.133432031026E+03    0.28348E-02   -0.49526E-04  3983   0.615E-02    0.589E-02
RMM:   4    -0.133432316696E+03   -0.28567E-03   -0.16495E-04  3008   0.402E-02    0.661E-02
RMM:   5    -0.133432316206E+03    0.49022E-06   -0.10241E-04  3320   0.361E-02    0.277E-02
RMM:   6    -0.133432316366E+03   -0.16006E-06   -0.25860E-05  2443   0.241E-02
  96 F= -.13343232E+03 E0= -.13342805E+03  d E =0.797149E-04
quench:  g(F)=  0.000E+00 g(S)=  0.000E+00 dE (1.order)= 0.000E+00
 bond charge predicted
       N       E                     dE             d eps       ncg     rms          rms(c)
DAV:   1    -0.133432261557E+03    0.54649E-04   -0.48109E-02  4230   0.261E-01    0.999E-02
RMM:   2    -0.133436024763E+03   -0.37632E-02   -0.24971E-03  4634   0.797E-02    0.790E-01
RMM:   3    -0.133431924575E+03    0.41002E-02   -0.67017E-04  4073   0.680E-02    0.601E-02
RMM:   4    -0.133432310191E+03   -0.38562E-03   -0.19301E-04  2982   0.411E-02    0.452E-02
RMM:   5    -0.133432335233E+03   -0.25042E-04   -0.10633E-04  3473   0.377E-02    0.313E-02
RMM:   6    -0.133432323061E+03    0.12172E-04   -0.27570E-05  2442   0.258E-02    0.128E-02
RMM:   7    -0.133432322220E+03    0.84071E-06   -0.85509E-06  2196   0.147E-02
  97 F= -.13343232E+03 E0= -.13342806E+03  d E =-.585360E-05
quench:  g(F)=  0.000E+00 g(S)=  0.000E+00 dE (1.order)= 0.000E+00
 bond charge predicted
       N       E                     dE             d eps       ncg     rms          rms(c)
DAV:   1    -0.133432265495E+03    0.57566E-04   -0.35002E-02  4194   0.231E-01    0.459E-02
RMM:   2    -0.133432481071E+03   -0.21558E-03   -0.12036E-03  4287   0.519E-02    0.147E-01
RMM:   3    -0.133432341553E+03    0.13952E-03   -0.97734E-05  2669   0.259E-02    0.600E-02
RMM:   4    -0.133432350785E+03   -0.92319E-05   -0.44991E-05  2576   0.194E-02
  98 F= -.13343235E+03 E0= -.13342805E+03  d E =-.285652E-04
quench:  g(F)=  0.000E+00 g(S)=  0.000E+00 dE (1.order)= 0.000E+00
 bond charge predicted
       N       E                     dE             d eps       ncg     rms          rms(c)
DAV:   1    -0.133432243550E+03    0.98003E-04   -0.43753E-02  4986   0.341E-01    0.784E-02
RMM:   2    -0.133433839666E+03   -0.15961E-02   -0.17685E-03  4423   0.908E-02    0.524E-01
RMM:   3    -0.133432225712E+03    0.16140E-02   -0.38145E-04  4033   0.537E-02    0.881E-02
RMM:   4    -0.133432325166E+03   -0.99454E-04   -0.16782E-04  3736   0.503E-02    0.343E-02
RMM:   5    -0.133432318158E+03    0.70079E-05   -0.35238E-05  2461   0.207E-02
  99 F= -.13343232E+03 E0= -.13342803E+03  d E =0.326270E-04
quench:  g(F)=  0.000E+00 g(S)=  0.000E+00 dE (1.order)= 0.000E+00
 bond charge predicted
       N       E                     dE             d eps       ncg     rms          rms(c)
DAV:   1    -0.133432148853E+03    0.17631E-03   -0.65717E-02  4104   0.316E-01    0.678E-02
RMM:   2    -0.133433655395E+03   -0.15065E-02   -0.19965E-03  4911   0.703E-02    0.483E-01
RMM:   3    -0.133432109451E+03    0.15459E-02   -0.30954E-04  3650   0.480E-02    0.460E-02
RMM:   4    -0.133432260855E+03   -0.15140E-03   -0.10596E-04  2745   0.318E-02    0.465E-02
RMM:   5    -0.133432268396E+03   -0.75408E-05   -0.65244E-05  2824   0.302E-02
 100 F= -.13343227E+03 E0= -.13342798E+03  d E =0.497625E-04
quench:  g(F)=  0.000E+00 g(S)=  0.000E+00 dE (1.order)= 0.000E+00
 bond charge predicted
       N       E                     dE             d eps       ncg     rms          rms(c)
DAV:   1    -0.133432040209E+03    0.22065E-03   -0.72028E-02  4968   0.384E-01    0.704E-02
RMM:   2    -0.133432856136E+03   -0.81593E-03   -0.24263E-03  4986   0.742E-02    0.329E-01
RMM:   3    -0.133432140337E+03    0.71580E-03   -0.25775E-04  3315   0.384E-02    0.735E-02
RMM:   4    -0.133432192218E+03   -0.51881E-04   -0.11366E-04  2718   0.314E-02    0.284E-02
RMM:   5    -0.133432201250E+03   -0.90320E-05   -0.55657E-05  2548   0.248E-02
 101 F= -.13343220E+03 E0= -.13342785E+03  d E =0.671457E-04
quench:  g(F)=  0.000E+00 g(S)=  0.000E+00 dE (1.order)= 0.000E+00
 bond charge predicted
       N       E                     dE             d eps       ncg     rms          rms(c)
DAV:   1    -0.133432094701E+03    0.97517E-04   -0.53127E-02  5139   0.398E-01    0.628E-02
RMM:   2    -0.133432399803E+03   -0.30510E-03   -0.23640E-03  4924   0.805E-02    0.150E-01
RMM:   3    -0.133432348278E+03    0.51525E-04   -0.12341E-04  3016   0.246E-02    0.136E-01
RMM:   4    -0.133432228589E+03    0.11969E-03   -0.70677E-05  2716   0.257E-02    0.375E-02
RMM:   5    -0.133432253211E+03   -0.24622E-04   -0.53575E-05  2937   0.322E-02    0.330E-02
RMM:   6    -0.133432231640E+03    0.21571E-04   -0.19415E-05  2383   0.191E-02    0.876E-03
RMM:   7    -0.133432232855E+03   -0.12141E-05   -0.73341E-06  2216   0.123E-02
 102 F= -.13343223E+03 E0= -.13342790E+03  d E =-.316046E-04
quench:  g(F)=  0.000E+00 g(S)=  0.000E+00 dE (1.order)= 0.000E+00
 bond charge predicted
       N       E                     dE             d eps       ncg     rms          rms(c)
DAV:   1    -0.133432189513E+03    0.42127E-04   -0.31797E-02  4167   0.212E-01    0.430E-02
RMM:   2    -0.133432279246E+03   -0.89733E-04   -0.10693E-03  4064   0.467E-02    0.405E-02
RMM:   3    -0.133432273678E+03    0.55687E-05   -0.86425E-05  2604   0.233E-02
 103 F= -.13343227E+03 E0= -.13342789E+03  d E =-.408231E-04
quench:  g(F)=  0.000E+00 g(S)=  0.000E+00 dE (1.order)= 0.000E+00
 bond charge predicted
       N       E                     dE             d eps       ncg     rms          rms(c)
DAV:   1    -0.133432140234E+03    0.13901E-03   -0.45727E-02  4329   0.287E-01    0.771E-02
[...]
RMM:   5    -0.133434107103E+03    0.10632E-04   -0.27152E-05  2411   0.171E-02    0.153E-02
RMM:   6    -0.133434110289E+03   -0.31867E-05   -0.20102E-05  2369   0.215E-02
 243 F= -.13343411E+03 E0= -.13342829E+03  d E =0.498058E-04
quench:  g(F)=  0.000E+00 g(S)=  0.000E+00 dE (1.order)= 0.000E+00
 bond charge predicted
       N       E                     dE             d eps       ncg     rms          rms(c)
DAV:   1    -0.133434164084E+03   -0.56982E-04   -0.49459E-02  5076   0.281E-01    0.800E-02
RMM:   2    -0.133435302789E+03   -0.11387E-02   -0.22615E-03  4605   0.645E-02    0.442E-01
RMM:   3    -0.133434151878E+03    0.11509E-02   -0.28960E-04  3517   0.452E-02    0.101E-01
RMM:   4    -0.133434264320E+03   -0.11244E-03   -0.14739E-04  2839   0.328E-02    0.343E-02
RMM:   5    -0.133434292257E+03   -0.27937E-04   -0.10889E-04  3512   0.365E-02    0.468E-02
RMM:   6    -0.133434250489E+03    0.41769E-04   -0.39959E-05  2641   0.298E-02    0.133E-02
RMM:   7    -0.133434249591E+03    0.89731E-06   -0.45811E-06  2190   0.100E-02
 244 F= -.13343425E+03 E0= -.13342844E+03  d E =-.139302E-03
quench:  g(F)=  0.000E+00 g(S)=  0.000E+00 dE (1.order)= 0.000E+00
 bond charge predicted
       N       E                     dE             d eps       ncg     rms          rms(c)
DAV:   1    -0.133434292145E+03   -0.41656E-04   -0.18714E-02  4140   0.158E-01    0.347E-02
RMM:   2    -0.133434393321E+03   -0.10118E-03   -0.56401E-04  3492   0.337E-02    0.105E-01
RMM:   3    -0.133434337295E+03    0.56026E-04   -0.52901E-05  2514   0.211E-02    0.565E-02
RMM:   4    -0.133434334839E+03    0.24566E-05   -0.26383E-05  2528   0.129E-02
 245 F= -.13343433E+03 E0= -.13342853E+03  d E =-.852474E-04
quench:  g(F)=  0.000E+00 g(S)=  0.000E+00 dE (1.order)= 0.000E+00
 bond charge predicted
       N       E                     dE             d eps       ncg     rms          rms(c)
DAV:   1    -0.133434322878E+03    0.14417E-04   -0.30889E-02  4032   0.198E-01    0.330E-02
RMM:   2    -0.133434396440E+03   -0.73562E-04   -0.70732E-04  3394   0.359E-02    0.511E-02
RMM:   3    -0.133434419561E+03   -0.23121E-04   -0.36473E-05  2470   0.158E-02    0.909E-02
RMM:   4    -0.133434369215E+03    0.50346E-04   -0.15993E-05  2444   0.129E-02    0.234E-02
RMM:   5    -0.133434380460E+03   -0.11245E-04   -0.10162E-05  2352   0.145E-02    0.166E-02
RMM:   6    -0.133434376757E+03    0.37032E-05   -0.69298E-06  2224   0.135E-02
 246 F= -.13343438E+03 E0= -.13342855E+03  d E =-.419180E-04
quench:  g(F)=  0.000E+00 g(S)=  0.000E+00 dE (1.order)= 0.000E+00
 bond charge predicted
       N       E                     dE             d eps       ncg     rms          rms(c)
DAV:   1    -0.133434324069E+03    0.56391E-04   -0.69862E-02  4041   0.311E-01    0.671E-02
RMM:   2    -0.133435870861E+03   -0.15468E-02   -0.16062E-03  4906   0.609E-02    0.524E-01
RMM:   3    -0.133434216664E+03    0.16542E-02   -0.32578E-04  3618   0.489E-02    0.384E-02
RMM:   4    -0.133434433993E+03   -0.21733E-03   -0.10983E-04  2757   0.340E-02    0.311E-02
RMM:   5    -0.133434439392E+03   -0.53986E-05   -0.39596E-05  2563   0.284E-02
 247 F= -.13343444E+03 E0= -.13342860E+03  d E =-.626347E-04
quench:  g(F)=  0.000E+00 g(S)=  0.000E+00 dE (1.order)= 0.000E+00
 bond charge predicted
       N       E                     dE             d eps       ncg     rms          rms(c)
DAV:   1    -0.133434236307E+03    0.19769E-03   -0.93097E-02  4590   0.368E-01    0.701E-02
RMM:   2    -0.133434467524E+03   -0.23122E-03   -0.27710E-03  4601   0.689E-02    0.646E-02
RMM:   3    -0.133434438843E+03    0.28681E-04   -0.15247E-04  2885   0.242E-02    0.782E-02
RMM:   4    -0.133434413339E+03    0.25504E-04   -0.23923E-05  2457   0.147E-02    0.588E-02
RMM:   5    -0.133434415758E+03   -0.24190E-05   -0.37763E-05  2584   0.198E-02
 248 F= -.13343442E+03 E0= -.13342861E+03  d E =0.236338E-04
quench:  g(F)=  0.000E+00 g(S)=  0.000E+00 dE (1.order)= 0.000E+00
 bond charge predicted
       N       E                     dE             d eps       ncg     rms          rms(c)
DAV:   1    -0.133434413855E+03   -0.51653E-06   -0.43394E-02  5418   0.372E-01    0.599E-02
RMM:   2    -0.133434621739E+03   -0.20788E-03   -0.19008E-03  4568   0.720E-02    0.107E-01
RMM:   3    -0.133434646866E+03   -0.25126E-04   -0.11820E-04  2893   0.260E-02    0.146E-01
RMM:   4    -0.133434529640E+03    0.11723E-03   -0.61939E-05  2661   0.221E-02    0.509E-02
RMM:   5    -0.133434544421E+03   -0.14781E-04   -0.60657E-05  3198   0.347E-02    0.320E-02
RMM:   6    -0.133434523369E+03    0.21052E-04   -0.15545E-05  2363   0.183E-02    0.751E-03
RMM:   7    -0.133434524529E+03   -0.11602E-05   -0.58802E-06  2252   0.104E-02
 249 F= -.13343452E+03 E0= -.13342869E+03  d E =-.108771E-03
quench:  g(F)=  0.000E+00 g(S)=  0.000E+00 dE (1.order)= 0.000E+00
 bond charge predicted
       N       E                     dE             d eps       ncg     rms          rms(c)
DAV:   1    -0.133434567608E+03   -0.44239E-04   -0.15903E-02  4266   0.140E-01    0.331E-02
RMM:   2    -0.133434614874E+03   -0.47265E-04   -0.57036E-04  3315   0.309E-02    0.337E-02
RMM:   3    -0.133434616647E+03   -0.17740E-05   -0.27585E-05  2420   0.142E-02
 250 F= -.13343462E+03 E0= -.13342881E+03  d E =-.921185E-04
quench:  g(F)=  0.000E+00 g(S)=  0.000E+00 dE (1.order)= 0.000E+00
 bond charge predicted
       N       E                     dE             d eps       ncg     rms          rms(c)
DAV:   1    -0.133434611617E+03    0.32566E-05   -0.33598E-02  4266   0.219E-01    0.117E-01
RMM:   2    -0.133442371006E+03   -0.77594E-02   -0.20372E-03  4152   0.806E-02    0.119E+00
RMM:   3    -0.133433549747E+03    0.88213E-02   -0.10923E-03  4056   0.864E-02    0.574E-02
RMM:   4    -0.133434567849E+03   -0.10181E-02   -0.33351E-04  3378   0.566E-02    0.756E-02
RMM:   5    -0.133434584511E+03   -0.16662E-04   -0.98102E-05  2658   0.342E-02    0.331E-02
RMM:   6    -0.133434597428E+03   -0.12918E-04   -0.19482E-05  2405   0.206E-02    0.845E-03
RMM:   7    -0.133434602181E+03   -0.47528E-05   -0.84665E-06  2214   0.157E-02
 251 F= -.13343460E+03 E0= -.13342874E+03  d E =0.144664E-04
quench:  g(F)=  0.000E+00 g(S)=  0.000E+00 dE (1.order)= 0.000E+00
 bond charge predicted
       N       E                     dE             d eps       ncg     rms          rms(c)
DAV:   1    -0.133434718848E+03   -0.12142E-03   -0.50311E-02  4167   0.260E-01    0.156E-01
RMM:   2    -0.133449039633E+03   -0.14321E-01   -0.31459E-03  4142   0.994E-02    0.165E+00
RMM:   3    -0.133432161213E+03    0.16878E-01   -0.19229E-03  4061   0.116E-01    0.769E-02
RMM:   4    -0.133434586670E+03   -0.24255E-02   -0.57679E-04  3810   0.733E-02    0.765E-02
RMM:   5    -0.133434645954E+03   -0.59285E-04   -0.15655E-04  2923   0.403E-02    0.270E-02
RMM:   6    -0.133434669216E+03   -0.23262E-04   -0.24630E-05  2441   0.232E-02    0.173E-02
RMM:   7    -0.133434673739E+03   -0.45221E-05   -0.11450E-05  2237   0.176E-02
 252 F= -.13343467E+03 E0= -.13342883E+03  d E =-.715575E-04
quench:  g(F)=  0.000E+00 g(S)=  0.000E+00 dE (1.order)= 0.000E+00
 bond charge predicted
       N       E                     dE             d eps       ncg     rms          rms(c)
DAV:   1    -0.133434648724E+03    0.20492E-04   -0.62343E-02  4167   0.288E-01    0.102E-01
RMM:   2    -0.133440570439E+03   -0.59217E-02   -0.22967E-03  4190   0.850E-02    0.104E+00
RMM:   3    -0.133433876314E+03    0.66941E-02   -0.84637E-04  4057   0.785E-02    0.639E-02
RMM:   4    -0.133434704543E+03   -0.82823E-03   -0.28365E-04  3519   0.543E-02    0.827E-02
RMM:   5    -0.133434696824E+03    0.77186E-05   -0.89744E-05  2732   0.338E-02
 253 F= -.13343470E+03 E0= -.13342883E+03  d E =-.230857E-04
quench:  g(F)=  0.000E+00 g(S)=  0.000E+00 dE (1.order)= 0.000E+00
 bond charge predicted
       N       E                     dE             d eps       ncg     rms          rms(c)
DAV:   1    -0.133434771382E+03   -0.66839E-04   -0.59539E-02  4437   0.292E-01    0.161E-01
RMM:   2    -0.133449339981E+03   -0.14569E-01   -0.38481E-03  4172   0.106E-01    0.166E+00
RMM:   3    -0.133432232639E+03    0.17107E-01   -0.19869E-03  4070   0.117E-01    0.834E-02
RMM:   4    -0.133434653883E+03   -0.24212E-02   -0.58686E-04  3772   0.736E-02    0.719E-02
RMM:   5    -0.133434730624E+03   -0.76740E-04   -0.18824E-04  3288   0.440E-02    0.282E-02
RMM:   6    -0.133434742741E+03   -0.12118E-04   -0.33754E-05  2477   0.263E-02    0.197E-02
RMM:   7    -0.133434743229E+03   -0.48789E-06   -0.10153E-05  2240   0.156E-02
 254 F= -.13343474E+03 E0= -.13342890E+03  d E =-.464047E-04
quench:  g(F)=  0.000E+00 g(S)=  0.000E+00 dE (1.order)= 0.000E+00
 bond charge predicted
       N       E                     dE             d eps       ncg     rms          rms(c)
DAV:   1    -0.133434754581E+03   -0.11840E-04   -0.38724E-02  4185   0.221E-01    0.908E-02
RMM:   2    -0.133438971499E+03   -0.42169E-02   -0.17547E-03  4271   0.700E-02    0.881E-01
RMM:   3    -0.133434174197E+03    0.47973E-02   -0.64159E-04  4035   0.685E-02    0.529E-02
RMM:   4    -0.133434782950E+03   -0.60875E-03   -0.21229E-04  3064   0.452E-02    0.639E-02
RMM:   5    -0.133434792240E+03   -0.92897E-05   -0.91648E-05  2880   0.342E-02
 255 F= -.13343479E+03 E0= -.13342894E+03  d E =-.490109E-04
quench:  g(F)=  0.000E+00 g(S)=  0.000E+00 dE (1.order)= 0.000E+00
 bond charge predicted
       N       E                     dE             d eps       ncg     rms          rms(c)
DAV:   1    -0.133434784256E+03   -0.13053E-05   -0.29334E-02  5130   0.244E-01    0.506E-02
RMM:   2    -0.133435325288E+03   -0.54103E-03   -0.10848E-03  4117   0.460E-02    0.300E-01
RMM:   3    -0.133434782474E+03    0.54281E-03   -0.12084E-04  2868   0.308E-02    0.600E-02
RMM:   4    -0.133434840607E+03   -0.58133E-04   -0.60003E-05  2612   0.239E-02    0.195E-02
RMM:   5    -0.133434849009E+03   -0.84021E-05   -0.28108E-05  2430   0.200E-02
 256 F= -.13343485E+03 E0= -.13342895E+03  d E =-.567695E-04
quench:  g(F)=  0.000E+00 g(S)=  0.000E+00 dE (1.order)= 0.000E+00
 bond charge predicted
       N       E                     dE             d eps       ncg     rms          rms(c)
DAV:   1    -0.133434792498E+03    0.48109E-04   -0.41015E-02  5067   0.316E-01    0.716E-02
RMM:   2    -0.133436746484E+03   -0.19540E-02   -0.14252E-03  4609   0.636E-02    0.607E-01
RMM:   3    -0.133434607973E+03    0.21385E-02   -0.36908E-04  3819   0.526E-02    0.446E-02
RMM:   4    -0.133434874715E+03   -0.26674E-03   -0.15806E-04  3062   0.433E-02    0.488E-02
RMM:   5    -0.133434859254E+03    0.15462E-04   -0.52260E-05  2545   0.306E-02    0.158E-02
RMM:   6    -0.133434863607E+03   -0.43535E-05   -0.11003E-05  2283   0.164E-02
 257 F= -.13343486E+03 E0= -.13342900E+03  d E =-.145976E-04
quench:  g(F)=  0.000E+00 g(S)=  0.000E+00 dE (1.order)= 0.000E+00
 bond charge predicted
       N       E                     dE             d eps       ncg     rms          rms(c)
DAV:   1    -0.133434833454E+03    0.25800E-04   -0.40740E-02  4284   0.220E-01    0.819E-02
RMM:   2    -0.133437777435E+03   -0.29440E-02   -0.18357E-03  4293   0.659E-02    0.733E-01
RMM:   3    -0.133434466247E+03    0.33112E-02   -0.46737E-04  3946   0.581E-02    0.558E-02
RMM:   4    -0.133434870876E+03   -0.40463E-03   -0.16060E-04  2839   0.366E-02    0.525E-02
RMM:   5    -0.133434888149E+03   -0.17273E-04   -0.90714E-05  3016   0.333E-02    0.283E-02
RMM:   6    -0.133434882450E+03    0.56988E-05   -0.27704E-05  2450   0.257E-02
 258 F= -.13343488E+03 E0= -.13342900E+03  d E =-.188434E-04
quench:  g(F)=  0.000E+00 g(S)=  0.000E+00 dE (1.order)= 0.000E+00
 bond charge predicted
       N       E                     dE             d eps       ncg     rms          rms(c)
DAV:   1    -0.133434859907E+03    0.28242E-04   -0.32543E-02  4113   0.210E-01    0.525E-02
RMM:   2    -0.133435390182E+03   -0.53027E-03   -0.11406E-03  4057   0.488E-02    0.294E-01
RMM:   3    -0.133434855472E+03    0.53471E-03   -0.11619E-04  2860   0.307E-02    0.470E-02
RMM:   4    -0.133434931455E+03   -0.75983E-04   -0.63970E-05  2625   0.221E-02    0.236E-02
RMM:   5    -0.133434935126E+03   -0.36705E-05   -0.24449E-05  2414   0.205E-02
 259 F= -.13343494E+03 E0= -.13342903E+03  d E =-.526754E-04
quench:  g(F)=  0.000E+00 g(S)=  0.000E+00 dE (1.order)= 0.000E+00
 bond charge predicted
       N       E                     dE             d eps       ncg     rms          rms(c)
DAV:   1    -0.133434919468E+03    0.11988E-04   -0.25468E-02  5211   0.275E-01    0.470E-02
RMM:   2    -0.133435204392E+03   -0.28492E-03   -0.10087E-03  3967   0.497E-02    0.210E-01
RMM:   3    -0.133434979970E+03    0.22442E-03   -0.89299E-05  2746   0.255E-02    0.888E-02
RMM:   4    -0.133434973260E+03    0.67095E-05   -0.48693E-05  2580   0.237E-02
 260 F= -.13343497E+03 E0= -.13342910E+03  d E =-.381347E-04
quench:  g(F)=  0.000E+00 g(S)=  0.000E+00 dE (1.order)= 0.000E+00
 bond charge predicted
       N       E                     dE             d eps       ncg     rms          rms(c)
DAV:   1    -0.133434928674E+03    0.51296E-04   -0.35898E-02  5103   0.294E-01    0.589E-02
RMM:   2    -0.133435988137E+03   -0.10595E-02   -0.12306E-03  4227   0.655E-02    0.442E-01
RMM:   3    -0.133434868775E+03    0.11194E-02   -0.20240E-04  3236   0.398E-02    0.533E-02
RMM:   4    -0.133435012669E+03   -0.14389E-03   -0.97098E-05  3077   0.381E-02    0.466E-02
RMM:   5    -0.133434998137E+03    0.14532E-04   -0.29550E-05  2386   0.227E-02    0.178E-02
RMM:   6    -0.133435000315E+03   -0.21784E-05   -0.77768E-06  2247   0.118E-02
 261 F= -.13343500E+03 E0= -.13342911E+03  d E =-.270546E-04
quench:  g(F)=  0.000E+00 g(S)=  0.000E+00 dE (1.order)= 0.000E+00
 bond charge predicted
       N       E                     dE             d eps       ncg     rms          rms(c)
DAV:   1    -0.133434942520E+03    0.55617E-04   -0.45969E-02  4104   0.238E-01    0.600E-02
RMM:   2    -0.133435669243E+03   -0.72672E-03   -0.15449E-03  4302   0.523E-02    0.346E-01
RMM:   3    -0.133434946440E+03    0.72280E-03   -0.17801E-04  3060   0.358E-02    0.704E-02
RMM:   4    -0.133435024167E+03   -0.77727E-04   -0.80159E-05  2651   0.251E-02    0.244E-02
RMM:   5    -0.133435027678E+03   -0.35107E-05   -0.39295E-05  2455   0.204E-02
 262 F= -.13343503E+03 E0= -.13342910E+03  d E =-.273625E-04
quench:  g(F)=  0.000E+00 g(S)=  0.000E+00 dE (1.order)= 0.000E+00
 bond charge predicted
       N       E                     dE             d eps       ncg     rms          rms(c)
DAV:   1    -0.133434944479E+03    0.79687E-04   -0.43819E-02  5130   0.330E-01    0.575E-02
RMM:   2    -0.133435356564E+03   -0.41208E-03   -0.16149E-03  4518   0.659E-02    0.243E-01
RMM:   3    -0.133435047833E+03    0.30873E-03   -0.13621E-04  2975   0.280E-02    0.882E-02
RMM:   4    -0.133435072734E+03   -0.24901E-04   -0.75198E-05  2827   0.303E-02    0.448E-02
RMM:   5    -0.133435055309E+03    0.17424E-04   -0.44904E-05  2638   0.307E-02    0.208E-02
RMM:   6    -0.133435048335E+03    0.69748E-05   -0.12654E-05  2286   0.157E-02
 263 F= -.13343505E+03 E0= -.13342915E+03  d E =-.206571E-04
quench:  g(F)=  0.000E+00 g(S)=  0.000E+00 dE (1.order)= 0.000E+00
 bond charge predicted
       N       E                     dE             d eps       ncg     rms          rms(c)
DAV:   1    -0.133435082902E+03   -0.27592E-04   -0.23906E-02  4374   0.168E-01    0.557E-02
RMM:   2    -0.133436004925E+03   -0.92202E-03   -0.10794E-03  3913   0.470E-02    0.405E-01
RMM:   3    -0.133434993287E+03    0.10116E-02   -0.17396E-04  3040   0.380E-02    0.467E-02
RMM:   4    -0.133435119431E+03   -0.12614E-03   -0.72424E-05  2629   0.247E-02    0.319E-02
RMM:   5    -0.133435131911E+03   -0.12479E-04   -0.47979E-05  2591   0.256E-02    0.275E-02
RMM:   6    -0.133435121500E+03    0.10410E-04   -0.22934E-05  2364   0.239E-02    0.701E-03
RMM:   7    -0.133435120734E+03    0.76604E-06   -0.28955E-06  2165   0.808E-03
 264 F= -.13343512E+03 E0= -.13342921E+03  d E =-.723996E-04
quench:  g(F)=  0.000E+00 g(S)=  0.000E+00 dE (1.order)= 0.000E+00
 bond charge predicted
       N       E                     dE             d eps       ncg     rms          rms(c)
DAV:   1    -0.133435099860E+03    0.21640E-04   -0.26307E-02  4167   0.186E-01    0.358E-02
RMM:   2    -0.133435222795E+03   -0.12293E-03   -0.62424E-04  3571   0.362E-02    0.117E-01
RMM:   3    -0.133435146916E+03    0.75879E-04   -0.59726E-05  2560   0.211E-02    0.482E-02
RMM:   4    -0.133435152928E+03   -0.60117E-05   -0.26788E-05  2497   0.142E-02
 265 F= -.13343515E+03 E0= -.13342925E+03  d E =-.321936E-04
quench:  g(F)=  0.000E+00 g(S)=  0.000E+00 dE (1.order)= 0.000E+00
 bond charge predicted
       N       E                     dE             d eps       ncg     rms          rms(c)
DAV:   1    -0.133435108426E+03    0.38490E-04   -0.37574E-02  4941   0.251E-01    0.449E-02
RMM:   2    -0.133435221084E+03   -0.11266E-03   -0.11364E-03  3846   0.522E-02    0.633E-02
RMM:   3    -0.133435217018E+03    0.40655E-05   -0.70686E-05  2676   0.267E-02
 266 F= -.13343522E+03 E0= -.13342934E+03  d E =-.640904E-04
quench:  g(F)=  0.000E+00 g(S)=  0.000E+00 dE (1.order)= 0.000E+00
 bond charge predicted
       N       E                     dE             d eps       ncg     rms          rms(c)
DAV:   1    -0.133435155303E+03    0.65781E-04   -0.50088E-02  4797   0.296E-01    0.176E-01
RMM:   2    -0.133450807784E+03   -0.15652E-01   -0.44074E-03  4153   0.128E-01    0.168E+00
RMM:   3    -0.133433285040E+03    0.17523E-01   -0.22117E-03  4059   0.123E-01    0.101E-01
RMM:   4    -0.133435068575E+03   -0.17835E-02   -0.70290E-04  4040   0.872E-02    0.107E-01
RMM:   5    -0.133435076751E+03   -0.81761E-05   -0.19511E-04  2942   0.392E-02    0.508E-02
RMM:   6    -0.133435093320E+03   -0.16569E-04   -0.29734E-05  2470   0.223E-02    0.182E-02
RMM:   7    -0.133435101901E+03   -0.85809E-05   -0.13655E-05  2281   0.184E-02
 267 F= -.13343510E+03 E0= -.13342915E+03  d E =0.115118E-03
quench:  g(F)=  0.000E+00 g(S)=  0.000E+00 dE (1.order)= 0.000E+00
 bond charge predicted
       N       E                     dE             d eps       ncg     rms          rms(c)
DAV:   1    -0.133435283647E+03   -0.19033E-03   -0.21120E-02  4680   0.175E-01    0.133E-01
RMM:   2    -0.133445692500E+03   -0.10409E-01   -0.21911E-03  4122   0.819E-02    0.142E+00
RMM:   3    -0.133433386585E+03    0.12306E-01   -0.14634E-03  4059   0.102E-01    0.672E-02
RMM:   4    -0.133435166047E+03   -0.17795E-02   -0.44001E-04  3533   0.645E-02    0.600E-02
RMM:   5    -0.133435221214E+03   -0.55167E-04   -0.12833E-04  2751   0.373E-02    0.226E-02
RMM:   6    -0.133435233597E+03   -0.12383E-04   -0.22387E-05  2419   0.233E-02    0.144E-02
RMM:   7    -0.133435236013E+03   -0.24165E-05   -0.87309E-06  2207   0.156E-02
 268 F= -.13343524E+03 E0= -.13342931E+03  d E =-.134113E-03
quench:  g(F)=  0.000E+00 g(S)=  0.000E+00 dE (1.order)= 0.000E+00
 bond charge predicted
       N       E                     dE             d eps       ncg     rms          rms(c)
DAV:   1    -0.133435226727E+03    0.68692E-05   -0.35560E-02  4167   0.224E-01    0.540E-02
RMM:   2    -0.133436399454E+03   -0.11727E-02   -0.83675E-04  4391   0.464E-02    0.466E-01
RMM:   3    -0.133435086273E+03    0.13132E-02   -0.24528E-04  3322   0.449E-02    0.308E-02
RMM:   4    -0.133435279080E+03   -0.19281E-03   -0.87138E-05  2692   0.323E-02    0.271E-02
RMM:   5    -0.133435281075E+03   -0.19957E-05   -0.24786E-05  2417   0.220E-02
 269 F= -.13343528E+03 E0= -.13342934E+03  d E =-.450623E-04
quench:  g(F)=  0.000E+00 g(S)=  0.000E+00 dE (1.order)= 0.000E+00
 bond charge predicted
       N       E                     dE             d eps       ncg     rms          rms(c)
DAV:   1    -0.133435240227E+03    0.38852E-04   -0.68921E-02  4320   0.314E-01    0.987E-02
RMM:   2    -0.133439592662E+03   -0.43524E-02   -0.22906E-03  4512   0.754E-02    0.906E-01
