 vasp.5.4.4.18Apr17-6-g9f103f2a35 (build Feb 06 2024 13:54:16) complex          
  
 POSCAR found type information on POSCAR  Cu Ru Cu N  O 
 03/POSCAR found :  5 types and      40 ions
 scaLAPACK will be used

 ----------------------------------------------------------------------------- 
|                                                                             |
|  ADVICE TO THIS USER RUNNING 'VASP/VAMP'   (HEAR YOUR MASTER'S VOICE ...):  |
|                                                                             |
|      You enforced a specific xc-type in the INCAR file,                     |
|      a different type was found on the POTCAR file                          |
|          I HOPE YOU KNOW, WHAT YOU ARE  DOING                               |
|                                                                             |
 ----------------------------------------------------------------------------- 

 LDA part: xc-table for Pade appr. of Perdew
 POSCAR found type information on POSCAR  Cu Ru Cu N  O 
 00/POSCAR found :  5 types and      40 ions
 POSCAR found type information on POSCAR  Cu Ru Cu N  O 
 06/POSCAR found :  5 types and      40 ions
 Jacobian:    19.9537150754471     
 POSCAR, INCAR and KPOINTS ok, starting setup
 FFT: planning ...
 WAVECAR not read
 entering main loop
       N       E                     dE             d eps       ncg     rms          rms(c)
  Solvation turned off during non-self-consistent phase (first NELMDL steps)
DAV:   1     0.450357005428E+04    0.45036E+04   -0.18226E+05 12240   0.211E+03
DAV:   2     0.685293878595E+03   -0.38183E+04   -0.36832E+04 12330   0.490E+02
DAV:   3    -0.239385683315E+02   -0.70923E+03   -0.65499E+03 14076   0.245E+02
DAV:   4    -0.151471343803E+03   -0.12753E+03   -0.11302E+03 21483   0.981E+01
DAV:   5    -0.166217951377E+03   -0.14747E+02   -0.14281E+02 18846   0.323E+01    0.463E+01
 Begin Solvation calculations
  rms_SCF =    6.91051874240999      tol =   0.691051874240999     
 Begin minimization
 Creating dielectric and ionic cavities
  area:      163.253746131685     
  volume:    660.338818883239     
  Acav:     8.570821671913473E-002
  Solving linear dielectric/ionic screening model
        iter                  A_solv                     rms
   LPB:       -0.364549719099197E+03   0.271402968767324E+03
   LPB:    0  -0.825688696085994E+01   0.433531070880373E+02  -0.505083E+01   0.000000E+00   0.279326E+02  -0.141083E+03
   LPB:    1  -0.143822579096548E+01   0.608769490884818E+01   0.993409E-02   0.000000E+00   0.724443E+02  -0.110688E-13
   LPB:    2  -0.525521081703857E+00   0.102088514454275E+01   0.145822E-01   0.911878E-01   0.333872E+03   0.561018E-14
   LPB:    3  -0.329423767934031E+00   0.115869801773630E+01   0.258644E-01   0.121133E+00   0.602974E+03   0.808811E-14
   LPB:    4  -0.265830537772672E+00   0.889123980767645E+00   0.270209E-01   0.310414E+00   0.762286E+02   0.957794E-14
   LPB:    5  -0.236447869100232E+00   0.615356701307737E+00   0.231024E-01   0.540410E+00   0.442117E+03   0.129021E-13
  Finished solving LPB equations
  A_corr:   -0.150739652381097     
 End minimization
 Ecorr=   2031.79804426925     
 A_corr= -0.150739652381097     
 Ecorr_band=  -2031.94878392163     
 End Solvation calculations
RMM:   6    -0.174936619893E+03   -0.87187E+01   -0.37534E+02 12523   0.959E+01    0.393E+01
 Begin Solvation calculations
  rms_SCF =    6.91051874240999      tol =   0.691051874240999     
 Begin minimization
 Creating dielectric and ionic cavities
  area:      161.398543767235     
  volume:    666.744502543514     
  Acav:     8.473423547779811E-002
  Solving linear dielectric/ionic screening model
        iter                  A_solv                     rms
   LPB:       -0.226807589703297E+02   0.916117437574197E+02
   LPB:    0  -0.223662854078034E+02   0.912068037287091E+02   0.150869E+00   0.000000E+00   0.276323E+02   0.416884E+01
   LPB:    1  -0.210405008556343E+01   0.849244928401320E+01   0.885954E-02   0.000000E+00   0.620637E+02  -0.254381E-15
   LPB:    2  -0.536827894144658E+00   0.194393624271381E+01   0.159999E-01   0.428290E-01   0.112814E+03  -0.136733E-14
   LPB:    3  -0.327165558542767E+00   0.734625472656115E+00   0.221078E-01   0.968189E-01   0.113101E+03  -0.358262E-14
   LPB:    4  -0.270959467656475E+00   0.756686965917242E+00   0.262484E-01   0.225791E+00   0.295566E+03  -0.904339E-14
   LPB:    5  -0.248677319517562E+00   0.458269795099492E+00   0.239812E-01   0.433916E+00   0.933217E+02  -0.143797E-13
  Finished solving LPB equations
  A_corr:   -0.163943084039763     
 End minimization
 Ecorr=   1941.51480039378     
 A_corr= -0.163943084039763     
 Ecorr_band=  -1941.67874347782     
 End Solvation calculations
RMM:   7    -0.160378997685E+03    0.14558E+02   -0.12285E+02 12641   0.490E+01    0.242E+01
 Begin Solvation calculations
  rms_SCF =    6.91051874240999      tol =   0.691051874240999     
 Begin minimization
 Creating dielectric and ionic cavities
  area:      163.524805178418     
  volume:    669.103404683281     
  Acav:     8.585052271866939E-002
  Solving linear dielectric/ionic screening model
        iter                  A_solv                     rms
   LPB:       -0.127730916186451E+02   0.683952773198701E+02
   LPB:    0  -0.127320022972975E+02   0.682946731764021E+02   0.546439E-01   0.000000E+00   0.275217E+02   0.150389E+01
   LPB:    1  -0.128493896291634E+01   0.644772404317619E+01   0.894995E-02   0.000000E+00   0.612614E+02  -0.124489E-16
   LPB:    2  -0.339724224790560E+00   0.108849315449354E+01   0.159954E-01   0.462020E-01   0.116726E+03   0.383872E-14
   LPB:    3  -0.212554710736496E+00   0.425781342492671E+00   0.220311E-01   0.976817E-01   0.224716E+03   0.511258E-14
   LPB:    4  -0.185341198959117E+00   0.190500374475582E+00   0.261208E-01   0.180489E+00   0.295973E+03   0.110072E-13
  Finished solving LPB equations
  A_corr:   -9.949067624044755E-002
 End minimization
 Ecorr=   1921.48656673163     
 A_corr= -9.949067624044755E-002
 Ecorr_band=  -1921.58605740787     
 End Solvation calculations
RMM:   8    -0.142488349286E+03    0.17891E+02   -0.92000E+00 12566   0.124E+01    0.150E+01
 Begin Solvation calculations
  rms_SCF =    5.29897852347426      tol =   0.529897852347426     
 Begin minimization
 Creating dielectric and ionic cavities
  area:      155.092618418234     
  volume:    668.428694171218     
  Acav:     8.142362466957291E-002
  Solving linear dielectric/ionic screening model
        iter                  A_solv                     rms
   LPB:       -0.141265134090334E+01   0.212073715763309E+02
   LPB:    0  -0.139970197114541E+01   0.209777358182029E+02  -0.306586E-01   0.000000E+00   0.275533E+02  -0.844746E+00
   LPB:    1  -0.309684813725547E+00   0.219483078275195E+01   0.899870E-02   0.000000E+00   0.604951E+02   0.278235E-16
   LPB:    2  -0.198562440489134E+00   0.426241580864451E+00   0.173152E-01   0.529810E-01   0.931001E+02   0.131137E-13
   LPB:    3  -0.182209358165275E+00   0.214992792099549E+00   0.214381E-01   0.118861E+00   0.189745E+03   0.172582E-13
   LPB:    4  -0.176777581261412E+00   0.138156890247619E+00   0.307260E-01   0.231752E+00   0.836656E+02   0.167872E-13
  Finished solving LPB equations
  A_corr:   -9.535395659183894E-002
 End minimization
 Ecorr=   1896.00503648602     
 A_corr= -9.535395659183894E-002
 Ecorr_band=  -1896.10039044261     
 End Solvation calculations
RMM:   9    -0.139121046068E+03    0.33673E+01   -0.62612E+00 12625   0.105E+01    0.581E+00
 Begin Solvation calculations
  rms_SCF =    5.29897852347426      tol =   0.529897852347426     
 Begin minimization
 Creating dielectric and ionic cavities
  area:      141.134948788994     
  volume:    667.977022932442     
  Acav:     7.409584811422172E-002
  Solving linear dielectric/ionic screening model
        iter                  A_solv                     rms
   LPB:       -0.912505912752706E+00   0.154375614553263E+02
   LPB:    0  -0.885067354425275E+00   0.153908014195084E+02   0.446110E-01   0.000000E+00   0.275745E+02   0.123013E+01
   LPB:    1  -0.277496359512336E+00   0.143881478645289E+01   0.906263E-02   0.000000E+00   0.622965E+02   0.953988E-16
   LPB:    2  -0.225456783552304E+00   0.248099604411775E+00   0.155477E-01   0.499258E-01   0.131910E+03  -0.506826E-15
   LPB:    3  -0.214623309166435E+00   0.205267236021003E+00   0.268871E-01   0.120380E+00   0.238470E+03  -0.253857E-14
   LPB:    4  -0.208332960101713E+00   0.120578223886660E+00   0.397219E-01   0.393026E+00   0.783779E+02  -0.354780E-14
  Finished solving LPB equations
  A_corr:   -0.134237111987491     
 End minimization
 Ecorr=   1851.93287442875     
 A_corr= -0.134237111987491     
 Ecorr_band=  -1852.06711154073     
 End Solvation calculations
RMM:  10    -0.138891962568E+03    0.22908E+00   -0.18444E+00 12883   0.383E+00    0.812E+00
 Begin Solvation calculations
  rms_SCF =    4.35064723218938      tol =   0.435064723218938     
 Begin minimization
 Creating dielectric and ionic cavities
  area:      135.877387858591     
  volume:    666.165458329241     
  Acav:     7.133562862576025E-002
  Solving linear dielectric/ionic screening model
        iter                  A_solv                     rms
   LPB:       -0.257644678683416E+00   0.826578802748402E+00
   LPB:    0  -0.248874875106653E+00   0.790472817476496E+00   0.251819E-01   0.000000E+00   0.276594E+02   0.696517E+00
   LPB:    1  -0.231656095817622E+00   0.225705271117513E+00   0.184534E-01   0.000000E+00   0.103643E+03   0.164452E-16
   LPB:    2  -0.227045777325895E+00   0.482034245900251E+00   0.267347E-01   0.184812E+00   0.163598E+03  -0.805559E-14
   LPB:    3  -0.223112240849815E+00   0.453228403316598E+00   0.240249E-01   0.949438E+00   0.555049E+02  -0.102260E-13
   LPB:    4  -0.218039637749933E+00   0.124224247899187E+00   0.369794E-01   0.837818E+00   0.475345E+02  -0.120457E-13
  Finished solving LPB equations
  A_corr:   -0.146704009124172     
 End minimization
 Ecorr=   1816.21262277121     
 A_corr= -0.146704009124172     
 Ecorr_band=  -1816.35932678033     
 End Solvation calculations
RMM:  11    -0.138300857480E+03    0.59111E+00   -0.82623E-01 12598   0.215E+00    0.282E+00
 Begin Solvation calculations
  rms_SCF =   0.995170839933377      tol =   9.951708399333767E-002
 Begin minimization
 Creating dielectric and ionic cavities
  area:      134.161396745058     
  volume:    662.416699127491     
  Acav:     7.043473329115561E-002
  Solving linear dielectric/ionic screening model
        iter                  A_solv                     rms
   LPB:       -0.293730912125703E+00   0.161145714121404E+01
   LPB:    0  -0.291642805259573E+00   0.194962755110483E+01   0.122488E-01   0.000000E+00   0.278352E+02   0.340948E+00
   LPB:    1  -0.255049002392177E+00   0.724178542576356E+00   0.150287E-01   0.000000E+00   0.638612E+02   0.824742E-17
   LPB:    2  -0.248585855361983E+00   0.299768378203675E+00   0.136425E-01   0.194566E+00   0.203442E+03  -0.364922E-14
   LPB:    3  -0.245544147621823E+00   0.335942012986341E+00   0.293540E-01   0.218725E+00   0.104948E+03  -0.503798E-14
   LPB:    4  -0.242842680278519E+00   0.243379667234956E+00   0.312086E-01   0.835363E+00   0.455267E+02  -0.553519E-14
   LPB:    5  -0.240020599978194E+00   0.124752801305553E+00   0.319944E-01   0.101899E+01   0.154109E+03  -0.385462E-14
   LPB:    6  -0.238013037312772E+00   0.763495965814554E-01   0.334745E-01   0.679923E+00   0.807566E+02  -0.210835E-14
  Finished solving LPB equations
  A_corr:   -0.167578304021617     
 End minimization
 Ecorr=   1781.95207271987     
 A_corr= -0.167578304021617     
 Ecorr_band=  -1782.11965102389     
 End Solvation calculations
RMM:  12    -0.138257973236E+03    0.42884E-01   -0.16388E-01 12681   0.150E+00    0.258E+00
 Begin Solvation calculations
  rms_SCF =   0.995170839933377      tol =   9.951708399333767E-002
 Begin minimization
 Creating dielectric and ionic cavities
  area:      134.681690514018     
  volume:    659.932220995416     
  Acav:     7.070788751985953E-002
  Solving linear dielectric/ionic screening model
        iter                  A_solv                     rms
   LPB:       -0.266597228986346E+00   0.661764280088404E+00
   LPB:    0  -0.265798694091020E+00   0.938100789123222E+00   0.755889E-02   0.000000E+00   0.279517E+02   0.211284E+00
   LPB:    1  -0.252790498966317E+00   0.441632200878269E+00   0.147624E-01   0.000000E+00   0.915896E+02   0.177991E-17
   LPB:    2  -0.250992304582171E+00   0.150891539428411E+00   0.153470E-01   0.132970E+00   0.948692E+02   0.105964E-14
   LPB:    3  -0.250420503441298E+00   0.926177630912341E-01   0.196515E-01   0.248335E+00   0.248081E+03   0.117764E-14
   LPB:    4  -0.249878495275764E+00   0.151728062995740E+00   0.368273E-01   0.505808E+00   0.628637E+02   0.134025E-14
   LPB:    5  -0.248981802940660E+00   0.140511381660780E+00   0.378982E-01   0.160764E+01   0.122786E+03   0.872723E-15
   LPB:    6  -0.248027075296544E+00   0.497280720692098E-01   0.352407E-01   0.114501E+01   0.385460E+02  -0.364149E-15
  Finished solving LPB equations
  A_corr:   -0.177319187776685     
 End minimization
 Ecorr=   1762.07145530499     
 A_corr= -0.177319187776685     
 Ecorr_band=  -1762.24877449276     
 End Solvation calculations
RMM:  13    -0.138229646540E+03    0.28327E-01   -0.53615E-02 12912   0.857E-01    0.232E+00
 Begin Solvation calculations
  rms_SCF =   0.909285893336267      tol =   9.092858933362670E-002
 Begin minimization
 Creating dielectric and ionic cavities
  area:      135.497842031319     
  volume:    657.563309639817     
  Acav:     7.113636706644245E-002
  Solving linear dielectric/ionic screening model
        iter                  A_solv                     rms
   LPB:       -0.274635133425214E+00   0.829369909627488E+00
   LPB:    0  -0.274405040353304E+00   0.977910895953683E+00   0.404951E-02   0.000000E+00   0.280627E+02   0.113640E+00
   LPB:    1  -0.262226909774690E+00   0.504026958498873E+00   0.136563E-01   0.000000E+00   0.977542E+02  -0.208328E-17
   LPB:    2  -0.260399293320423E+00   0.121436752995099E+00   0.143126E-01   0.143193E+00   0.855325E+02   0.440137E-14
   LPB:    3  -0.259949688015553E+00   0.838463744651129E-01   0.186196E-01   0.189101E+00   0.290533E+03   0.568730E-14
   LPB:    4  -0.259711298750265E+00   0.758063388229342E-01   0.256121E-01   0.385460E+00   0.823118E+02   0.599628E-14
  Finished solving LPB equations
  A_corr:   -0.188574931683823     
 End minimization
 Ecorr=   1751.85828437106     
 A_corr= -0.188574931683823     
 Ecorr_band=  -1752.04685930275     
 End Solvation calculations
RMM:  14    -0.138174478635E+03    0.55168E-01   -0.38691E-02 12678   0.696E-01    0.922E-01
 Begin Solvation calculations
  rms_SCF =   0.186132169067304      tol =   1.861321690673039E-002
 Begin minimization
 Creating dielectric and ionic cavities
  area:      136.392685110820     
  volume:    655.260276401317     
  Acav:     7.160615968318043E-002
  Solving linear dielectric/ionic screening model
        iter                  A_solv                     rms
   LPB:       -0.289618498794106E+00   0.899076021339941E+00
   LPB:    0  -0.289412309895873E+00   0.103051613251948E+01   0.382604E-02   0.000000E+00   0.281707E+02   0.107782E+00
   LPB:    1  -0.274136026022913E+00   0.360886134291258E+00   0.151202E-01   0.000000E+00   0.947159E+02  -0.352836E-17
   LPB:    2  -0.272153027117828E+00   0.134931524585898E+00   0.163109E-01   0.120333E+00   0.108314E+03  -0.313082E-14
   LPB:    3  -0.271408488905310E+00   0.584393620247107E-01   0.258683E-01   0.236743E+00   0.107839E+03  -0.297039E-14
   LPB:    4  -0.270935386617495E+00   0.922941339674915E-01   0.329588E-01   0.498727E+00   0.214043E+03  -0.220524E-14
   LPB:    5  -0.270633189767750E+00   0.142234575798283E+00   0.260885E-01   0.806971E+00   0.156718E+03  -0.152267E-14
   LPB:    6  -0.270340403781662E+00   0.591969828141735E-01   0.247711E-01   0.102038E+01   0.655974E+02  -0.111263E-14
   LPB:    7  -0.270056193126853E+00   0.190704577985755E-01   0.376593E-01   0.638503E+00   0.152397E+03  -0.671612E-15
   LPB:    8  -0.269848776524604E+00   0.141773194194381E-01   0.384692E-01   0.714434E+00   0.141687E+03  -0.350993E-15
  Finished solving LPB equations
  A_corr:   -0.198242616841423     
 End minimization
 Ecorr=   1738.22546809985     
 A_corr= -0.198242616841423     
 Ecorr_band=  -1738.42371071670     
 End Solvation calculations
RMM:  15    -0.138165778235E+03    0.87004E-02   -0.21696E-02 14549   0.312E-01    0.388E-01
 Begin Solvation calculations
  rms_SCF =   0.186132169067304      tol =   1.861321690673039E-002
 Begin minimization
 Creating dielectric and ionic cavities
  area:      136.925836591206     
  volume:    654.093838846026     
  Acav:     7.188606421038304E-002
  Solving linear dielectric/ionic screening model
        iter                  A_solv                     rms
   LPB:       -0.285890766551522E+00   0.959500280572062E+00
   LPB:    0  -0.285890755380529E+00   0.960286859110020E+00   0.281346E-04   0.000000E+00   0.282254E+02   0.794110E-03
   LPB:    1  -0.277564015096894E+00   0.247305992425127E+00   0.146067E-01   0.000000E+00   0.715402E+02   0.154778E-19
   LPB:    2  -0.276454646286260E+00   0.113272044568668E+00   0.143884E-01   0.135251E+00   0.198050E+03   0.303340E-15
   LPB:    3  -0.276195835699874E+00   0.764941083333007E-01   0.189548E-01   0.177092E+00   0.104988E+03   0.366669E-15
   LPB:    4  -0.276102727500228E+00   0.449515527689706E-01   0.187191E-01   0.364284E+00   0.151433E+03   0.430887E-15
   LPB:    5  -0.276047012860822E+00   0.272088307467443E-01   0.262434E-01   0.426822E+00   0.174558E+03   0.446107E-15
   LPB:    6  -0.275979837813152E+00   0.125206149425263E-01   0.453908E-01   0.697094E+00   0.979039E+02   0.713512E-15
  Finished solving LPB equations
  A_corr:   -0.204093773602769     
 End minimization
 Ecorr=   1732.56930673464     
 A_corr= -0.204093773602769     
 Ecorr_band=  -1732.77340050824     
 End Solvation calculations
RMM:  16    -0.138165754666E+03    0.23569E-04   -0.34369E-03 13403   0.162E-01    0.313E-01
 Begin Solvation calculations
  rms_SCF =   0.164009679024430      tol =   1.640096790244296E-002
 Begin minimization
 Creating dielectric and ionic cavities
  area:      137.402416255064     
  volume:    653.289309129876     
  Acav:     7.213626853390857E-002
  Solving linear dielectric/ionic screening model
        iter                  A_solv                     rms
   LPB:       -0.290169944753330E+00   0.805150459951647E+00
   LPB:    0  -0.290148476490060E+00   0.762913309458252E+00  -0.123255E-02   0.000000E+00   0.282631E+02  -0.348356E-01
   LPB:    1  -0.283262605116606E+00   0.238869644969459E+00   0.145606E-01   0.000000E+00   0.893786E+02  -0.127400E-17
   LPB:    2  -0.282408271653486E+00   0.730655899920760E-01   0.153046E-01   0.118039E+00   0.112201E+03  -0.158913E-14
   LPB:    3  -0.282229531598059E+00   0.319612527802701E-01   0.218334E-01   0.146654E+00   0.115753E+03  -0.205099E-14
   LPB:    4  -0.282134748936125E+00   0.368053594590533E-01   0.325852E-01   0.355310E+00   0.170639E+03  -0.210052E-14
   LPB:    5  -0.282064705247735E+00   0.690383216903386E-01   0.304034E-01   0.792024E+00   0.150406E+03  -0.207348E-14
   LPB:    6  -0.281999023955341E+00   0.327802245464553E-01   0.233393E-01   0.122154E+01   0.559351E+02  -0.200888E-14
   LPB:    7  -0.281933011090315E+00   0.105579498030015E-01   0.361180E-01   0.649457E+00   0.166200E+03  -0.180918E-14
  Finished solving LPB equations
  A_corr:   -0.209796742556406     
 End minimization
 Ecorr=   1727.17569237816     
 A_corr= -0.209796742556406     
 Ecorr_band=  -1727.38548912071     
 End Solvation calculations
RMM:  17    -0.138165437233E+03    0.31743E-03   -0.22164E-03 12749   0.161E-01    0.147E-01
 Begin Solvation calculations
  rms_SCF =   0.164009679024430      tol =   1.640096790244296E-002
 Begin minimization
 Creating dielectric and ionic cavities
  area:      137.622485985493     
  volume:    653.054997075717     
  Acav:     7.225180514238357E-002
  Solving linear dielectric/ionic screening model
        iter                  A_solv                     rms
   LPB:       -0.288175568453528E+00   0.721459706915601E+00
   LPB:    0  -0.288130226864271E+00   0.680049319293270E+00  -0.179089E-02   0.000000E+00   0.282741E+02  -0.506358E-01
   LPB:    1  -0.285023368623692E+00   0.156290286952437E+00   0.139544E-01   0.000000E+00   0.631321E+02   0.140078E-17
   LPB:    2  -0.284633305540066E+00   0.671916144970598E-01   0.133876E-01   0.130865E+00   0.216164E+03   0.987589E-15
   LPB:    3  -0.284554604228266E+00   0.334787420816648E-01   0.171864E-01   0.157168E+00   0.114026E+03   0.118710E-14
   LPB:    4  -0.284527897922987E+00   0.256938077002468E-01   0.205043E-01   0.284428E+00   0.129271E+03   0.133006E-14
   LPB:    5  -0.284506739342928E+00   0.194523072768144E-01   0.319347E-01   0.508693E+00   0.109472E+03   0.138614E-14
   LPB:    6  -0.284475300754840E+00   0.963806323455288E-02   0.495331E-01   0.957953E+00   0.641956E+02   0.167567E-14
  Finished solving LPB equations
  A_corr:   -0.212223495612457     
 End minimization
 Ecorr=   1724.96711618008     
 A_corr= -0.212223495612457     
 Ecorr_band=  -1725.17933967569     
 End Solvation calculations
RMM:  18    -0.138165646479E+03   -0.20925E-03   -0.76802E-04 10923   0.660E-02    0.115E-01
 Begin Solvation calculations
  rms_SCF =   0.164009679024430      tol =   1.640096790244296E-002
 Begin minimization
 Creating dielectric and ionic cavities
  area:      138.015252415321     
  volume:    652.623197277453     
  Acav:     7.245800751804363E-002
  Solving linear dielectric/ionic screening model
        iter                  A_solv                     rms
   LPB:       -0.300358110774790E+00   0.120383438567445E+01
   LPB:    0  -0.300146321759210E+00   0.110418599093008E+01  -0.386916E-02   0.000000E+00   0.282943E+02  -0.109475E+00
   LPB:    1  -0.291096391169787E+00   0.240118926509134E+00   0.141948E-01   0.000000E+00   0.662884E+02  -0.478430E-17
   LPB:    2  -0.290039553468923E+00   0.111814120294950E+00   0.138530E-01   0.119660E+00   0.201557E+03  -0.899825E-15
   LPB:    3  -0.289839410094888E+00   0.575679836868251E-01   0.169969E-01   0.154350E+00   0.993288E+02  -0.292940E-15
   LPB:    4  -0.289760997438398E+00   0.489156626187543E-01   0.209154E-01   0.318381E+00   0.147417E+03   0.514662E-16
   LPB:    5  -0.289711064814512E+00   0.261378197217512E-01   0.258309E-01   0.515615E+00   0.909824E+02   0.211607E-15
   LPB:    6  -0.289669467544405E+00   0.958944757033479E-02   0.351798E-01   0.611684E+00   0.110138E+03   0.129935E-15
  Finished solving LPB equations
  A_corr:   -0.217211460026362     
 End minimization
 Ecorr=   1721.83292354801     
 A_corr= -0.217211460026362     
 Ecorr_band=  -1722.05013500803     
 End Solvation calculations
RMM:  19    -0.138166696249E+03   -0.10498E-02   -0.89830E-04 11324   0.833E-02    0.151E-01
 Begin Solvation calculations
  rms_SCF =   0.164009679024430      tol =   1.640096790244296E-002
 Begin minimization
 Creating dielectric and ionic cavities
  area:      138.409168141706     
  volume:    652.321856122677     
  Acav:     7.266481327439547E-002
  Solving linear dielectric/ionic screening model
        iter                  A_solv                     rms
   LPB:       -0.309192735403840E+00   0.143509696066325E+01
   LPB:    0  -0.308817286709333E+00   0.130804547406854E+01  -0.515030E-02   0.000000E+00   0.283084E+02  -0.145797E+00
   LPB:    1  -0.297325983983213E+00   0.276121875012675E+00   0.139817E-01   0.000000E+00   0.626317E+02  -0.159180E-17
   LPB:    2  -0.295989144554162E+00   0.128532493106161E+00   0.135898E-01   0.119690E+00   0.208030E+03   0.128792E-14
   LPB:    3  -0.295729261021801E+00   0.625442202793042E-01   0.169132E-01   0.156202E+00   0.100354E+03   0.113982E-14
   LPB:    4  -0.295622085074875E+00   0.568929821832452E-01   0.220449E-01   0.316400E+00   0.137432E+03   0.122074E-14
   LPB:    5  -0.295550621983963E+00   0.321250763812808E-01   0.268444E-01   0.547569E+00   0.836485E+02   0.135514E-14
   LPB:    6  -0.295489041396456E+00   0.119490063934361E-01   0.353945E-01   0.653552E+00   0.105919E+03   0.138566E-14
  Finished solving LPB equations
  A_corr:   -0.222824228122060     
 End minimization
 Ecorr=   1718.70546581745     
 A_corr= -0.222824228122060     
 Ecorr_band=  -1718.92829004557     
 End Solvation calculations
RMM:  20    -0.138167721525E+03   -0.10253E-02   -0.68128E-04  9877   0.666E-02    0.102E-01
 Begin Solvation calculations
  rms_SCF =   0.164009679024430      tol =   1.640096790244296E-002
 Begin minimization
 Creating dielectric and ionic cavities
  area:      138.526788241155     
  volume:    652.375265963806     
  Acav:     7.272656382660625E-002
  Solving linear dielectric/ionic screening model
        iter                  A_solv                     rms
   LPB:       -0.300867387008955E+00   0.782556080310504E+00
   LPB:    0  -0.300743749983569E+00   0.723401078120566E+00  -0.295563E-02   0.000000E+00   0.283059E+02  -0.836620E-01
   LPB:    1  -0.298063556687472E+00   0.144507754929395E+00   0.131863E-01   0.000000E+00   0.556473E+02   0.117066E-17
   LPB:    2  -0.297752614290747E+00   0.603713093958714E-01   0.128052E-01   0.119468E+00   0.220182E+03   0.130607E-14
   LPB:    3  -0.297690051648496E+00   0.233980697375202E-01   0.171580E-01   0.150160E+00   0.108266E+03   0.131279E-14
   LPB:    4  -0.297657202238139E+00   0.334858537882903E-01   0.306634E-01   0.293804E+00   0.917045E+02   0.120143E-14
   LPB:    5  -0.297619553555982E+00   0.291658633155058E-01   0.354146E-01   0.992340E+00   0.644450E+02   0.106917E-14
   LPB:    6  -0.297577781505020E+00   0.115515499991394E-01   0.358006E-01   0.109756E+01   0.613851E+02   0.930408E-15
  Finished solving LPB equations
  A_corr:   -0.224851217678414     
 End minimization
 Ecorr=   1717.19471847420     
 A_corr= -0.224851217678414     
 Ecorr_band=  -1717.41956969188     
 End Solvation calculations
RMM:  21    -0.138168230916E+03   -0.50939E-03   -0.20099E-04  7454   0.459E-02    0.894E-02
 Begin Solvation calculations
  rms_SCF =   0.164009679024430      tol =   1.640096790244296E-002
 Begin minimization
 Creating dielectric and ionic cavities
  area:      138.621814669817     
  volume:    652.397361843116     
  Acav:     7.277645270165381E-002
  Solving linear dielectric/ionic screening model
        iter                  A_solv                     rms
   LPB:       -0.302196265769688E+00   0.744934834692578E+00
   LPB:    0  -0.302093212855030E+00   0.694714149290085E+00  -0.269845E-02   0.000000E+00   0.283049E+02  -0.763793E-01
   LPB:    1  -0.299927316118828E+00   0.140851163360048E+00   0.126426E-01   0.000000E+00   0.534888E+02   0.347741E-17
   LPB:    2  -0.299652003935562E+00   0.461485329314749E-01   0.125445E-01   0.128107E+00   0.217091E+03   0.161510E-15
   LPB:    3  -0.299607777607069E+00   0.166705362180648E-01   0.166689E-01   0.120893E+00   0.138496E+03   0.221615E-15
   LPB:    4  -0.299593038129131E+00   0.200198211129482E-01   0.258908E-01   0.214567E+00   0.106758E+03   0.193847E-15
   LPB:    5  -0.299579981798488E+00   0.173020693876374E-01   0.331081E-01   0.692708E+00   0.731307E+02   0.119391E-15
   LPB:    6  -0.299562081797870E+00   0.837825196731842E-02   0.423628E-01   0.107147E+01   0.579178E+02  -0.835225E-17
  Finished solving LPB equations
  A_corr:   -0.226785629096217     
 End minimization
 Ecorr=   1716.13058783509     
 A_corr= -0.226785629096217     
 Ecorr_band=  -1716.35737346419     
 End Solvation calculations
RMM:  22    -0.138168435777E+03   -0.20486E-03   -0.15432E-04  7379   0.374E-02    0.616E-02
 Begin Solvation calculations
  rms_SCF =   0.139131827311292      tol =   1.391318273112922E-002
 Begin minimization
 Creating dielectric and ionic cavities
  area:      138.792478412101     
  volume:    652.374922561236     
  Acav:     7.286605116635277E-002
  Solving linear dielectric/ionic screening model
        iter                  A_solv                     rms
   LPB:       -0.310690806337435E+00   0.123381951466330E+01
   LPB:    0  -0.310403476667083E+00   0.114321663158962E+01  -0.450574E-02   0.000000E+00   0.283059E+02  -0.127539E+00
   LPB:    1  -0.304501060434973E+00   0.231544191985573E+00   0.127089E-01   0.000000E+00   0.526282E+02   0.770099E-17
   LPB:    2  -0.303742679117431E+00   0.783985106248776E-01   0.126540E-01   0.129045E+00   0.213510E+03   0.260734E-14
   LPB:    3  -0.303614613812436E+00   0.308161565159024E-01   0.169315E-01   0.126204E+00   0.134123E+03   0.296812E-14
   LPB:    4  -0.303574545481843E+00   0.305324884498097E-01   0.232299E-01   0.228044E+00   0.113551E+03   0.301199E-14
   LPB:    5  -0.303551758822973E+00   0.185949401318891E-01   0.262342E-01   0.503569E+00   0.891008E+02   0.302160E-14
   LPB:    6  -0.303532518246135E+00   0.746355645988016E-02   0.347315E-01   0.637796E+00   0.937022E+02   0.298771E-14
  Finished solving LPB equations
  A_corr:   -0.230666467079782     
 End minimization
 Ecorr=   1714.26236268512     
 A_corr= -0.230666467079782     
 Ecorr_band=  -1714.49302915220     
 End Solvation calculations
RMM:  23    -0.138168746550E+03   -0.31077E-03   -0.34131E-04  7851   0.499E-02    0.306E-02
 Begin Solvation calculations
  rms_SCF =   4.899943803524005E-002 tol =   4.899943803524005E-003
 Begin minimization
 Creating dielectric and ionic cavities
  area:      138.876637296118     
  volume:    652.430928997446     
  Acav:     7.291023458046199E-002
  Solving linear dielectric/ionic screening model
        iter                  A_solv                     rms
   LPB:       -0.309580812576316E+00   0.887595804353949E+00
   LPB:    0  -0.309422882108583E+00   0.822464902996785E+00  -0.334064E-02   0.000000E+00   0.283033E+02  -0.945511E-01
   LPB:    1  -0.306530199116820E+00   0.155501217032452E+00   0.123828E-01   0.000000E+00   0.525795E+02   0.586637E-17
   LPB:    2  -0.306188266006220E+00   0.551150152829977E-01   0.124961E-01   0.117135E+00   0.208437E+03   0.434019E-15
   LPB:    3  -0.306128097852092E+00   0.196580667953474E-01   0.171593E-01   0.128145E+00   0.119699E+03   0.473625E-15
   LPB:    4  -0.306106410916923E+00   0.236438438783784E-01   0.270949E-01   0.228268E+00   0.913215E+02   0.640879E-15
   LPB:    5  -0.306089358989660E+00   0.183258885606659E-01   0.302764E-01   0.703653E+00   0.806928E+02   0.903925E-15
   LPB:    6  -0.306071737867210E+00   0.790307336658632E-02   0.358338E-01   0.873113E+00   0.676624E+02   0.111344E-14
   LPB:    7  -0.306058042860037E+00   0.388273213078828E-02   0.363514E-01   0.766128E+00   0.135104E+03   0.140962E-14
  Finished solving LPB equations
  A_corr:   -0.233147808279575     
 End minimization
 Ecorr=   1712.69826404415     
 A_corr= -0.233147808279575     
 Ecorr_band=  -1712.93141185243     
 End Solvation calculations
RMM:  24    -0.138168958380E+03   -0.21183E-03   -0.16231E-04  7345   0.428E-02    0.241E-02
 Begin Solvation calculations
  rms_SCF =   4.139925432472322E-002 tol =   4.139925432472322E-003
 Begin minimization
 Creating dielectric and ionic cavities
  area:      138.891154273108     
  volume:    652.457460283139     
  Acav:     7.291785599338153E-002
  Solving linear dielectric/ionic screening model
        iter                  A_solv                     rms
   LPB:       -0.307010693369258E+00   0.280952530175830E+00
   LPB:    0  -0.306994834805398E+00   0.261766342421269E+00  -0.105861E-02   0.000000E+00   0.283021E+02  -0.299610E-01
   LPB:    1  -0.306727811641688E+00   0.468701158410156E-01   0.118088E-01   0.000000E+00   0.530909E+02   0.121927E-17
   LPB:    2  -0.306695969882230E+00   0.145611879670923E-01   0.125106E-01   0.112558E+00   0.211537E+03   0.299707E-16
   LPB:    3  -0.306689843332087E+00   0.598123093242333E-02   0.188916E-01   0.127417E+00   0.141316E+03   0.280564E-16
   LPB:    4  -0.306687185402112E+00   0.912128535902989E-02   0.314538E-01   0.260569E+00   0.103372E+03   0.476688E-16
   LPB:    5  -0.306682710690374E+00   0.114214758450565E-01   0.472507E-01   0.112069E+01   0.955862E+02   0.240578E-16
   LPB:    6  -0.306674420559882E+00   0.569021172815205E-02   0.459288E-01   0.190599E+01   0.508663E+02  -0.485104E-16
   LPB:    7  -0.306669273536788E+00   0.206401541629463E-02   0.288330E-01   0.988985E+00   0.107674E+03  -0.339802E-15
  Finished solving LPB equations
  A_corr:   -0.233751417543407     
 End minimization
 Ecorr=   1712.11495722497     
 A_corr= -0.233751417543407     
 Ecorr_band=  -1712.34870864252     
 End Solvation calculations
RMM:  25    -0.138168993705E+03   -0.35325E-04   -0.59034E-05  7027   0.301E-02
 Begin Solvation calculations
  rms_SCF =   4.139925432472322E-002 tol =   4.139925432472322E-003
 Begin minimization
 Creating dielectric and ionic cavities
  area:      138.894366937187     
  volume:    652.477911312279     
  Acav:     7.291954264202324E-002
  Solving linear dielectric/ionic screening model
        iter                  A_solv                     rms
   LPB:       -0.308363449067381E+00   0.470130896184814E+00
   LPB:    0  -0.308314135150889E+00   0.436672020226996E+00  -0.186680E-02   0.000000E+00   0.283011E+02  -0.528325E-01
   LPB:    1  -0.307652729736939E+00   0.691033722329556E-01   0.109195E-01   0.000000E+00   0.551710E+02   0.721923E-18
   LPB:    2  -0.307582448069974E+00   0.200629146870142E-01   0.123118E-01   0.942441E-01   0.187674E+03   0.114694E-15
   LPB:    3  -0.307572074522714E+00   0.651732449127284E-02   0.181334E-01   0.100214E+00   0.124003E+03   0.147765E-15
   LPB:    4  -0.307569630693852E+00   0.644080132749995E-02   0.249278E-01   0.171372E+00   0.942707E+02   0.149063E-15
   LPB:    5  -0.307568350813431E+00   0.459038526274717E-02   0.254921E-01   0.512125E+00   0.156768E+03   0.147274E-15
   LPB:    6  -0.307567477669724E+00   0.175109841092514E-02   0.287844E-01   0.604179E+00   0.107307E+03   0.162226E-15
  Finished solving LPB equations
  A_corr:   -0.234647935027701     
 End minimization
 Ecorr=   1711.57727129311     
 A_corr= -0.234647935027701     
 Ecorr_band=  -1711.81191922814     
 End Solvation calculations
   1 F= -.13816899E+03 E0= -.13816351E+03  d E =-.138169E+03
quench:  g(F)=  0.000E+00 g(S)=  0.000E+00 dE (1.order)= 0.000E+00
 bond charge predicted
       N       E                     dE             d eps       ncg     rms          rms(c)
 Begin Solvation calculations
  rms_SCF =   4.139925432472322E-002 tol =   4.139925432472322E-003
 Begin minimization
 Creating dielectric and ionic cavities
  area:      139.096198325995     
  volume:    652.441501793719     
  Acav:     7.302550412114736E-002
  Solving linear dielectric/ionic screening model
        iter                  A_solv                     rms
   LPB:       -0.314142377701350E+00   0.847790667681068E-02
   LPB:    0  -0.314142377168198E+00   0.862506109181578E-02  -0.613798E-05   0.000000E+00   0.283028E+02  -0.173722E-03
   LPB:    1  -0.309522702218503E+00   0.398731218919652E-02   0.154859E-01   0.000000E+00   0.434716E+06   0.856676E-20
   LPB:    2  -0.309121317753091E+00   0.506405798637887E-02   0.265493E-01   0.506794E-01   0.686617E+05  -0.147732E-16
   LPB:    3  -0.308995956658924E+00   0.114231591055234E-01   0.321751E-01   0.257713E+00   0.129747E+05  -0.164368E-16
   LPB:    4  -0.308943561222999E+00   0.301859316050709E-01   0.332292E-01   0.404697E+00   0.973565E+03  -0.132916E-16
   LPB:    5  -0.308923113340078E+00   0.338079388140901E-01   0.214467E-01   0.604665E+00   0.149042E+03  -0.148118E-16
   LPB:    6  -0.308906550877554E+00   0.905001610544042E-02   0.221350E-01   0.784798E+00   0.305338E+03  -0.126731E-16
   LPB:    7  -0.308894651199347E+00   0.368909598774853E-02   0.369917E-01   0.429917E+00   0.107409E+04  -0.131295E-16
  Finished solving LPB equations
  A_corr:   -0.235869147078200     
 End minimization
 Ecorr=   1711.51155967716     
 A_corr= -0.235869147078200     
 Ecorr_band=  -1711.74742882424     
 End Solvation calculations
DAV:   1    -0.138170979148E+03   -0.20208E-02   -0.33809E-01 12834   0.113E+00    0.201E-01
 Begin Solvation calculations
  rms_SCF =   4.139925432472322E-002 tol =   4.139925432472322E-003
 Begin minimization
 Creating dielectric and ionic cavities
  area:      138.913738958783     
  volume:    652.361575446619     
  Acav:     7.292971295336122E-002
  Solving linear dielectric/ionic screening model
        iter                  A_solv                     rms
   LPB:       -0.311039936216913E+00   0.313085675982940E+00
   LPB:    0  -0.310893084161604E+00   0.161390937731644E+00  -0.322115E-02   0.000000E+00   0.283066E+02  -0.911798E-01
   LPB:    1  -0.310493915032408E+00   0.709120993670479E-01   0.156180E-01   0.000000E+00   0.847372E+02   0.387960E-17
   LPB:    2  -0.310445173314516E+00   0.264204526034192E-01   0.148729E-01   0.128225E+00   0.115341E+03  -0.236092E-15
   LPB:    3  -0.310426292853446E+00   0.147625250747865E-01   0.206648E-01   0.278789E+00   0.314777E+03  -0.433896E-15
   LPB:    4  -0.310418264635219E+00   0.157699571088024E-01   0.222838E-01   0.394320E+00   0.126739E+03  -0.533500E-15
   LPB:    5  -0.310412947062672E+00   0.828639717564048E-02   0.238854E-01   0.617947E+00   0.204206E+03  -0.517809E-15
   LPB:    6  -0.310408674845385E+00   0.267715790125457E-02   0.375182E-01   0.511482E+00   0.207085E+03  -0.517001E-15
  Finished solving LPB equations
  A_corr:   -0.237478961892024     
 End minimization
 Ecorr=   1711.07911297538     
 A_corr= -0.237478961892024     
 Ecorr_band=  -1711.31659193727     
 End Solvation calculations
RMM:   2    -0.138173149962E+03   -0.21708E-02   -0.24809E-02 15527   0.326E-01    0.218E-01
 Begin Solvation calculations
  rms_SCF =   4.139925432472322E-002 tol =   4.139925432472322E-003
 Begin minimization
 Creating dielectric and ionic cavities
  area:      138.890923403517     
  volume:    652.374256444915     
  Acav:     7.291773478684647E-002
  Solving linear dielectric/ionic screening model
        iter                  A_solv                     rms
   LPB:       -0.310691755253219E+00   0.162796862173307E+00
   LPB:    0  -0.310691276202228E+00   0.161823559318403E+00  -0.183978E-03   0.000000E+00   0.283060E+02  -0.520769E-02
   LPB:    1  -0.310621567391585E+00   0.202181337182760E-01   0.922374E-02   0.000000E+00   0.622916E+02  -0.199369E-18
   LPB:    2  -0.310610735986309E+00   0.427499310462703E-02   0.178728E-01   0.801884E-01   0.112536E+03  -0.306400E-16
   LPB:    3  -0.310608771546749E+00   0.332663175137327E-02   0.257533E-01   0.125867E+00   0.166489E+03  -0.256091E-16
   LPB:    4  -0.310606973306895E+00   0.462124399810739E-02   0.428476E-01   0.550194E+00   0.321977E+03  -0.184300E-16
   LPB:    5  -0.310604886802314E+00   0.633685071838023E-02   0.414987E-01   0.119802E+01   0.938268E+02  -0.585911E-17
   LPB:    6  -0.310603237295384E+00   0.463128806931712E-02   0.280768E-01   0.116848E+01   0.281379E+03  -0.594518E-17
   LPB:    7  -0.310601865683140E+00   0.221999630312830E-02   0.323296E-01   0.722146E+00   0.153763E+03  -0.378678E-16
  Finished solving LPB equations
  A_corr:   -0.237684130896294     
 End minimization
 Ecorr=   1710.74923600495     
 A_corr= -0.237684130896294     
 Ecorr_band=  -1710.98692013585     
 End Solvation calculations
RMM:   3    -0.138172954708E+03    0.19525E-03   -0.17355E-03 11429   0.978E-02    0.249E-01
 Begin Solvation calculations
  rms_SCF =   4.139925432472322E-002 tol =   4.139925432472322E-003
 Begin minimization
 Creating dielectric and ionic cavities
  area:      138.903108219515     
  volume:    652.364707698081     
  Acav:     7.292413181524528E-002
  Solving linear dielectric/ionic screening model
        iter                  A_solv                     rms
   LPB:       -0.311230029578294E+00   0.294284430365195E+00
   LPB:    0  -0.311219143829686E+00   0.285697339656749E+00  -0.877004E-03   0.000000E+00   0.283064E+02  -0.248249E-01
   LPB:    1  -0.311009011212760E+00   0.254906356683141E-01   0.892527E-02   0.000000E+00   0.640896E+02  -0.308850E-18
   LPB:    2  -0.310990849063042E+00   0.581347637723795E-02   0.151839E-01   0.508056E-01   0.159905E+03  -0.824480E-16
   LPB:    3  -0.310987548359040E+00   0.515522596349420E-02   0.256596E-01   0.107541E+00   0.231643E+03  -0.261031E-16
   LPB:    4  -0.310986278852731E+00   0.441346455905466E-02   0.269165E-01   0.366657E+00   0.124159E+03  -0.624013E-16
   LPB:    5  -0.310985545625195E+00   0.252870573958999E-02   0.248640E-01   0.625247E+00   0.293495E+03  -0.104282E-15
  Finished solving LPB equations
  A_corr:   -0.238061413809950     
 End minimization
 Ecorr=   1710.74629120520     
 A_corr= -0.238061413809950     
 Ecorr_band=  -1710.98435261901     
 End Solvation calculations
RMM:   4    -0.138172474760E+03    0.47995E-03   -0.47396E-04  8343   0.660E-02    0.126E-01
 Begin Solvation calculations
  rms_SCF =   4.139925432472322E-002 tol =   4.139925432472322E-003
 Begin minimization
 Creating dielectric and ionic cavities
  area:      138.883483630009     
  volume:    652.362951269205     
  Acav:     7.291382890575490E-002
  Solving linear dielectric/ionic screening model
        iter                  A_solv                     rms
   LPB:       -0.312446285342293E+00   0.326227347201961E+00
   LPB:    0  -0.312396925754016E+00   0.283456035270573E+00  -0.186749E-02   0.000000E+00   0.283065E+02  -0.528620E-01
   LPB:    1  -0.312130070939019E+00   0.555524008328569E-01   0.104197E-01   0.000000E+00   0.570307E+02   0.252166E-17
   LPB:    2  -0.312073873264058E+00   0.915668355113191E-02   0.157945E-01   0.138929E+00   0.114206E+03   0.218491E-15
   LPB:    3  -0.312066495011666E+00   0.816264746413494E-02   0.232512E-01   0.891861E-01   0.300367E+03   0.201135E-15
   LPB:    4  -0.312064024224586E+00   0.523492673514555E-02   0.222952E-01   0.349234E+00   0.105592E+03   0.170944E-15
   LPB:    5  -0.312062769978122E+00   0.372562185412398E-02   0.261359E-01   0.433032E+00   0.286117E+03   0.195526E-15
  Finished solving LPB equations
  A_corr:   -0.239148941072368     
 End minimization
 Ecorr=   1710.40072967224     
 A_corr= -0.239148941072368     
 Ecorr_band=  -1710.63987861332     
 End Solvation calculations
RMM:   5    -0.138172401524E+03    0.73236E-04   -0.37891E-04  8144   0.867E-02
 Begin Solvation calculations
  rms_SCF =   4.139925432472322E-002 tol =   4.139925432472322E-003
 Begin minimization
 Creating dielectric and ionic cavities
  area:      138.881306412536     
  volume:    652.372600894538     
  Acav:     7.291268586658142E-002
  Solving linear dielectric/ionic screening model
        iter                  A_solv                     rms
   LPB:       -0.313482381504660E+00   0.290484157272692E+00
   LPB:    0  -0.313430912928634E+00   0.236283984502590E+00  -0.190698E-02   0.000000E+00   0.283061E+02  -0.539791E-01
   LPB:    1  -0.313163153870757E+00   0.637472028601508E-01   0.108250E-01   0.000000E+00   0.731628E+02   0.239407E-18
   LPB:    2  -0.313123192420656E+00   0.902149613520387E-02   0.135870E-01   0.118905E+00   0.128872E+03   0.387403E-15
   LPB:    3  -0.313114506386308E+00   0.911645049924752E-02   0.243678E-01   0.121196E+00   0.406157E+03   0.376269E-15
   LPB:    4  -0.313111199503348E+00   0.813820106642750E-02   0.253678E-01   0.365705E+00   0.821494E+02   0.408764E-15
   LPB:    5  -0.313109106694872E+00   0.455855192135394E-02   0.252497E-01   0.635824E+00   0.283906E+03   0.379909E-15
   LPB:    6  -0.313107624218290E+00   0.161012179172246E-02   0.346687E-01   0.515913E+00   0.147017E+03   0.464142E-15
  Finished solving LPB equations
  A_corr:   -0.240194938351708     
 End minimization
 Ecorr=   1709.85215655028     
 A_corr= -0.240194938351708     
 Ecorr_band=  -1710.09235148863     
 End Solvation calculations
   2 F= -.13817240E+03 E0= -.13816687E+03  d E =-.340782E-02
quench:  g(F)=  0.000E+00 g(S)=  0.000E+00 dE (1.order)= 0.000E+00
 bond charge predicted
       N       E                     dE             d eps       ncg     rms          rms(c)
 Begin Solvation calculations
  rms_SCF =   4.139925432472322E-002 tol =   4.139925432472322E-003
 Begin minimization
 Creating dielectric and ionic cavities
  area:      139.063589052264     
  volume:    652.287329328392     
  Acav:     7.300838425243869E-002
  Solving linear dielectric/ionic screening model
        iter                  A_solv                     rms
   LPB:       -0.318392421437201E+00   0.881442410097116E-02
   LPB:    0  -0.318392419503891E+00   0.920712430050381E-02  -0.116868E-04   0.000000E+00   0.283101E+02  -0.330854E-03
   LPB:    1  -0.315344240733338E+00   0.341138603501373E-02   0.156410E-01   0.000000E+00   0.206014E+06  -0.137754E-19
   LPB:    2  -0.315038530610066E+00   0.485817111755051E-02   0.272074E-01   0.576562E-01   0.686906E+05  -0.141295E-16
   LPB:    3  -0.314937966656469E+00   0.115792630339135E-01   0.327204E-01   0.273527E+00   0.100112E+05  -0.104276E-16
   LPB:    4  -0.314895368380867E+00   0.271151690061777E-01   0.329798E-01   0.420262E+00   0.664451E+03   0.153412E-16
   LPB:    5  -0.314878210855823E+00   0.294180385873398E-01   0.215625E-01   0.616046E+00   0.158480E+03   0.794700E-16
   LPB:    6  -0.314864540489871E+00   0.117072755202506E-01   0.228147E-01   0.753024E+00   0.273232E+03   0.108187E-15
   LPB:    7  -0.314855424993865E+00   0.134187721597515E-01   0.320977E-01   0.473960E+00   0.211256E+03   0.535491E-16
   LPB:    8  -0.314850091287472E+00   0.106943873331203E-01   0.246753E-01   0.761133E+00   0.194217E+03   0.953968E-17
   LPB:    9  -0.314845387224984E+00   0.326481860144411E-02   0.311921E-01   0.697687E+00   0.202017E+03  -0.142929E-16
  Finished solving LPB equations
  A_corr:   -0.241837002972545     
 End minimization
 Ecorr=   1709.68378024880     
 A_corr= -0.241837002972545     
 Ecorr_band=  -1709.92561725177     
 End Solvation calculations
DAV:   1    -0.138173522703E+03   -0.10479E-02   -0.24203E-01 15768   0.128E+00    0.136E-01
 Begin Solvation calculations
  rms_SCF =   2.989107058753323E-002 tol =   2.989107058753322E-003
 Begin minimization
 Creating dielectric and ionic cavities
  area:      138.963221166969     
  volume:    652.291577406676     
  Acav:     7.295569111265882E-002
  Solving linear dielectric/ionic screening model
        iter                  A_solv                     rms
   LPB:       -0.315661394887444E+00   0.184105351429618E+00
   LPB:    0  -0.315632130324996E+00   0.139583887165070E+00  -0.143786E-02   0.000000E+00   0.283099E+02  -0.407057E-01
   LPB:    1  -0.315554122689248E+00   0.336790012521992E-01   0.115586E-01   0.000000E+00   0.520950E+02   0.792914E-19
   LPB:    2  -0.315535344018976E+00   0.858511441295311E-02   0.155263E-01   0.179211E+00   0.132396E+03  -0.790182E-16
   LPB:    3  -0.315530948749699E+00   0.759688407063063E-02   0.234867E-01   0.154727E+00   0.269407E+03  -0.132402E-15
   LPB:    4  -0.315528546532019E+00   0.590140452335345E-02   0.274533E-01   0.467578E+00   0.109108E+03  -0.143876E-15
   LPB:    5  -0.315526882915462E+00   0.445553044919737E-02   0.294693E-01   0.645158E+00   0.310201E+03  -0.221179E-15
   LPB:    6  -0.315525370465672E+00   0.210445430725380E-02   0.339318E-01   0.789570E+00   0.169438E+03  -0.297578E-15
  Finished solving LPB equations
  A_corr:   -0.242569679353013     
 End minimization
 Ecorr=   1709.41084966920     
 A_corr= -0.242569679353013     
 Ecorr_band=  -1709.65341934855     
 End Solvation calculations
RMM:   2    -0.138174814761E+03   -0.12921E-02   -0.13126E-02 14922   0.260E-01    0.121E-01
 Begin Solvation calculations
  rms_SCF =   2.168026128697839E-002 tol =   2.168026128697839E-003
 Begin minimization
 Creating dielectric and ionic cavities
  area:      138.952717645734     
  volume:    652.310255858853     
  Acav:     7.295017676401017E-002
  Solving linear dielectric/ionic screening model
        iter                  A_solv                     rms
   LPB:       -0.315579063453153E+00   0.638587923010963E-01
   LPB:    0  -0.315578842785669E+00   0.624928214817687E-01  -0.124860E-03   0.000000E+00   0.283090E+02  -0.353465E-02
   LPB:    1  -0.315566659945261E+00   0.778590085347548E-02   0.925554E-02   0.000000E+00   0.712339E+02   0.126524E-18
   LPB:    2  -0.315565020443655E+00   0.176952453179030E-02   0.170057E-01   0.732440E-01   0.142785E+03  -0.843125E-16
   LPB:    3  -0.315564254031343E+00   0.148122633469839E-02   0.357580E-01   0.222316E+00   0.671955E+03  -0.105603E-15
   LPB:    4  -0.315563388029101E+00   0.208813630898041E-02   0.549179E-01   0.735726E+00   0.167804E+03  -0.114001E-15
  Finished solving LPB equations
  A_corr:   -0.242613211265091     
 End minimization
 Ecorr=   1709.23736745610     
 A_corr= -0.242613211265091     
 Ecorr_band=  -1709.47998066737     
 End Solvation calculations
RMM:   3    -0.138174697757E+03    0.11700E-03   -0.94497E-04  9189   0.795E-02    0.142E-01
 Begin Solvation calculations
  rms_SCF =   2.168026128697839E-002 tol =   2.168026128697839E-003
 Begin minimization
 Creating dielectric and ionic cavities
  area:      138.965862957206     
  volume:    652.317435317223     
  Acav:     7.295707805253318E-002
  Solving linear dielectric/ionic screening model
        iter                  A_solv                     rms
   LPB:       -0.315909008868308E+00   0.176590896167963E+00
   LPB:    0  -0.315904164357794E+00   0.169641843485073E+00  -0.585033E-03   0.000000E+00   0.283086E+02  -0.165615E-01
   LPB:    1  -0.315830946232061E+00   0.147219922551378E-01   0.880449E-02   0.000000E+00   0.646106E+02   0.419362E-18
   LPB:    2  -0.315825084518220E+00   0.364406422948474E-02   0.155364E-01   0.453690E-01   0.135905E+03  -0.883538E-16
   LPB:    3  -0.315823959221983E+00   0.422656564173062E-02   0.261270E-01   0.114157E+00   0.237005E+03  -0.985324E-16
   LPB:    4  -0.315823364471476E+00   0.315784512234610E-02   0.289821E-01   0.476461E+00   0.787494E+02  -0.108085E-15
   LPB:    5  -0.315822832144554E+00   0.205445479120330E-02   0.310302E-01   0.835968E+00   0.330693E+03  -0.182859E-15
  Finished solving LPB equations
  A_corr:   -0.242865754092021     
 End minimization
 Ecorr=   1709.15005034832     
 A_corr= -0.242865754092021     
 Ecorr_band=  -1709.39291610241     
 End Solvation calculations
RMM:   4    -0.138174667542E+03    0.30215E-04   -0.23184E-04  7649   0.512E-02
 Begin Solvation calculations
  rms_SCF =   2.168026128697839E-002 tol =   2.168026128697839E-003
 Begin minimization
 Creating dielectric and ionic cavities
  area:      138.967774075375     
  volume:    652.332621079145     
  Acav:     7.295808138957179E-002
  Solving linear dielectric/ionic screening model
        iter                  A_solv                     rms
   LPB:       -0.316223060643541E+00   0.205783157114118E+00
   LPB:    0  -0.316220861075562E+00   0.202412342142004E+00  -0.394212E-03   0.000000E+00   0.283079E+02  -0.111593E-01
   LPB:    1  -0.316119593623653E+00   0.233573849385148E-01   0.912670E-02   0.000000E+00   0.586138E+02   0.361440E-18
   LPB:    2  -0.316107100315792E+00   0.412195277704263E-02   0.164909E-01   0.682773E-01   0.104430E+03   0.121846E-15
   LPB:    3  -0.316105198517979E+00   0.168330742395331E-02   0.226624E-01   0.110771E+00   0.208125E+03   0.128421E-15
   LPB:    4  -0.316104453738992E+00   0.183391132224724E-02   0.315600E-01   0.281211E+00   0.204742E+03   0.138951E-15
  Finished solving LPB equations
  A_corr:   -0.243146372349421     
 End minimization
 Ecorr=   1708.97129439879     
 A_corr= -0.243146372349421     
 Ecorr_band=  -1709.21444077114     
 End Solvation calculations
   3 F= -.13817467E+03 E0= -.13816925E+03  d E =-.226602E-02
quench:  g(F)=  0.000E+00 g(S)=  0.000E+00 dE (1.order)= 0.000E+00
 bond charge predicted
       N       E                     dE             d eps       ncg     rms          rms(c)
 Begin Solvation calculations
  rms_SCF =   2.168026128697839E-002 tol =   2.168026128697839E-003
 Begin minimization
 Creating dielectric and ionic cavities
  area:      139.268217006905     
  volume:    652.216656188434     
  Acav:     7.311581392862530E-002
  Solving linear dielectric/ionic screening model
        iter                  A_solv                     rms
   LPB:       -0.324135740726092E+00   0.114556261619901E-01
   LPB:    0  -0.324135737475440E+00   0.119995881540704E-01  -0.151532E-04   0.000000E+00   0.283134E+02  -0.429038E-03
   LPB:    1  -0.319316517584576E+00   0.539353877369127E-02   0.154499E-01   0.000000E+00   0.190257E+06  -0.534561E-20
   LPB:    2  -0.318883331160890E+00   0.758947148419758E-02   0.266492E-01   0.521124E-01   0.413081E+05   0.969315E-17
   LPB:    3  -0.318743132546332E+00   0.178505989616794E-01   0.325672E-01   0.264833E+00   0.645831E+04   0.132227E-16
   LPB:    4  -0.318685758106907E+00   0.420136360059553E-01   0.311932E-01   0.427264E+00   0.476779E+03   0.157120E-16
   LPB:    5  -0.318661609650359E+00   0.303799115412494E-01   0.186425E-01   0.704247E+00   0.138606E+03   0.669801E-17
   LPB:    6  -0.318639822161715E+00   0.933745147539672E-02   0.268726E-01   0.625912E+00   0.499338E+03  -0.123864E-16
   LPB:    7  -0.318625480020464E+00   0.119488053099244E-01   0.370607E-01   0.477313E+00   0.325220E+03  -0.314591E-16
   LPB:    8  -0.318617247352695E+00   0.154702805879543E-01   0.290126E-01   0.733253E+00   0.226180E+03   0.547416E-16
   LPB:    9  -0.318610539373082E+00   0.633850904197261E-02   0.273959E-01   0.862882E+00   0.131675E+03   0.137082E-15
   LPB:   10  -0.318604899628835E+00   0.194930873478371E-02   0.383491E-01   0.600617E+00   0.164622E+04   0.299878E-15
  Finished solving LPB equations
  A_corr:   -0.245489085700210     
 End minimization
 Ecorr=   1708.75009070277     
 A_corr= -0.245489085700210     
 Ecorr_band=  -1708.99557978847     
 End Solvation calculations
DAV:   1    -0.138175678103E+03   -0.98035E-03   -0.34797E-01 12735   0.139E+00    0.121E-01
 Begin Solvation calculations
  rms_SCF =   2.168026128697839E-002 tol =   2.168026128697839E-003
 Begin minimization
 Creating dielectric and ionic cavities
  area:      139.030640402273     
  volume:    652.218759777439     
  Acav:     7.299108621119324E-002
  Solving linear dielectric/ionic screening model
        iter                  A_solv                     rms
   LPB:       -0.319915826541521E+00   0.274059057775005E+00
   LPB:    0  -0.319876355295309E+00   0.231357879284602E+00  -0.166978E-02   0.000000E+00   0.283133E+02  -0.472771E-01
   LPB:    1  -0.319662441347219E+00   0.491963314736701E-01   0.102404E-01   0.000000E+00   0.700154E+02  -0.179092E-17
   LPB:    2  -0.319631973195110E+00   0.817882928281012E-02   0.142539E-01   0.102327E+00   0.134498E+03  -0.493825E-15
   LPB:    3  -0.319624605307830E+00   0.826660446839731E-02   0.253615E-01   0.135912E+00   0.368785E+03  -0.360118E-15
   LPB:    4  -0.319621813307675E+00   0.770390855609675E-02   0.245951E-01   0.390749E+00   0.895387E+02  -0.331615E-15
   LPB:    5  -0.319619789031911E+00   0.432424640431945E-02   0.277016E-01   0.643722E+00   0.307545E+03  -0.311180E-15
   LPB:    6  -0.319618081813098E+00   0.199223310581766E-02   0.386089E-01   0.605115E+00   0.181215E+03  -0.318804E-15
  Finished solving LPB equations
  A_corr:   -0.246626995601905     
 End minimization
 Ecorr=   1708.28575188714     
 A_corr= -0.246626995601905     
 Ecorr_band=  -1708.53237888274     
 End Solvation calculations
RMM:   2    -0.138176975985E+03   -0.12979E-02   -0.14379E-02 16799   0.311E-01    0.106E-01
 Begin Solvation calculations
  rms_SCF =   2.168026128697839E-002 tol =   2.168026128697839E-003
 Begin minimization
 Creating dielectric and ionic cavities
  area:      139.006347213841     
  volume:    652.224933174372     
  Acav:     7.297833228726665E-002
  Solving linear dielectric/ionic screening model
        iter                  A_solv                     rms
   LPB:       -0.320169224682115E+00   0.237838903215133E+00
   LPB:    0  -0.320162850933230E+00   0.231200059724922E+00  -0.670996E-03   0.000000E+00   0.283130E+02  -0.189979E-01
   LPB:    1  -0.320030903382984E+00   0.279449956040519E-01   0.914801E-02   0.000000E+00   0.582829E+02   0.373161E-19
   LPB:    2  -0.320013044401982E+00   0.420960713077260E-02   0.169423E-01   0.730821E-01   0.975656E+02  -0.335639E-16
   LPB:    3  -0.320010723523903E+00   0.208479809861840E-02   0.233940E-01   0.941157E-01   0.239846E+03  -0.124880E-15
   LPB:    4  -0.320009645827619E+00   0.207071781603428E-02   0.337798E-01   0.321582E+00   0.190605E+03  -0.142590E-15
  Finished solving LPB equations
  A_corr:   -0.247031313540352     
 End minimization
 Ecorr=   1708.16948521271     
 A_corr= -0.247031313540352     
 Ecorr_band=  -1708.41651652625     
 End Solvation calculations
RMM:   3    -0.138176870304E+03    0.10568E-03   -0.63752E-04  9175   0.656E-02    0.146E-01
 Begin Solvation calculations
  rms_SCF =   2.168026128697839E-002 tol =   2.168026128697839E-003
 Begin minimization
 Creating dielectric and ionic cavities
  area:      139.012608265694     
  volume:    652.225100201758     
  Acav:     7.298161933948911E-002
  Solving linear dielectric/ionic screening model
        iter                  A_solv                     rms
   LPB:       -0.320318714318975E+00   0.169083309379524E+00
   LPB:    0  -0.320315318771147E+00   0.164292870985572E+00  -0.489753E-03   0.000000E+00   0.283130E+02  -0.138664E-01
   LPB:    1  -0.320247059064352E+00   0.139576074572386E-01   0.878533E-02   0.000000E+00   0.649374E+02  -0.147250E-17
   LPB:    2  -0.320241863984156E+00   0.311273248450053E-02   0.153615E-01   0.435264E-01   0.143572E+03  -0.146233E-16
   LPB:    3  -0.320240759387326E+00   0.340799040963569E-02   0.268181E-01   0.121791E+00   0.277146E+03  -0.712520E-16
   LPB:    4  -0.320240126143127E+00   0.351412928120475E-02   0.342253E-01   0.449210E+00   0.909712E+02  -0.877669E-16
   LPB:    5  -0.320239329594397E+00   0.345008548717969E-02   0.373225E-01   0.115350E+01   0.255057E+03  -0.123668E-15
   LPB:    6  -0.320238264536951E+00   0.294188487891858E-02   0.415913E-01   0.119986E+01   0.613608E+02  -0.155961E-15
   LPB:    7  -0.320237213377079E+00   0.152366984807438E-02   0.377154E-01   0.108838E+01   0.221797E+03  -0.191287E-15
  Finished solving LPB equations
  A_corr:   -0.247255594037590     
 End minimization
 Ecorr=   1707.95042793793     
 A_corr= -0.247255594037590     
 Ecorr_band=  -1708.19768353197     
 End Solvation calculations
RMM:   4    -0.138176699746E+03    0.17056E-03   -0.20606E-04  7523   0.570E-02    0.820E-02
 Begin Solvation calculations
  rms_SCF =   2.168026128697839E-002 tol =   2.168026128697839E-003
 Begin minimization
 Creating dielectric and ionic cavities
  area:      139.007872586166     
  volume:    652.248900010859     
  Acav:     7.297913310773738E-002
  Solving linear dielectric/ionic screening model
        iter                  A_solv                     rms
   LPB:       -0.321082251362543E+00   0.127012258124672E+00
   LPB:    0  -0.321063542177164E+00   0.729615089717668E-01  -0.114963E-02   0.000000E+00   0.283119E+02  -0.325482E-01
   LPB:    1  -0.321003139286505E+00   0.177682021654744E-01   0.163141E-01   0.000000E+00   0.553338E+02  -0.106458E-17
   LPB:    2  -0.320997180780831E+00   0.851318941324445E-02   0.152570E-01   0.105481E+00   0.193915E+03  -0.303944E-15
   LPB:    3  -0.320995489010786E+00   0.537052072048102E-02   0.204077E-01   0.212264E+00   0.981526E+02  -0.262096E-15
   LPB:    4  -0.320994872826378E+00   0.477101460829391E-02   0.225024E-01   0.330320E+00   0.130575E+03  -0.228458E-15
   LPB:    5  -0.320994544952117E+00   0.210332280948918E-02   0.202332E-01   0.591781E+00   0.178907E+03  -0.215057E-15
  Finished solving LPB equations
  A_corr:   -0.248015411844380     
 End minimization
 Ecorr=   1707.63288082425     
 A_corr= -0.248015411844380     
 Ecorr_band=  -1707.88089623609     
 End Solvation calculations
RMM:   5    -0.138176655424E+03    0.44322E-04   -0.82761E-05  6714   0.396E-02
 Begin Solvation calculations
  rms_SCF =   2.168026128697839E-002 tol =   2.168026128697839E-003
 Begin minimization
 Creating dielectric and ionic cavities
  area:      139.018913765018     
  volume:    652.263433613871     
  Acav:     7.298492972663442E-002
  Solving linear dielectric/ionic screening model
        iter                  A_solv                     rms
   LPB:       -0.322075497748448E+00   0.176066428054593E+00
   LPB:    0  -0.322033879928819E+00   0.922367877516662E-01  -0.171465E-02   0.000000E+00   0.283112E+02  -0.485438E-01
   LPB:    1  -0.321953242480708E+00   0.289097667622444E-01   0.151968E-01   0.000000E+00   0.506457E+02   0.501910E-18
   LPB:    2  -0.321944101665241E+00   0.774037045362518E-02   0.146159E-01   0.117863E+00   0.116439E+03  -0.519151E-15
   LPB:    3  -0.321941705151015E+00   0.556956987617656E-02   0.219387E-01   0.174667E+00   0.182657E+03  -0.686543E-15
   LPB:    4  -0.321940700668065E+00   0.641977719642119E-02   0.220585E-01   0.416866E+00   0.826000E+02  -0.741271E-15
   LPB:    5  -0.321940027717191E+00   0.349329976233208E-02   0.220349E-01   0.670666E+00   0.156967E+03  -0.731526E-15
   LPB:    6  -0.321939478599988E+00   0.115243120652651E-02   0.331340E-01   0.542649E+00   0.129184E+03  -0.717176E-15
  Finished solving LPB equations
  A_corr:   -0.248954548873354     
 End minimization
 Ecorr=   1707.24288134913     
 A_corr= -0.248954548873354     
 Ecorr_band=  -1707.49183589801     
 End Solvation calculations
   4 F= -.13817666E+03 E0= -.13817111E+03  d E =-.198788E-02
quench:  g(F)=  0.000E+00 g(S)=  0.000E+00 dE (1.order)= 0.000E+00
 bond charge predicted
       N       E                     dE             d eps       ncg     rms          rms(c)
 Begin Solvation calculations
  rms_SCF =   2.168026128697839E-002 tol =   2.168026128697839E-003
 Begin minimization
 Creating dielectric and ionic cavities
  area:      139.260208760805     
  volume:    652.139763013215     
  Acav:     7.311160959942237E-002
  Solving linear dielectric/ionic screening model
        iter                  A_solv                     rms
   LPB:       -0.330188609257756E+00   0.110774823764922E-01
   LPB:    0  -0.330188605686943E+00   0.115996493240688E-01  -0.158809E-04   0.000000E+00   0.283170E+02  -0.449699E-03
   LPB:    1  -0.325123897299281E+00   0.419894751777966E-02   0.157446E-01   0.000000E+00   0.213092E+06  -0.302935E-19
   LPB:    2  -0.324598011768405E+00   0.545995460715896E-02   0.272220E-01   0.600549E-01   0.765373E+05  -0.932043E-17
   LPB:    3  -0.324424507445446E+00   0.126810088651643E-01   0.328420E-01   0.273470E+00   0.141950E+05  -0.113095E-16
   LPB:    4  -0.324351124909724E+00   0.306681617951435E-01   0.335667E-01   0.413812E+00   0.923176E+03   0.197885E-17
   LPB:    5  -0.324321969944026E+00   0.400061721617462E-01   0.232989E-01   0.572391E+00   0.171577E+03   0.225729E-16
   LPB:    6  -0.324300570895790E+00   0.151466153784180E-01   0.210492E-01   0.812421E+00   0.230792E+03  -0.928269E-17
   LPB:    7  -0.324285067596861E+00   0.149170613092148E-01   0.329335E-01   0.463050E+00   0.282889E+03  -0.462131E-16
   LPB:    8  -0.324276366830200E+00   0.152604443096296E-01   0.262550E-01   0.703977E+00   0.196855E+03  -0.331353E-16
   LPB:    9  -0.324269021747776E+00   0.537681772979805E-02   0.285441E-01   0.776490E+00   0.167736E+03   0.190219E-16
   LPB:   10  -0.324263271319925E+00   0.178519230244434E-02   0.391601E-01   0.570658E+00   0.233909E+04  -0.231371E-15
  Finished solving LPB equations
  A_corr:   -0.251151661720502     
 End minimization
 Ecorr=   1707.05428344588     
 A_corr= -0.251151661720502     
 Ecorr_band=  -1707.30543510760     
 End Solvation calculations
DAV:   1    -0.138176470554E+03    0.22919E-03   -0.40399E-01 12528   0.141E+00    0.153E-01
 Begin Solvation calculations
  rms_SCF =   2.168026128697839E-002 tol =   2.168026128697839E-003
 Begin minimization
 Creating dielectric and ionic cavities
  area:      139.128232384269     
  volume:    652.214586793414     
  Acav:     7.304232200174107E-002
  Solving linear dielectric/ionic screening model
        iter                  A_solv                     rms
   LPB:       -0.324336456204217E+00   0.174355532881716E+00
   LPB:    0  -0.324328094639882E+00   0.166437800768470E+00   0.768533E-03   0.000000E+00   0.283135E+02   0.217598E-01
   LPB:    1  -0.324180939704736E+00   0.480822716120874E-01   0.116618E-01   0.000000E+00   0.779418E+02  -0.795345E-18
   LPB:    2  -0.324149512517560E+00   0.914805384103487E-02   0.148319E-01   0.167920E+00   0.345610E+03   0.400580E-16
   LPB:    3  -0.324139562416098E+00   0.532122820096306E-02   0.255381E-01   0.183878E+00   0.512397E+03   0.482807E-16
   LPB:    4  -0.324135343975405E+00   0.641125435194776E-02   0.306963E-01   0.352717E+00   0.469931E+03   0.791120E-16
   LPB:    5  -0.324133066699748E+00   0.638853569131742E-02   0.271586E-01   0.610157E+00   0.177598E+03   0.893156E-16
   LPB:    6  -0.324131243079185E+00   0.470919332350697E-02   0.299907E-01   0.725172E+00   0.254079E+03   0.118519E-15
   LPB:    7  -0.324129716668635E+00   0.272586207610352E-02   0.360045E-01   0.697214E+00   0.178478E+03   0.118941E-15
   LPB:    8  -0.324128379728264E+00   0.158787829826545E-02   0.390038E-01   0.808521E+00   0.849363E+03   0.103342E-15
  Finished solving LPB equations
  A_corr:   -0.251086057726523     
 End minimization
 Ecorr=   1706.72486262558     
 A_corr= -0.251086057726523     
 Ecorr_band=  -1706.97594868330     
 End Solvation calculations
RMM:   2    -0.138178462517E+03   -0.19920E-02   -0.21106E-02 16897   0.341E-01    0.130E-01
 Begin Solvation calculations
  rms_SCF =   2.168026128697839E-002 tol =   2.168026128697839E-003
 Begin minimization
 Creating dielectric and ionic cavities
  area:      139.107217939504     
  volume:    652.195855431260     
  Acav:     7.303128941823986E-002
  Solving linear dielectric/ionic screening model
        iter                  A_solv                     rms
   LPB:       -0.324329251959074E+00   0.278293369320003E+00
   LPB:    0  -0.324324727822627E+00   0.274941652571173E+00  -0.565301E-03   0.000000E+00   0.283143E+02  -0.160061E-01
   LPB:    1  -0.324141919466503E+00   0.250277617223017E-01   0.873222E-02   0.000000E+00   0.632618E+02   0.906212E-18
   LPB:    2  -0.324126495881855E+00   0.694718491498588E-02   0.164488E-01   0.447899E-01   0.120383E+03   0.191745E-16
   LPB:    3  -0.324124243040073E+00   0.519024088714006E-02   0.223816E-01   0.107347E+00   0.108437E+03   0.325247E-16
   LPB:    4  -0.324123360855727E+00   0.362272983296886E-02   0.265861E-01   0.329658E+00   0.126343E+03   0.405377E-16
   LPB:    5  -0.324122759059893E+00   0.216808803363277E-02   0.276208E-01   0.656612E+00   0.294537E+03   0.149104E-16
   LPB:    6  -0.324122158583980E+00   0.135881337311909E-02   0.394212E-01   0.699121E+00   0.299548E+03  -0.851005E-17
  Finished solving LPB equations
  A_corr:   -0.251090869165740     
 End minimization
 Ecorr=   1706.81467195801     
 A_corr= -0.251090869165740     
 Ecorr_band=  -1707.06576282718     
 End Solvation calculations
RMM:   3    -0.138178350259E+03    0.11226E-03   -0.10278E-03 10610   0.852E-02    0.186E-01
 Begin Solvation calculations
  rms_SCF =   2.168026128697839E-002 tol =   2.168026128697839E-003
 Begin minimization
 Creating dielectric and ionic cavities
  area:      139.102471215725     
  volume:    652.199803344004     
  Acav:     7.302879738825574E-002
  Solving linear dielectric/ionic screening model
        iter                  A_solv                     rms
   LPB:       -0.324220418742658E+00   0.197502328087799E+00
   LPB:    0  -0.324220418218845E+00   0.197502844052409E+00   0.608277E-05   0.000000E+00   0.283142E+02   0.172229E-03
   LPB:    1  -0.324124691326107E+00   0.188351318120845E-01   0.891550E-02   0.000000E+00   0.617411E+02  -0.212019E-20
   LPB:    2  -0.324115690405976E+00   0.388141117462544E-02   0.157269E-01   0.533036E-01   0.136769E+03   0.372796E-18
   LPB:    3  -0.324114163927377E+00   0.202967944903990E-02   0.254097E-01   0.104966E+00   0.161884E+03   0.428595E-17
   LPB:    4  -0.324113536769072E+00   0.185525142981951E-02   0.315577E-01   0.330811E+00   0.312538E+03  -0.121053E-16
  Finished solving LPB equations
  A_corr:   -0.251084739380816     
 End minimization
 Ecorr=   1706.78045139795     
 A_corr= -0.251084739380816     
 Ecorr_band=  -1707.03153613733     
 End Solvation calculations
RMM:   4    -0.138178015225E+03    0.33503E-03   -0.28205E-04  7736   0.596E-02    0.711E-02
 Begin Solvation calculations
  rms_SCF =   1.846786239940022E-002 tol =   1.846786239940022E-003
 Begin minimization
 Creating dielectric and ionic cavities
  area:      139.112736662534     
  volume:    652.211521274022     
  Acav:     7.303418674783035E-002
  Solving linear dielectric/ionic screening model
        iter                  A_solv                     rms
   LPB:       -0.324109511793636E+00   0.932174384006059E-01
   LPB:    0  -0.324109508778760E+00   0.931960022229558E-01  -0.145933E-04   0.000000E+00   0.283136E+02  -0.413188E-03
   LPB:    1  -0.324045176864469E+00   0.348676928016897E-01   0.124625E-01   0.000000E+00   0.951010E+02  -0.102210E-19
   LPB:    2  -0.324033769891271E+00   0.599675502338418E-02   0.134867E-01   0.163848E+00   0.234453E+03  -0.112626E-16
   LPB:    3  -0.324029989233036E+00   0.307324164160947E-02   0.251836E-01   0.177495E+00   0.698337E+03  -0.857740E-17
   LPB:    4  -0.324028354522201E+00   0.326100595509778E-02   0.319106E-01   0.341237E+00   0.332761E+03  -0.425033E-17
   LPB:    5  -0.324027495564392E+00   0.400225172820643E-02   0.311348E-01   0.538542E+00   0.196597E+03  -0.751405E-17
   LPB:    6  -0.324026915727367E+00   0.295831269945015E-02   0.288042E-01   0.729667E+00   0.137608E+03  -0.376488E-16
   LPB:    7  -0.324026430053847E+00   0.172492821435116E-02   0.316930E-01   0.761255E+00   0.358856E+03  -0.571398E-16
  Finished solving LPB equations
  A_corr:   -0.250992243306016     
 End minimization
 Ecorr=   1706.77092907182     
 A_corr= -0.250992243306016     
 Ecorr_band=  -1707.02192131513     
 End Solvation calculations
RMM:   5    -0.138178023103E+03   -0.78772E-05   -0.13559E-04  7280   0.461E-02
 Begin Solvation calculations
  rms_SCF =   1.846786239940022E-002 tol =   1.846786239940022E-003
 Begin minimization
 Creating dielectric and ionic cavities
  area:      139.120720653591     
  volume:    652.217581145676     
  Acav:     7.303837834313509E-002
  Solving linear dielectric/ionic screening model
        iter                  A_solv                     rms
   LPB:       -0.323828398764449E+00   0.107208860250318E+00
   LPB:    0  -0.323828057001601E+00   0.106454869226236E+00   0.155375E-03   0.000000E+00   0.283133E+02   0.439919E-02
   LPB:    1  -0.323783505690864E+00   0.215435773469998E-01   0.102970E-01   0.000000E+00   0.740431E+02  -0.565814E-19
   LPB:    2  -0.323773676191673E+00   0.316400264486459E-02   0.163873E-01   0.138635E+00   0.242474E+03   0.637088E-17
   LPB:    3  -0.323772082507841E+00   0.308743745561399E-02   0.264277E-01   0.100535E+00   0.264941E+03   0.673719E-18
   LPB:    4  -0.323771508405581E+00   0.294530560976835E-02   0.281994E-01   0.337603E+00   0.147041E+03  -0.118367E-17
   LPB:    5  -0.323771086728723E+00   0.290026684631239E-02   0.333542E-01   0.620983E+00   0.169420E+03  -0.661236E-17
   LPB:    6  -0.323770692923462E+00   0.184888214777412E-02   0.325403E-01   0.957263E+00   0.196770E+03  -0.341159E-16
   LPB:    7  -0.323770284488215E+00   0.120133786934671E-02   0.362858E-01   0.930092E+00   0.482204E+03  -0.492471E-16
  Finished solving LPB equations
  A_corr:   -0.250731906145080     
 End minimization
 Ecorr=   1706.79274218698     
 A_corr= -0.250731906145080     
 Ecorr_band=  -1707.04347409312     
 End Solvation calculations
   5 F= -.13817802E+03 E0= -.13817248E+03  d E =-.136768E-02
quench:  g(F)=  0.000E+00 g(S)=  0.000E+00 dE (1.order)= 0.000E+00
 bond charge predicted
       N       E                     dE             d eps       ncg     rms          rms(c)
 Begin Solvation calculations
  rms_SCF =   1.846786239940022E-002 tol =   1.846786239940022E-003
 Begin minimization
 Creating dielectric and ionic cavities
  area:      139.251319728662     
  volume:    652.174939549012     
  Acav:     7.310694285754746E-002
  Solving linear dielectric/ionic screening model
        iter                  A_solv                     rms
   LPB:       -0.326939109311998E+00   0.538347604339660E-02
   LPB:    0  -0.326939108878087E+00   0.549077382949578E-02  -0.553611E-05   0.000000E+00   0.283153E+02  -0.156757E-03
   LPB:    1  -0.325059970556050E+00   0.302961218555775E-02   0.157906E-01   0.000000E+00   0.427629E+06  -0.340951E-21
   LPB:    2  -0.324867820730433E+00   0.426263776677054E-02   0.271350E-01   0.595047E-01   0.498609E+05  -0.768413E-17
   LPB:    3  -0.324805987637453E+00   0.909162673450212E-02   0.324706E-01   0.268918E+00   0.816027E+04  -0.593270E-17
   LPB:    4  -0.324780468362873E+00   0.229500532430474E-01   0.324804E-01   0.412589E+00   0.792295E+03  -0.240983E-16
   LPB:    5  -0.324770337619981E+00   0.223555033848826E-01   0.204392E-01   0.630855E+00   0.139682E+03  -0.163463E-16
   LPB:    6  -0.324761905014072E+00   0.682160302464112E-02   0.234504E-01   0.725494E+00   0.341540E+03  -0.441570E-16
   LPB:    7  -0.324756301010103E+00   0.781587833040464E-02   0.348089E-01   0.447711E+00   0.779848E+03  -0.569222E-16
   LPB:    8  -0.324753283586602E+00   0.881224994409704E-02   0.276615E-01   0.677568E+00   0.142698E+03  -0.671525E-16
   LPB:    9  -0.324750898226317E+00   0.403471188306058E-02   0.273104E-01   0.800690E+00   0.274515E+03  -0.811223E-16
   LPB:   10  -0.324748996155601E+00   0.149671167115385E-02   0.374356E-01   0.581723E+00   0.482697E+03  -0.147715E-15
  Finished solving LPB equations
  A_corr:   -0.251642053298053     
 End minimization
 Ecorr=   1706.71248230823     
 A_corr= -0.251642053298053     
 Ecorr_band=  -1706.96412436153     
 End Solvation calculations
DAV:   1    -0.138178779073E+03   -0.76385E-03   -0.15381E-01 15729   0.860E-01    0.120E-01
 Begin Solvation calculations
  rms_SCF =   1.846786239940022E-002 tol =   1.846786239940022E-003
 Begin minimization
 Creating dielectric and ionic cavities
  area:      139.116549384740     
  volume:    652.139945792133     
  Acav:     7.303618842698875E-002
  Solving linear dielectric/ionic screening model
        iter                  A_solv                     rms
   LPB:       -0.325934407655792E+00   0.228634463964415E+00
   LPB:    0  -0.325899451052869E+00   0.185403162183917E+00  -0.157129E-02   0.000000E+00   0.283170E+02  -0.444942E-01
   LPB:    1  -0.325739852786920E+00   0.524127245943508E-01   0.117427E-01   0.000000E+00   0.610514E+02  -0.290839E-18
   LPB:    2  -0.325699462780388E+00   0.974912545772168E-02   0.151443E-01   0.196230E+00   0.158025E+03  -0.576151E-15
   LPB:    3  -0.325691683522548E+00   0.991770405601674E-02   0.258755E-01   0.112726E+00   0.290571E+03  -0.699468E-15
   LPB:    4  -0.325688893750039E+00   0.636955900107496E-02   0.215254E-01   0.431089E+00   0.122645E+03  -0.746710E-15
   LPB:    5  -0.325687185001399E+00   0.301037750963468E-02   0.272605E-01   0.483645E+00   0.337003E+03  -0.733758E-15
   LPB:    6  -0.325686130131115E+00   0.176761979406258E-02   0.332435E-01   0.506231E+00   0.289606E+03  -0.697471E-15
  Finished solving LPB equations
  A_corr:   -0.252649941704126     
 End minimization
 Ecorr=   1706.45539829994     
 A_corr= -0.252649941704126     
 Ecorr_band=  -1706.70804824165     
 End Solvation calculations
RMM:   2    -0.138179633301E+03   -0.85423E-03   -0.99729E-03 14705   0.200E-01    0.112E-01
 Begin Solvation calculations
  rms_SCF =   1.846786239940022E-002 tol =   1.846786239940022E-003
 Begin minimization
 Creating dielectric and ionic cavities
  area:      139.112526602061     
  volume:    652.146441207612     
  Acav:     7.303407646608187E-002
  Solving linear dielectric/ionic screening model
        iter                  A_solv                     rms
   LPB:       -0.325900159880087E+00   0.304384682880939E+00
   LPB:    0  -0.325900102865459E+00   0.304355905553228E+00  -0.634581E-04   0.000000E+00   0.283167E+02  -0.179692E-02
   LPB:    1  -0.325678300542421E+00   0.278306361562082E-01   0.875182E-02   0.000000E+00   0.625219E+02  -0.143362E-20
   LPB:    2  -0.325660343136782E+00   0.526165180484963E-02   0.157870E-01   0.448823E-01   0.123082E+03  -0.751732E-17
   LPB:    3  -0.325657924699220E+00   0.270871461808510E-02   0.234132E-01   0.908095E-01   0.168688E+03  -0.574115E-17
   LPB:    4  -0.325657066333197E+00   0.196821863335992E-02   0.308521E-01   0.269348E+00   0.236070E+03  -0.157744E-16
   LPB:    5  -0.325656615804993E+00   0.255205664246735E-02   0.301088E-01   0.537826E+00   0.386033E+03  -0.248467E-16
   LPB:    6  -0.325656236667302E+00   0.258222284483766E-02   0.326228E-01   0.776687E+00   0.123642E+03  -0.274882E-16
   LPB:    7  -0.325655854886186E+00   0.203657015447628E-02   0.345090E-01   0.951934E+00   0.371512E+03  -0.333206E-16
   LPB:    8  -0.325655443324616E+00   0.963778209417222E-03   0.402761E-01   0.923646E+00   0.176462E+03  -0.482589E-16
  Finished solving LPB equations
  A_corr:   -0.252621366858534     
 End minimization
 Ecorr=   1706.41090293532     
 A_corr= -0.252621366858534     
 Ecorr_band=  -1706.66352430218     
 End Solvation calculations
RMM:   3    -0.138179482978E+03    0.15032E-03   -0.54934E-04  8378   0.766E-02    0.123E-01
 Begin Solvation calculations
  rms_SCF =   1.846786239940022E-002 tol =   1.846786239940022E-003
 Begin minimization
 Creating dielectric and ionic cavities
  area:      139.108191591516     
  volume:    652.150945674314     
  Acav:     7.303180058554591E-002
  Solving linear dielectric/ionic screening model
        iter                  A_solv                     rms
   LPB:       -0.325834760677002E+00   0.141979301564310E+00
   LPB:    0  -0.325834594745296E+00   0.141619687333283E+00  -0.108258E-03   0.000000E+00   0.283164E+02  -0.306548E-02
   LPB:    1  -0.325786401488860E+00   0.152826480579796E-01   0.891952E-02   0.000000E+00   0.602912E+02  -0.107106E-18
   LPB:    2  -0.325781015555565E+00   0.290108521411764E-02   0.169691E-01   0.587430E-01   0.102173E+03  -0.284976E-16
   LPB:    3  -0.325780252707326E+00   0.164132942102212E-02   0.236667E-01   0.101555E+00   0.154902E+03  -0.368284E-16
   LPB:    4  -0.325779865149473E+00   0.127537214061062E-02   0.354495E-01   0.339177E+00   0.217758E+03  -0.273171E-16
  Finished solving LPB equations
  A_corr:   -0.252748064563927     
 End minimization
 Ecorr=   1706.34995804160     
 A_corr= -0.252748064563927     
 Ecorr_band=  -1706.60270610616     
 End Solvation calculations
RMM:   4    -0.138179324800E+03    0.15818E-03   -0.14387E-04  7158   0.518E-02    0.608E-02
 Begin Solvation calculations
  rms_SCF =   1.608325710140532E-002 tol =   1.608325710140532E-003
 Begin minimization
 Creating dielectric and ionic cavities
  area:      139.098716549480     
  volume:    652.151723865732     
  Acav:     7.302682618847722E-002
  Solving linear dielectric/ionic screening model
        iter                  A_solv                     rms
   LPB:       -0.326353055131454E+00   0.950450233107599E-01
   LPB:    0  -0.326343640390193E+00   0.635115873072167E-01  -0.815455E-03   0.000000E+00   0.283164E+02  -0.230908E-01
[...]
  Finished solving LPB equations
  A_corr:   -0.270385391328867     
 End minimization
 Ecorr=   1704.25876107610     
 A_corr= -0.270385391328867     
 Ecorr_band=  -1704.52914646743     
 End Solvation calculations
DAV:   1    -0.138187967855E+03    0.33109E-04   -0.37592E-03 12078   0.273E-01    0.285E-02
 Begin Solvation calculations
  rms_SCF =   1.094771110350072E-003 tol =   1.094771110350072E-004
 Begin minimization
 Creating dielectric and ionic cavities
  area:      139.323933351051     
  volume:    651.089330310272     
  Acav:     7.314506500930187E-002
  Solving linear dielectric/ionic screening model
        iter                  A_solv                     rms
   LPB:       -0.343646516484295E+00   0.551870014470512E-01
   LPB:    0  -0.343645762035737E+00   0.518992818737532E-01  -0.230637E-03   0.000000E+00   0.283662E+02  -0.654230E-02
   LPB:    1  -0.343637600957254E+00   0.598976867814454E-02   0.945216E-02   0.000000E+00   0.665821E+02   0.168989E-18
   LPB:    2  -0.343636558828832E+00   0.157560683997648E-02   0.154549E-01   0.780980E-01   0.245543E+03  -0.234112E-17
   LPB:    3  -0.343636328156718E+00   0.137889430352808E-02   0.248509E-01   0.137657E+00   0.357209E+03  -0.315557E-17
   LPB:    4  -0.343636254119152E+00   0.109056601509850E-02   0.235464E-01   0.338746E+00   0.142259E+03  -0.685109E-19
   LPB:    5  -0.343636214186450E+00   0.516992601240549E-03   0.241126E-01   0.526693E+00   0.265413E+03   0.254309E-18
   LPB:    6  -0.343636190922243E+00   0.275221440959966E-03   0.311367E-01   0.451160E+00   0.319731E+03   0.542846E-17
   LPB:    7  -0.343636177507198E+00   0.157190328250347E-03   0.327080E-01   0.548937E+00   0.615842E+03   0.458904E-17
   LPB:    8  -0.343636168970584E+00   0.848552304676073E-04   0.351931E-01   0.591412E+00   0.790768E+03   0.363650E-17
  Finished solving LPB equations
  A_corr:   -0.270491103961283     
 End minimization
 Ecorr=   1704.25749809646     
 A_corr= -0.270491103961283     
 Ecorr_band=  -1704.52798920042     
 End Solvation calculations
RMM:   2    -0.138188054798E+03   -0.86943E-04   -0.64140E-04  9859   0.672E-02
 Begin Solvation calculations
  rms_SCF =   1.094771110350072E-003 tol =   1.094771110350072E-004
 Begin minimization
 Creating dielectric and ionic cavities
  area:      139.322097172093     
  volume:    651.092733933070     
  Acav:     7.314410101534866E-002
  Solving linear dielectric/ionic screening model
        iter                  A_solv                     rms
   LPB:       -0.343640109650518E+00   0.711963346464007E-01
   LPB:    0  -0.343640037198915E+00   0.710079446504245E-01   0.714726E-04   0.000000E+00   0.283661E+02   0.202740E-02
   LPB:    1  -0.343627980162871E+00   0.672884944261311E-02   0.878558E-02   0.000000E+00   0.619444E+02  -0.753157E-20
   LPB:    2  -0.343626932717786E+00   0.154523242427411E-02   0.160059E-01   0.476848E-01   0.119291E+03   0.332829E-17
   LPB:    3  -0.343626793649861E+00   0.876550312568975E-03   0.220738E-01   0.962719E-01   0.130695E+03   0.307657E-17
   LPB:    4  -0.343626751614963E+00   0.685479184936887E-03   0.263564E-01   0.253147E+00   0.175029E+03   0.507146E-17
   LPB:    5  -0.343626733560417E+00   0.433441405459418E-03   0.229156E-01   0.494006E+00   0.198481E+03   0.110474E-16
   LPB:    6  -0.343626723720840E+00   0.231868814230341E-03   0.267100E-01   0.467570E+00   0.224399E+03   0.166188E-16
   LPB:    7  -0.343626718382965E+00   0.123746445932969E-03   0.298221E-01   0.485879E+00   0.356952E+03   0.254674E-16
   LPB:    8  -0.343626715075647E+00   0.595884708959710E-04   0.349397E-01   0.528843E+00   0.508348E+03   0.321134E-16
  Finished solving LPB equations
  A_corr:   -0.270482614060298     
 End minimization
 Ecorr=   1704.23401648059     
 A_corr= -0.270482614060298     
 Ecorr_band=  -1704.50449909465     
 End Solvation calculations
  86 F= -.13818805E+03 E0= -.13818280E+03  d E =0.370752E-04
quench:  g(F)=  0.000E+00 g(S)=  0.000E+00 dE (1.order)= 0.000E+00
 bond charge predicted
       N       E                     dE             d eps       ncg     rms          rms(c)
 Begin Solvation calculations
  rms_SCF =   1.094771110350072E-003 tol =   1.094771110350072E-004
 Begin minimization
 Creating dielectric and ionic cavities
  area:      139.316914153973     
  volume:    651.089550365906     
  Acav:     7.314137993083578E-002
  Solving linear dielectric/ionic screening model
        iter                  A_solv                     rms
   LPB:       -0.343679240769197E+00   0.771774550949771E-03
   LPB:    0  -0.343679240768268E+00   0.772560273562105E-03  -0.255975E-06   0.000000E+00   0.283662E+02  -0.726103E-05
   LPB:    1  -0.343630211182408E+00   0.347296165524965E-03   0.157837E-01   0.000000E+00   0.650858E+06  -0.449578E-21
   LPB:    2  -0.343625151889019E+00   0.315131299048541E-03   0.269591E-01   0.604137E-01   0.948365E+05  -0.223651E-18
   LPB:    3  -0.343623529367560E+00   0.607338354291594E-03   0.324519E-01   0.266419E+00   0.320471E+05  -0.279040E-17
   LPB:    4  -0.343622845748540E+00   0.150133197665194E-02   0.346846E-01   0.394210E+00   0.334177E+04  -0.497385E-17
   LPB:    5  -0.343622550950580E+00   0.312554636496088E-02   0.307563E-01   0.486310E+00   0.330250E+03  -0.112916E-16
   LPB:    6  -0.343622411189126E+00   0.207259028039478E-02   0.191576E-01   0.761126E+00   0.145385E+03  -0.115263E-16
   LPB:    7  -0.343622293654303E+00   0.121506209044105E-02   0.273816E-01   0.588385E+00   0.408231E+03  -0.165360E-16
   LPB:    8  -0.343622226763282E+00   0.143273561531161E-02   0.280322E-01   0.555908E+00   0.178361E+03  -0.211861E-16
   LPB:    9  -0.343622178713858E+00   0.637646063904445E-03   0.248128E-01   0.811525E+00   0.189741E+03  -0.230812E-16
   LPB:   10  -0.343622140475721E+00   0.172012869993301E-03   0.356490E-01   0.553907E+00   0.837004E+03  -0.266900E-16
   LPB:   11  -0.343622114828432E+00   0.590064832251507E-04   0.405885E-01   0.589100E+00   0.770673E+04  -0.290398E-16
  Finished solving LPB equations
  A_corr:   -0.270480734897596     
 End minimization
 Ecorr=   1704.23472642636     
 A_corr= -0.270480734897596     
 Ecorr_band=  -1704.50520716126     
 End Solvation calculations
DAV:   1    -0.138188005586E+03   -0.37731E-04   -0.54597E-03 15969   0.211E-01    0.413E-02
 Begin Solvation calculations
  rms_SCF =   1.094771110350072E-003 tol =   1.094771110350072E-004
 Begin minimization
 Creating dielectric and ionic cavities
  area:      139.330400940371     
  volume:    651.094788646579     
  Acav:     7.314846049369499E-002
  Solving linear dielectric/ionic screening model
        iter                  A_solv                     rms
   LPB:       -0.343585257087444E+00   0.172994801848712E+00
   LPB:    0  -0.343585089852172E+00   0.172700769340781E+00   0.108588E-03   0.000000E+00   0.283660E+02   0.308019E-02
   LPB:    1  -0.343513605139722E+00   0.178495184092849E-01   0.882871E-02   0.000000E+00   0.614257E+02   0.668389E-19
   LPB:    2  -0.343506179299052E+00   0.344283000412485E-02   0.169898E-01   0.539811E-01   0.104831E+03  -0.474477E-17
   LPB:    3  -0.343505253640456E+00   0.167502630307145E-02   0.220337E-01   0.961180E-01   0.166373E+03  -0.207421E-16
   LPB:    4  -0.343504955980411E+00   0.905393845774025E-03   0.281692E-01   0.251527E+00   0.277795E+03  -0.217088E-16
   LPB:    5  -0.343504840056970E+00   0.947788969821669E-03   0.285643E-01   0.384062E+00   0.289186E+03  -0.291442E-16
   LPB:    6  -0.343504783344693E+00   0.921441158569807E-03   0.264571E-01   0.528185E+00   0.192511E+03  -0.342207E-16
   LPB:    7  -0.343504750201495E+00   0.613244669465107E-03   0.259748E-01   0.595261E+00   0.174438E+03  -0.391427E-16
   LPB:    8  -0.343504727356311E+00   0.253299761452517E-03   0.311095E-01   0.575519E+00   0.221431E+03  -0.456456E-16
   LPB:    9  -0.343504712110703E+00   0.118194816361905E-03   0.373744E-01   0.555481E+00   0.586403E+03  -0.486530E-16
   LPB:   10  -0.343504702158151E+00   0.690959634962962E-04   0.393286E-01   0.620376E+00   0.646269E+03  -0.517973E-16
  Finished solving LPB equations
  A_corr:   -0.270356241664456     
 End minimization
 Ecorr=   1704.28693525939     
 A_corr= -0.270356241664456     
 Ecorr_band=  -1704.55729150105     
 End Solvation calculations
RMM:   2    -0.138188320325E+03   -0.31474E-03   -0.58721E-04  8596   0.598E-02    0.160E-01
 Begin Solvation calculations
  rms_SCF =   1.094771110350072E-003 tol =   1.094771110350072E-004
 Begin minimization
 Creating dielectric and ionic cavities
  area:      139.326351082333     
  volume:    651.098420873111     
  Acav:     7.314633431822506E-002
  Solving linear dielectric/ionic screening model
        iter                  A_solv                     rms
   LPB:       -0.343571716448406E+00   0.163287961993727E+00
   LPB:    0  -0.343571579572370E+00   0.163142465503102E+00   0.982384E-04   0.000000E+00   0.283658E+02   0.278661E-02
   LPB:    1  -0.343508150224319E+00   0.155061915563672E-01   0.877145E-02   0.000000E+00   0.619481E+02  -0.452772E-19
   LPB:    2  -0.343502696493902E+00   0.336828321437872E-02   0.160204E-01   0.470761E-01   0.116815E+03   0.144223E-17
   LPB:    3  -0.343501993520911E+00   0.175390506547775E-02   0.219620E-01   0.940257E-01   0.138326E+03   0.219737E-17
   LPB:    4  -0.343501785624118E+00   0.133823092145669E-02   0.269702E-01   0.240822E+00   0.194886E+03   0.792844E-18
   LPB:    5  -0.343501698429358E+00   0.105997789633096E-02   0.241283E-01   0.468813E+00   0.203554E+03   0.813902E-17
   LPB:    6  -0.343501647964105E+00   0.623723759558033E-03   0.264143E-01   0.528676E+00   0.178268E+03   0.175428E-16
   LPB:    7  -0.343501619470552E+00   0.320268716701765E-03   0.288671E-01   0.516643E+00   0.303120E+03   0.353429E-16
   LPB:    8  -0.343501602313493E+00   0.130742493062057E-03   0.339466E-01   0.512038E+00   0.437494E+03   0.431412E-16
   LPB:    9  -0.343501591813654E+00   0.716960739728384E-04   0.377645E-01   0.550115E+00   0.905835E+03   0.502956E-16
  Finished solving LPB equations
  A_corr:   -0.270355257495429     
 End minimization
 Ecorr=   1704.24789343639     
 A_corr= -0.270355257495429     
 Ecorr_band=  -1704.51824869389     
 End Solvation calculations
RMM:   3    -0.138188035513E+03    0.28481E-03   -0.15226E-04  7367   0.478E-02    0.271E-02
 Begin Solvation calculations
  rms_SCF =   1.094771110350072E-003 tol =   1.094771110350072E-004
 Begin minimization
 Creating dielectric and ionic cavities
  area:      139.323430189125     
  volume:    651.096341164302     
  Acav:     7.314480084929052E-002
  Solving linear dielectric/ionic screening model
        iter                  A_solv                     rms
   LPB:       -0.343497218879732E+00   0.952631600517779E-02
   LPB:    0  -0.343497212215592E+00   0.938709029679443E-02  -0.216765E-04   0.000000E+00   0.283659E+02  -0.614873E-03
   LPB:    1  -0.343496967132687E+00   0.896296892580464E-03   0.913165E-02   0.000000E+00   0.665189E+02   0.430752E-19
   LPB:    2  -0.343496926925560E+00   0.425970098260108E-03   0.199461E-01   0.751070E-01   0.207007E+03   0.455270E-18
   LPB:    3  -0.343496906338861E+00   0.554250833210964E-03   0.324161E-01   0.315051E+00   0.198991E+03   0.487093E-18
   LPB:    4  -0.343496894136962E+00   0.463844605353949E-03   0.297419E-01   0.646002E+00   0.158067E+03   0.277701E-17
   LPB:    5  -0.343496887210927E+00   0.219053834960433E-03   0.244184E-01   0.691365E+00   0.269177E+03   0.301849E-17
   LPB:    6  -0.343496882899717E+00   0.122666708648605E-03   0.300530E-01   0.505759E+00   0.768082E+03  -0.108671E-17
   LPB:    7  -0.343496879569121E+00   0.989627024427795E-04   0.375286E-01   0.618656E+00   0.701675E+03  -0.255716E-17
  Finished solving LPB equations
  A_corr:   -0.270352078719830     
 End minimization
 Ecorr=   1704.25674167982     
 A_corr= -0.270352078719830     
 Ecorr_band=  -1704.52709375854     
 End Solvation calculations
RMM:   4    -0.138188030091E+03    0.54219E-05   -0.24273E-05  6625   0.218E-02
 Begin Solvation calculations
  rms_SCF =   1.094771110350072E-003 tol =   1.094771110350072E-004
 Begin minimization
 Creating dielectric and ionic cavities
  area:      139.322959184335     
  volume:    651.098481793309     
  Acav:     7.314455357177563E-002
  Solving linear dielectric/ionic screening model
        iter                  A_solv                     rms
   LPB:       -0.343446101757608E+00   0.145015873215199E-01
   LPB:    0  -0.343445977211215E+00   0.125643553108964E-01   0.937094E-04   0.000000E+00   0.283658E+02   0.265814E-02
   LPB:    1  -0.343445302750021E+00   0.266839384282728E-02   0.105015E-01   0.000000E+00   0.748925E+02  -0.154833E-18
   LPB:    2  -0.343445199827361E+00   0.459618761502604E-03   0.141242E-01   0.113459E+00   0.245505E+03   0.125661E-17
   LPB:    3  -0.343445175639839E+00   0.374558018044197E-03   0.246161E-01   0.134842E+00   0.542217E+03   0.353779E-17
   LPB:    4  -0.343445167618622E+00   0.368335879606532E-03   0.251307E-01   0.324835E+00   0.160431E+03   0.273314E-17
   LPB:    5  -0.343445163215751E+00   0.227686446583980E-03   0.243411E-01   0.566710E+00   0.212776E+03   0.264789E-17
   LPB:    6  -0.343445160062885E+00   0.117020363272725E-03   0.328234E-01   0.531038E+00   0.204671E+03   0.344564E-17
   LPB:    7  -0.343445157763531E+00   0.712317094805909E-04   0.369392E-01   0.648031E+00   0.674731E+03   0.526213E-17
  Finished solving LPB equations
  A_corr:   -0.270300604191755     
 End minimization
 Ecorr=   1704.25422273449     
 A_corr= -0.270300604191755     
 Ecorr_band=  -1704.52452333868     
 End Solvation calculations
  87 F= -.13818803E+03 E0= -.13818270E+03  d E =0.247072E-04
quench:  g(F)=  0.000E+00 g(S)=  0.000E+00 dE (1.order)= 0.000E+00
 bond charge predicted
       N       E                     dE             d eps       ncg     rms          rms(c)
 Begin Solvation calculations
  rms_SCF =   1.094771110350072E-003 tol =   1.094771110350072E-004
 Begin minimization
 Creating dielectric and ionic cavities
  area:      139.326457213607     
  volume:    651.093581071754     
  Acav:     7.314639003714347E-002
  Solving linear dielectric/ionic screening model
        iter                  A_solv                     rms
   LPB:       -0.343506858983400E+00   0.576906562446356E-03
   LPB:    0  -0.343506858978451E+00   0.589093500753170E-03  -0.590686E-06   0.000000E+00   0.283660E+02  -0.167554E-04
   LPB:    1  -0.343480814607618E+00   0.237645830863776E-03   0.159497E-01   0.000000E+00   0.495036E+06  -0.126675E-21
   LPB:    2  -0.343478072911263E+00   0.266813439507641E-03   0.269586E-01   0.622817E-01   0.120377E+06   0.134165E-18
   LPB:    3  -0.343477222250478E+00   0.623543044387158E-03   0.321024E-01   0.260553E+00   0.304486E+05   0.260603E-18
   LPB:    4  -0.343476870553678E+00   0.170772189503943E-02   0.340201E-01   0.390135E+00   0.206138E+04   0.379042E-18
   LPB:    5  -0.343476730272034E+00   0.286202806176651E-02   0.256627E-01   0.528769E+00   0.209860E+03   0.435434E-18
   LPB:    6  -0.343476641105373E+00   0.100762680155292E-02   0.188052E-01   0.867411E+00   0.189878E+03   0.422558E-18
   LPB:    7  -0.343476569838893E+00   0.204013345871207E-03   0.340265E-01   0.441717E+00   0.137262E+04   0.105751E-17
   LPB:    8  -0.343476527421001E+00   0.204306456768214E-03   0.393276E-01   0.514972E+00   0.634320E+04   0.362374E-17
   LPB:    9  -0.343476502122953E+00   0.428944262221096E-03   0.384925E-01   0.609341E+00   0.784604E+03   0.423689E-17
   LPB:   10  -0.343476488313127E+00   0.601967131451699E-03   0.302704E-01   0.694159E+00   0.198998E+03   0.494298E-17
   LPB:   11  -0.343476478643452E+00   0.299199428818542E-03   0.255840E-01   0.828463E+00   0.164841E+03   0.104196E-17
   LPB:   12  -0.343476470647492E+00   0.100795810634664E-03   0.356537E-01   0.593366E+00   0.876405E+03  -0.436783E-17
  Finished solving LPB equations
  A_corr:   -0.270330080610349     
 End minimization
 Ecorr=   1704.25552352926     
 A_corr= -0.270330080610349     
 Ecorr_band=  -1704.52585360987     
 End Solvation calculations
DAV:   1    -0.138188009106E+03    0.26407E-04   -0.31122E-03 11226   0.142E-01    0.201E-02
 Begin Solvation calculations
  rms_SCF =   1.094771110350072E-003 tol =   1.094771110350072E-004
 Begin minimization
 Creating dielectric and ionic cavities
  area:      139.322480670406     
  volume:    651.086845542100     
  Acav:     7.314430235196334E-002
  Solving linear dielectric/ionic screening model
        iter                  A_solv                     rms
   LPB:       -0.343506752333893E+00   0.611844489158325E-01
   LPB:    0  -0.343506551495216E+00   0.605234380079106E-01  -0.118997E-03   0.000000E+00   0.283663E+02  -0.337552E-02
   LPB:    1  -0.343497327650846E+00   0.532853178162851E-02   0.889954E-02   0.000000E+00   0.634844E+02   0.106752E-18
   LPB:    2  -0.343496509976958E+00   0.124707559966205E-02   0.153874E-01   0.512708E-01   0.166846E+03   0.390295E-17
   LPB:    3  -0.343496382631180E+00   0.857259164455396E-03   0.235485E-01   0.101767E+00   0.190253E+03   0.372763E-18
   LPB:    4  -0.343496344033609E+00   0.698958752815614E-03   0.253452E-01   0.281606E+00   0.183913E+03  -0.484199E-17
   LPB:    5  -0.343496325537158E+00   0.426883667590886E-03   0.234997E-01   0.516848E+00   0.240031E+03  -0.493192E-17
   LPB:    6  -0.343496314596483E+00   0.254364412609634E-03   0.288156E-01   0.482381E+00   0.229440E+03  -0.522113E-17
   LPB:    7  -0.343496307858275E+00   0.136972239593378E-03   0.318205E-01   0.557726E+00   0.373410E+03  -0.537682E-18
   LPB:    8  -0.343496303295872E+00   0.615717927438052E-04   0.365666E-01   0.589213E+00   0.624729E+03   0.400761E-17
  Finished solving LPB equations
  A_corr:   -0.270352000943909     
 End minimization
 Ecorr=   1704.27512012233     
 A_corr= -0.270352000943909     
 Ecorr_band=  -1704.54547212327     
 End Solvation calculations
RMM:   2    -0.138188060501E+03   -0.51395E-04   -0.39895E-04  7967   0.624E-02
 Begin Solvation calculations
  rms_SCF =   1.094771110350072E-003 tol =   1.094771110350072E-004
 Begin minimization
 Creating dielectric and ionic cavities
  area:      139.320777955427     
  volume:    651.088587534363     
  Acav:     7.314340842659933E-002
  Solving linear dielectric/ionic screening model
        iter                  A_solv                     rms
   LPB:       -0.343522037931073E+00   0.653965253197019E-01
   LPB:    0  -0.343522029194150E+00   0.653801306558123E-01   0.248195E-04   0.000000E+00   0.283663E+02   0.704037E-03
   LPB:    1  -0.343511877318460E+00   0.625370798394770E-02   0.875803E-02   0.000000E+00   0.619253E+02  -0.229173E-19
   LPB:    2  -0.343511012772059E+00   0.132453635218942E-02   0.160367E-01   0.465087E-01   0.113721E+03  -0.202388E-19
   LPB:    3  -0.343510906394910E+00   0.628830003250617E-03   0.216809E-01   0.910116E-01   0.135885E+03  -0.241480E-18
   LPB:    4  -0.343510875768898E+00   0.482174264024681E-03   0.272887E-01   0.228737E+00   0.208339E+03   0.871593E-17
   LPB:    5  -0.343510863699423E+00   0.388581031659286E-03   0.238551E-01   0.450816E+00   0.196383E+03   0.865487E-17
   LPB:    6  -0.343510857434307E+00   0.234877697008792E-03   0.251919E-01   0.491543E+00   0.173610E+03   0.136591E-16
   LPB:    7  -0.343510853858689E+00   0.122049753840292E-03   0.287487E-01   0.500110E+00   0.262877E+03   0.161027E-16
   LPB:    8  -0.343510851491874E+00   0.547375125299018E-04   0.352536E-01   0.539794E+00   0.400346E+03   0.186984E-16
  Finished solving LPB equations
  A_corr:   -0.270367443065274     
 End minimization
 Ecorr=   1704.25653040941     
 A_corr= -0.270367443065274     
 Ecorr_band=  -1704.52689785248     
 End Solvation calculations
  88 F= -.13818806E+03 E0= -.13818278E+03  d E =-.304105E-04
quench:  g(F)=  0.000E+00 g(S)=  0.000E+00 dE (1.order)= 0.000E+00
 reached required accuracy - stopping structural energy minimisation
