 vasp.5.4.4.18Apr17-6-g9f103f2a35 (build Feb 06 2024 13:54:16) complex          
  
 POSCAR found type information on POSCAR  Cu Pd Cu N  O 
 05/POSCAR found :  5 types and      40 ions
 scaLAPACK will be used

 ----------------------------------------------------------------------------- 
|                                                                             |
|  ADVICE TO THIS USER RUNNING 'VASP/VAMP'   (HEAR YOUR MASTER'S VOICE ...):  |
|                                                                             |
|      You enforced a specific xc-type in the INCAR file,                     |
|      a different type was found on the POTCAR file                          |
|          I HOPE YOU KNOW, WHAT YOU ARE  DOING                               |
|                                                                             |
 ----------------------------------------------------------------------------- 

 LDA part: xc-table for Pade appr. of Perdew
 POSCAR found type information on POSCAR  Cu Pd Cu N  O 
 00/POSCAR found :  5 types and      40 ions
 POSCAR found type information on POSCAR  Cu Pd Cu N  O 
 06/POSCAR found :  5 types and      40 ions
 Jacobian:    20.5888137679208     
 POSCAR, INCAR and KPOINTS ok, starting setup
 FFT: planning ...
 WAVECAR not read
 entering main loop
       N       E                     dE             d eps       ncg     rms          rms(c)
DAV:   1     0.350381036179E+04    0.35038E+04   -0.12916E+05  1008   0.131E+03
DAV:   2     0.362496172998E+03   -0.31413E+04   -0.30187E+04  1008   0.370E+02
DAV:   3    -0.909699928218E+02   -0.45347E+03   -0.41167E+03  1296   0.177E+02
DAV:   4    -0.159879410737E+03   -0.68909E+02   -0.64893E+02  1566   0.668E+01
DAV:   5    -0.162847690900E+03   -0.29683E+01   -0.28799E+01  1485   0.173E+01    0.428E+01
RMM:   6    -0.163546630446E+03   -0.69894E+00   -0.35180E+02  1018   0.874E+01    0.438E+01
RMM:   7    -0.163379113316E+03    0.16752E+00   -0.10876E+02  1041   0.396E+01    0.337E+01
RMM:   8    -0.145892743775E+03    0.17486E+02   -0.12360E+01  1023   0.139E+01    0.241E+01
RMM:   9    -0.141446913231E+03    0.44458E+01   -0.49169E+00  1023   0.945E+00    0.154E+01
RMM:  10    -0.137676534690E+03    0.37704E+01   -0.10381E+01  1026   0.107E+01    0.115E+01
RMM:  11    -0.135944715473E+03    0.17318E+01   -0.41541E+00  1026   0.779E+00    0.544E+00
RMM:  12    -0.135502613993E+03    0.44210E+00   -0.98100E-01  1021   0.370E+00    0.405E+00
RMM:  13    -0.135328548794E+03    0.17407E+00   -0.33831E-01  1024   0.198E+00    0.300E+00
RMM:  14    -0.135392630027E+03   -0.64081E-01   -0.53548E-01  1026   0.231E+00    0.352E+00
RMM:  15    -0.135264189027E+03    0.12844E+00   -0.78501E-02  1028   0.926E-01    0.212E+00
RMM:  16    -0.135218727533E+03    0.45461E-01   -0.13382E-01  1027   0.114E+00    0.171E+00
RMM:  17    -0.135175228433E+03    0.43499E-01   -0.56164E-02  1024   0.758E-01    0.856E-01
RMM:  18    -0.135172976232E+03    0.22522E-02   -0.13579E-02  1022   0.422E-01    0.728E-01
RMM:  19    -0.135167695867E+03    0.52804E-02   -0.55617E-03  1028   0.252E-01    0.466E-01
RMM:  20    -0.135165673826E+03    0.20220E-02   -0.37666E-03  1031   0.185E-01    0.279E-01
RMM:  21    -0.135164854387E+03    0.81944E-03   -0.46781E-03  1025   0.186E-01    0.122E-01
RMM:  22    -0.135164976069E+03   -0.12168E-03   -0.12638E-03  1219   0.760E-02    0.833E-02
RMM:  23    -0.135165464485E+03   -0.48842E-03   -0.42863E-04  1029   0.442E-02    0.660E-02
RMM:  24    -0.135165866240E+03   -0.40176E-03   -0.15902E-04  1004   0.342E-02    0.484E-02
RMM:  25    -0.135166567865E+03   -0.70162E-03   -0.28587E-04  1020   0.448E-02    0.551E-02
RMM:  26    -0.135166873698E+03   -0.30583E-03   -0.93090E-05   891   0.250E-02    0.544E-02
RMM:  27    -0.135167048423E+03   -0.17472E-03   -0.41322E-05   666   0.166E-02    0.414E-02
RMM:  28    -0.135167216430E+03   -0.16801E-03   -0.47123E-05   716   0.203E-02    0.247E-02
RMM:  29    -0.135167307781E+03   -0.91351E-04   -0.29520E-05   628   0.167E-02    0.122E-02
RMM:  30    -0.135167316007E+03   -0.82265E-05   -0.11445E-05   592   0.124E-02
   1 F= -.13516732E+03 E0= -.13516344E+03  d E =-.135167E+03
quench:  g(F)=  0.000E+00 g(S)=  0.000E+00 dE (1.order)= 0.000E+00
 bond charge predicted
       N       E                     dE             d eps       ncg     rms          rms(c)
DAV:   1    -0.135167279584E+03    0.28197E-04   -0.24489E-03  1044   0.999E-02    0.161E-02
RMM:   2    -0.135167375320E+03   -0.95736E-04   -0.14256E-04   988   0.306E-02    0.260E-02
RMM:   3    -0.135167412986E+03   -0.37666E-04   -0.15512E-05   568   0.170E-02    0.126E-02
RMM:   4    -0.135167417746E+03   -0.47600E-05   -0.57114E-06   552   0.928E-03
   2 F= -.13516742E+03 E0= -.13516355E+03  d E =-.101739E-03
quench:  g(F)=  0.000E+00 g(S)=  0.000E+00 dE (1.order)= 0.000E+00
 bond charge predicted
       N       E                     dE             d eps       ncg     rms          rms(c)
DAV:   1    -0.135167312717E+03    0.10027E-03   -0.65957E-03  1062   0.169E-01    0.216E-02
RMM:   2    -0.135167344053E+03   -0.31337E-04   -0.28498E-04  1295   0.400E-02    0.953E-03
RMM:   3    -0.135167348838E+03   -0.47848E-05   -0.13830E-05   570   0.149E-02
   3 F= -.13516735E+03 E0= -.13516347E+03  d E =0.689075E-04
quench:  g(F)=  0.000E+00 g(S)=  0.000E+00 dE (1.order)= 0.000E+00
 bond charge predicted
       N       E                     dE             d eps       ncg     rms          rms(c)
DAV:   1    -0.135167165477E+03    0.17858E-03   -0.12676E-02  1053   0.241E-01    0.329E-02
RMM:   2    -0.135167231925E+03   -0.66449E-04   -0.64157E-04  1380   0.563E-02    0.277E-02
RMM:   3    -0.135167223177E+03    0.87488E-05   -0.36046E-05   653   0.173E-02
   4 F= -.13516722E+03 E0= -.13516336E+03  d E =0.125662E-03
quench:  g(F)=  0.000E+00 g(S)=  0.000E+00 dE (1.order)= 0.000E+00
 bond charge predicted
       N       E                     dE             d eps       ncg     rms          rms(c)
DAV:   1    -0.135167009252E+03    0.22267E-03   -0.15476E-02  1089   0.280E-01    0.366E-02
RMM:   2    -0.135167097487E+03   -0.88234E-04   -0.89747E-04  1384   0.655E-02    0.268E-02
RMM:   3    -0.135167098438E+03   -0.95109E-06   -0.60353E-05   791   0.249E-02
   5 F= -.13516710E+03 E0= -.13516322E+03  d E =0.124739E-03
quench:  g(F)=  0.000E+00 g(S)=  0.000E+00 dE (1.order)= 0.000E+00
 bond charge predicted
       N       E                     dE             d eps       ncg     rms          rms(c)
DAV:   1    -0.135167022708E+03    0.74779E-04   -0.50807E-03  1368   0.194E-01    0.270E-02
RMM:   2    -0.135167062753E+03   -0.40045E-04   -0.37143E-04  1105   0.395E-02    0.282E-02
RMM:   3    -0.135167051043E+03    0.11710E-04   -0.24581E-05   624   0.166E-02    0.158E-02
RMM:   4    -0.135167053288E+03   -0.22457E-05   -0.69070E-06   547   0.108E-02
   6 F= -.13516705E+03 E0= -.13516319E+03  d E =0.451495E-04
quench:  g(F)=  0.000E+00 g(S)=  0.000E+00 dE (1.order)= 0.000E+00
 bond charge predicted
       N       E                     dE             d eps       ncg     rms          rms(c)
DAV:   1    -0.135166979935E+03    0.71108E-04   -0.41320E-03  1188   0.153E-01    0.195E-02
RMM:   2    -0.135167019992E+03   -0.40057E-04   -0.20407E-04  1106   0.340E-02    0.337E-02
RMM:   3    -0.135166994039E+03    0.25952E-04   -0.20504E-05   606   0.154E-02    0.133E-02
RMM:   4    -0.135166994715E+03   -0.67573E-06   -0.70658E-06   541   0.132E-02
   7 F= -.13516699E+03 E0= -.13516313E+03  d E =0.585733E-04
quench:  g(F)=  0.000E+00 g(S)=  0.000E+00 dE (1.order)= 0.000E+00
 bond charge predicted
       N       E                     dE             d eps       ncg     rms          rms(c)
DAV:   1    -0.135166858620E+03    0.13542E-03   -0.85502E-03  1026   0.190E-01    0.251E-02
RMM:   2    -0.135166893378E+03   -0.34758E-04   -0.38750E-04  1376   0.455E-02    0.145E-02
RMM:   3    -0.135166889446E+03    0.39322E-05   -0.20008E-05   585   0.133E-02
   8 F= -.13516689E+03 E0= -.13516304E+03  d E =0.105269E-03
quench:  g(F)=  0.000E+00 g(S)=  0.000E+00 dE (1.order)= 0.000E+00
 bond charge predicted
       N       E                     dE             d eps       ncg     rms          rms(c)
DAV:   1    -0.135166683726E+03    0.20965E-03   -0.13364E-02  1026   0.237E-01    0.318E-02
RMM:   2    -0.135166739649E+03   -0.55923E-04   -0.63334E-04  1430   0.567E-02    0.181E-02
RMM:   3    -0.135166743151E+03   -0.35023E-05   -0.36037E-05   659   0.213E-02
   9 F= -.13516674E+03 E0= -.13516288E+03  d E =0.146295E-03
quench:  g(F)=  0.000E+00 g(S)=  0.000E+00 dE (1.order)= 0.000E+00
 bond charge predicted
       N       E                     dE             d eps       ncg     rms          rms(c)
DAV:   1    -0.135166609778E+03    0.12987E-03   -0.84596E-03  1305   0.217E-01    0.307E-02
RMM:   2    -0.135166667092E+03   -0.57314E-04   -0.51803E-04  1214   0.434E-02    0.338E-02
RMM:   3    -0.135166652754E+03    0.14338E-04   -0.32258E-05   653   0.155E-02    0.271E-02
RMM:   4    -0.135166645974E+03    0.67800E-05   -0.14428E-05   554   0.173E-02
  10 F= -.13516665E+03 E0= -.13516280E+03  d E =0.971769E-04
quench:  g(F)=  0.000E+00 g(S)=  0.000E+00 dE (1.order)= 0.000E+00
 bond charge predicted
       N       E                     dE             d eps       ncg     rms          rms(c)
DAV:   1    -0.135166594785E+03    0.57969E-04   -0.35037E-03  1287   0.141E-01    0.182E-02
RMM:   2    -0.135166615907E+03   -0.21122E-04   -0.17809E-04   968   0.300E-02    0.206E-02
RMM:   3    -0.135166610454E+03    0.54528E-05   -0.17831E-05   568   0.167E-02
  11 F= -.13516661E+03 E0= -.13516276E+03  d E =0.355199E-04
quench:  g(F)=  0.000E+00 g(S)=  0.000E+00 dE (1.order)= 0.000E+00
 bond charge predicted
       N       E                     dE             d eps       ncg     rms          rms(c)
DAV:   1    -0.135166496135E+03    0.11977E-03   -0.53453E-03  1008   0.162E-01    0.208E-02
RMM:   2    -0.135166521245E+03   -0.25110E-04   -0.27976E-04  1217   0.406E-02    0.133E-02
RMM:   3    -0.135166518605E+03    0.26398E-05   -0.22613E-05   577   0.168E-02
  12 F= -.13516652E+03 E0= -.13516268E+03  d E =0.918487E-04
quench:  g(F)=  0.000E+00 g(S)=  0.000E+00 dE (1.order)= 0.000E+00
 bond charge predicted
       N       E                     dE             d eps       ncg     rms          rms(c)
DAV:   1    -0.135166331219E+03    0.19003E-03   -0.94274E-03  1008   0.202E-01    0.275E-02
RMM:   2    -0.135166378120E+03   -0.46901E-04   -0.46254E-04  1391   0.478E-02    0.242E-02
RMM:   3    -0.135166374547E+03    0.35725E-05   -0.29722E-05   636   0.169E-02
  13 F= -.13516637E+03 E0= -.13516253E+03  d E =0.144058E-03
quench:  g(F)=  0.000E+00 g(S)=  0.000E+00 dE (1.order)= 0.000E+00
 bond charge predicted
       N       E                     dE             d eps       ncg     rms          rms(c)
DAV:   1    -0.135166226553E+03    0.15157E-03   -0.84490E-03  1134   0.206E-01    0.281E-02
RMM:   2    -0.135166272027E+03   -0.45474E-04   -0.49980E-04  1241   0.456E-02    0.201E-02
RMM:   3    -0.135166266714E+03    0.53126E-05   -0.22676E-05   609   0.151E-02
  14 F= -.13516627E+03 E0= -.13516244E+03  d E =0.107833E-03
quench:  g(F)=  0.000E+00 g(S)=  0.000E+00 dE (1.order)= 0.000E+00
 bond charge predicted
       N       E                     dE             d eps       ncg     rms          rms(c)
DAV:   1    -0.135166189527E+03    0.82500E-04   -0.39077E-03  1134   0.139E-01    0.204E-02
RMM:   2    -0.135166237001E+03   -0.47474E-04   -0.23538E-04  1106   0.335E-02    0.389E-02
RMM:   3    -0.135166204387E+03    0.32614E-04   -0.20770E-05   608   0.154E-02    0.123E-02
RMM:   4    -0.135166206427E+03   -0.20396E-05   -0.72081E-06   542   0.122E-02
  15 F= -.13516621E+03 E0= -.13516236E+03  d E =0.602872E-04
quench:  g(F)=  0.000E+00 g(S)=  0.000E+00 dE (1.order)= 0.000E+00
 bond charge predicted
       N       E                     dE             d eps       ncg     rms          rms(c)
DAV:   1    -0.135166093968E+03    0.11042E-03   -0.48634E-03  1008   0.145E-01    0.201E-02
RMM:   2    -0.135166116491E+03   -0.22524E-04   -0.23297E-04  1197   0.343E-02    0.150E-02
RMM:   3    -0.135166115772E+03    0.71906E-06   -0.15816E-05   572   0.149E-02
  16 F= -.13516612E+03 E0= -.13516227E+03  d E =0.906547E-04
quench:  g(F)=  0.000E+00 g(S)=  0.000E+00 dE (1.order)= 0.000E+00
 bond charge predicted
       N       E                     dE             d eps       ncg     rms          rms(c)
DAV:   1    -0.135165914477E+03    0.20201E-03   -0.93821E-03  1026   0.215E-01    0.282E-02
RMM:   2    -0.135165962525E+03   -0.48049E-04   -0.50595E-04  1327   0.520E-02    0.212E-02
RMM:   3    -0.135165960133E+03    0.23925E-05   -0.36966E-05   685   0.219E-02
  17 F= -.13516596E+03 E0= -.13516211E+03  d E =0.155640E-03
quench:  g(F)=  0.000E+00 g(S)=  0.000E+00 dE (1.order)= 0.000E+00
 bond charge predicted
       N       E                     dE             d eps       ncg     rms          rms(c)
DAV:   1    -0.135165750718E+03    0.21181E-03   -0.10179E-02  1134   0.223E-01    0.339E-02
RMM:   2    -0.135165812730E+03   -0.62012E-04   -0.62455E-04  1214   0.538E-02    0.336E-02
RMM:   3    -0.135165795968E+03    0.16762E-04   -0.45357E-05   717   0.223E-02    0.245E-02
RMM:   4    -0.135165793243E+03    0.27255E-05   -0.11950E-05   559   0.148E-02
  18 F= -.13516579E+03 E0= -.13516196E+03  d E =0.166890E-03
quench:  g(F)=  0.000E+00 g(S)=  0.000E+00 dE (1.order)= 0.000E+00
 bond charge predicted
       N       E                     dE             d eps       ncg     rms          rms(c)
DAV:   1    -0.135165699252E+03    0.96716E-04   -0.53513E-03  1206   0.167E-01    0.234E-02
RMM:   2    -0.135165734965E+03   -0.35713E-04   -0.29823E-04  1136   0.351E-02    0.276E-02
RMM:   3    -0.135165724535E+03    0.10429E-04   -0.22716E-05   613   0.162E-02    0.207E-02
RMM:   4    -0.135165721224E+03    0.33112E-05   -0.94198E-06   548   0.134E-02
  19 F= -.13516572E+03 E0= -.13516189E+03  d E =0.720185E-04
quench:  g(F)=  0.000E+00 g(S)=  0.000E+00 dE (1.order)= 0.000E+00
 bond charge predicted
       N       E                     dE             d eps       ncg     rms          rms(c)
DAV:   1    -0.135165611475E+03    0.11306E-03   -0.45479E-03  1035   0.145E-01    0.195E-02
RMM:   2    -0.135165636400E+03   -0.24926E-04   -0.22119E-04  1174   0.332E-02    0.187E-02
RMM:   3    -0.135165632835E+03    0.35651E-05   -0.17204E-05   582   0.140E-02
  20 F= -.13516563E+03 E0= -.13516180E+03  d E =0.883892E-04
quench:  g(F)=  0.000E+00 g(S)=  0.000E+00 dE (1.order)= 0.000E+00
 bond charge predicted
       N       E                     dE             d eps       ncg     rms          rms(c)
DAV:   1    -0.135165444890E+03    0.19151E-03   -0.79688E-03  1035   0.198E-01    0.258E-02
RMM:   2    -0.135165483450E+03   -0.38560E-04   -0.43609E-04  1353   0.470E-02    0.153E-02
RMM:   3    -0.135165477419E+03    0.60307E-05   -0.26660E-05   597   0.197E-02
  21 F= -.13516548E+03 E0= -.13516163E+03  d E =0.155416E-03
quench:  g(F)=  0.000E+00 g(S)=  0.000E+00 dE (1.order)= 0.000E+00
 bond charge predicted
       N       E                     dE             d eps       ncg     rms          rms(c)
DAV:   1    -0.135165300783E+03    0.18267E-03   -0.82156E-03  1071   0.190E-01    0.281E-02
RMM:   2    -0.135165343486E+03   -0.42702E-04   -0.46491E-04  1290   0.435E-02    0.210E-02
RMM:   3    -0.135165339603E+03    0.38826E-05   -0.25796E-05   622   0.186E-02
  22 F= -.13516534E+03 E0= -.13516151E+03  d E =0.137816E-03
quench:  g(F)=  0.000E+00 g(S)=  0.000E+00 dE (1.order)= 0.000E+00
 bond charge predicted
       N       E                     dE             d eps       ncg     rms          rms(c)
DAV:   1    -0.135165246747E+03    0.96738E-04   -0.39760E-03  1314   0.167E-01    0.219E-02
RMM:   2    -0.135165289474E+03   -0.42727E-04   -0.25782E-04  1054   0.320E-02    0.356E-02
RMM:   3    -0.135165266468E+03    0.23006E-04   -0.21047E-05   619   0.141E-02    0.173E-02
RMM:   4    -0.135165265184E+03    0.12844E-05   -0.10304E-05   538   0.153E-02
  23 F= -.13516527E+03 E0= -.13516144E+03  d E =0.744195E-04
quench:  g(F)=  0.000E+00 g(S)=  0.000E+00 dE (1.order)= 0.000E+00
 bond charge predicted
       N       E                     dE             d eps       ncg     rms          rms(c)
DAV:   1    -0.135165149736E+03    0.11673E-03   -0.40583E-03  1017   0.135E-01    0.179E-02
RMM:   2    -0.135165168471E+03   -0.18735E-04   -0.18641E-04  1132   0.302E-02    0.135E-02
RMM:   3    -0.135165170542E+03   -0.20710E-05   -0.12623E-05   571   0.128E-02
  24 F= -.13516517E+03 E0= -.13516135E+03  d E =0.946415E-04
quench:  g(F)=  0.000E+00 g(S)=  0.000E+00 dE (1.order)= 0.000E+00
 bond charge predicted
       N       E                     dE             d eps       ncg     rms          rms(c)
DAV:   1    -0.135164963418E+03    0.20505E-03   -0.78991E-03  1017   0.196E-01    0.258E-02
RMM:   2    -0.135165003117E+03   -0.39698E-04   -0.43807E-04  1360   0.465E-02    0.161E-02
RMM:   3    -0.135165003669E+03   -0.55281E-06   -0.23976E-05   611   0.158E-02
  25 F= -.13516500E+03 E0= -.13516119E+03  d E =0.166873E-03
quench:  g(F)=  0.000E+00 g(S)=  0.000E+00 dE (1.order)= 0.000E+00
 bond charge predicted
       N       E                     dE             d eps       ncg     rms          rms(c)
DAV:   1    -0.135164785317E+03    0.21780E-03   -0.94695E-03  1089   0.216E-01    0.294E-02
RMM:   2    -0.135164835756E+03   -0.50439E-04   -0.55154E-04  1318   0.485E-02    0.190E-02
RMM:   3    -0.135164831205E+03    0.45503E-05   -0.24402E-05   616   0.166E-02
  26 F= -.13516483E+03 E0= -.13516102E+03  d E =0.172464E-03
quench:  g(F)=  0.000E+00 g(S)=  0.000E+00 dE (1.order)= 0.000E+00
 bond charge predicted
       N       E                     dE             d eps       ncg     rms          rms(c)
DAV:   1    -0.135164736178E+03    0.99578E-04   -0.40863E-03  1305   0.169E-01    0.217E-02
RMM:   2    -0.135164776556E+03   -0.40379E-04   -0.26781E-04  1052   0.332E-02    0.323E-02
RMM:   3    -0.135164757629E+03    0.18927E-04   -0.19727E-05   613   0.139E-02    0.178E-02
RMM:   4    -0.135164755994E+03    0.16351E-05   -0.90754E-06   538   0.142E-02
  27 F= -.13516476E+03 E0= -.13516094E+03  d E =0.752111E-04
quench:  g(F)=  0.000E+00 g(S)=  0.000E+00 dE (1.order)= 0.000E+00
 bond charge predicted
       N       E                     dE             d eps       ncg     rms          rms(c)
DAV:   1    -0.135164652031E+03    0.10560E-03   -0.34050E-03  1035   0.125E-01    0.165E-02
RMM:   2    -0.135164668268E+03   -0.16236E-04   -0.15587E-04  1069   0.284E-02    0.128E-02
RMM:   3    -0.135164669647E+03   -0.13792E-05   -0.13865E-05   564   0.145E-02
  28 F= -.13516467E+03 E0= -.13516086E+03  d E =0.863474E-04
quench:  g(F)=  0.000E+00 g(S)=  0.000E+00 dE (1.order)= 0.000E+00
 bond charge predicted
       N       E                     dE             d eps       ncg     rms          rms(c)
DAV:   1    -0.135164473684E+03    0.19458E-03   -0.67431E-03  1017   0.179E-01    0.240E-02
RMM:   2    -0.135164507781E+03   -0.34096E-04   -0.37858E-04  1309   0.438E-02    0.144E-02
RMM:   3    -0.135164508087E+03   -0.30639E-06   -0.23521E-05   585   0.183E-02
  29 F= -.13516451E+03 E0= -.13516069E+03  d E =0.161560E-03
quench:  g(F)=  0.000E+00 g(S)=  0.000E+00 dE (1.order)= 0.000E+00
 bond charge predicted
       N       E                     dE             d eps       ncg     rms          rms(c)
DAV:   1    -0.135164286706E+03    0.22108E-03   -0.86505E-03  1143   0.215E-01    0.286E-02
RMM:   2    -0.135164336208E+03   -0.49502E-04   -0.51000E-04  1281   0.456E-02    0.253E-02
RMM:   3    -0.135164330907E+03    0.53012E-05   -0.28694E-05   637   0.170E-02
  30 F= -.13516433E+03 E0= -.13516052E+03  d E =0.177180E-03
quench:  g(F)=  0.000E+00 g(S)=  0.000E+00 dE (1.order)= 0.000E+00
 bond charge predicted
       N       E                     dE             d eps       ncg     rms          rms(c)
DAV:   1    -0.135164215523E+03    0.12069E-03   -0.44640E-03  1224   0.160E-01    0.213E-02
RMM:   2    -0.135164248154E+03   -0.32632E-04   -0.30009E-04  1092   0.358E-02    0.191E-02
RMM:   3    -0.135164243367E+03    0.47875E-05   -0.17028E-05   583   0.139E-02
  31 F= -.13516424E+03 E0= -.13516043E+03  d E =0.875400E-04
quench:  g(F)=  0.000E+00 g(S)=  0.000E+00 dE (1.order)= 0.000E+00
 bond charge predicted
       N       E                     dE             d eps       ncg     rms          rms(c)
DAV:   1    -0.135164143306E+03    0.10485E-03   -0.27742E-03  1251   0.132E-01    0.171E-02
RMM:   2    -0.135164159858E+03   -0.16552E-04   -0.16761E-04   965   0.289E-02    0.156E-02
RMM:   3    -0.135164157025E+03    0.28336E-05   -0.15235E-05   536   0.169E-02
  32 F= -.13516416E+03 E0= -.13516034E+03  d E =0.863420E-04
quench:  g(F)=  0.000E+00 g(S)=  0.000E+00 dE (1.order)= 0.000E+00
 bond charge predicted
       N       E                     dE             d eps       ncg     rms          rms(c)
DAV:   1    -0.135163991026E+03    0.16883E-03   -0.49646E-03  1008   0.147E-01    0.209E-02
RMM:   2    -0.135164013577E+03   -0.22551E-04   -0.24764E-04  1231   0.350E-02    0.133E-02
RMM:   3    -0.135164014560E+03   -0.98292E-06   -0.17017E-05   585   0.125E-02
  33 F= -.13516401E+03 E0= -.13516021E+03  d E =0.142465E-03
quench:  g(F)=  0.000E+00 g(S)=  0.000E+00 dE (1.order)= 0.000E+00
 bond charge predicted
       N       E                     dE             d eps       ncg     rms          rms(c)
DAV:   1    -0.135163806667E+03    0.20691E-03   -0.78614E-03  1017   0.188E-01    0.269E-02
RMM:   2    -0.135163849686E+03   -0.43019E-04   -0.45907E-04  1336   0.459E-02    0.188E-02
RMM:   3    -0.135163844797E+03    0.48895E-05   -0.26448E-05   622   0.188E-02
  34 F= -.13516384E+03 E0= -.13516005E+03  d E =0.169763E-03
quench:  g(F)=  0.000E+00 g(S)=  0.000E+00 dE (1.order)= 0.000E+00
 bond charge predicted
       N       E                     dE             d eps       ncg     rms          rms(c)
DAV:   1    -0.135163666370E+03    0.18332E-03   -0.62426E-03  1206   0.189E-01    0.263E-02
RMM:   2    -0.135163715723E+03   -0.49353E-04   -0.39019E-04  1207   0.394E-02    0.338E-02
RMM:   3    -0.135163697081E+03    0.18642E-04   -0.26986E-05   634   0.139E-02    0.231E-02
RMM:   4    -0.135163693296E+03    0.37852E-05   -0.13923E-05   548   0.178E-02
  35 F= -.13516369E+03 E0= -.13515989E+03  d E =0.151501E-03
quench:  g(F)=  0.000E+00 g(S)=  0.000E+00 dE (1.order)= 0.000E+00
 bond charge predicted
       N       E                     dE             d eps       ncg     rms          rms(c)
DAV:   1    -0.135163575514E+03    0.12157E-03   -0.43886E-03  1071   0.140E-01    0.199E-02
RMM:   2    -0.135163600112E+03   -0.24598E-04   -0.22757E-04  1138   0.311E-02    0.181E-02
RMM:   3    -0.135163598565E+03    0.15464E-05   -0.15032E-05   577   0.140E-02
  36 F= -.13516360E+03 E0= -.13515981E+03  d E =0.947304E-04
quench:  g(F)=  0.000E+00 g(S)=  0.000E+00 dE (1.order)= 0.000E+00
 bond charge predicted
       N       E                     dE             d eps       ncg     rms          rms(c)
DAV:   1    -0.135163410950E+03    0.18916E-03   -0.55147E-03  1035   0.165E-01    0.222E-02
RMM:   2    -0.135163441190E+03   -0.30241E-04   -0.33421E-04  1260   0.396E-02    0.130E-02
RMM:   3    -0.135163441871E+03   -0.68111E-06   -0.18055E-05   580   0.145E-02
  37 F= -.13516344E+03 E0= -.13515965E+03  d E =0.156694E-03
quench:  g(F)=  0.000E+00 g(S)=  0.000E+00 dE (1.order)= 0.000E+00
 bond charge predicted
       N       E                     dE             d eps       ncg     rms          rms(c)
DAV:   1    -0.135163227035E+03    0.21416E-03   -0.71425E-03  1098   0.189E-01    0.257E-02
RMM:   2    -0.135163264737E+03   -0.37702E-04   -0.41731E-04  1286   0.412E-02    0.155E-02
RMM:   3    -0.135163262314E+03    0.24233E-05   -0.16543E-05   590   0.135E-02
  38 F= -.13516326E+03 E0= -.13515948E+03  d E =0.179557E-03
quench:  g(F)=  0.000E+00 g(S)=  0.000E+00 dE (1.order)= 0.000E+00
 bond charge predicted
       N       E                     dE             d eps       ncg     rms          rms(c)
DAV:   1    -0.135163097238E+03    0.16750E-03   -0.52904E-03  1134   0.166E-01    0.234E-02
RMM:   2    -0.135163137108E+03   -0.39870E-04   -0.32898E-04  1184   0.369E-02    0.271E-02
RMM:   3    -0.135163125292E+03    0.11816E-04   -0.22056E-05   616   0.140E-02    0.218E-02
RMM:   4    -0.135163121360E+03    0.39323E-05   -0.11138E-05   543   0.159E-02
  39 F= -.13516312E+03 E0= -.13515933E+03  d E =0.140954E-03
quench:  g(F)=  0.000E+00 g(S)=  0.000E+00 dE (1.order)= 0.000E+00
 bond charge predicted
       N       E                     dE             d eps       ncg     rms          rms(c)
DAV:   1    -0.135162980629E+03    0.14466E-03   -0.44163E-03  1026   0.136E-01    0.199E-02
RMM:   2    -0.135163001508E+03   -0.20879E-04   -0.21436E-04  1144   0.308E-02    0.146E-02
RMM:   3    -0.135163004627E+03   -0.31191E-05   -0.16810E-05   574   0.149E-02
  40 F= -.13516300E+03 E0= -.13515923E+03  d E =0.116733E-03
quench:  g(F)=  0.000E+00 g(S)=  0.000E+00 dE (1.order)= 0.000E+00
 bond charge predicted
       N       E                     dE             d eps       ncg     rms          rms(c)
DAV:   1    -0.135162786149E+03    0.21536E-03   -0.61126E-03  1080   0.176E-01    0.237E-02
RMM:   2    -0.135162818888E+03   -0.32739E-04   -0.37051E-04  1262   0.405E-02    0.128E-02
RMM:   3    -0.135162818162E+03    0.72609E-06   -0.19638E-05   578   0.157E-02
  41 F= -.13516282E+03 E0= -.13515904E+03  d E =0.186465E-03
quench:  g(F)=  0.000E+00 g(S)=  0.000E+00 dE (1.order)= 0.000E+00
 bond charge predicted
       N       E                     dE             d eps       ncg     rms          rms(c)
DAV:   1    -0.135162598818E+03    0.22007E-03   -0.72575E-03  1107   0.190E-01    0.261E-02
RMM:   2    -0.135162638782E+03   -0.39964E-04   -0.42066E-04  1280   0.406E-02    0.181E-02
RMM:   3    -0.135162640660E+03   -0.18787E-05   -0.21144E-05   618   0.142E-02
  42 F= -.13516264E+03 E0= -.13515886E+03  d E =0.177501E-03
quench:  g(F)=  0.000E+00 g(S)=  0.000E+00 dE (1.order)= 0.000E+00
 bond charge predicted
       N       E                     dE             d eps       ncg     rms          rms(c)
DAV:   1    -0.135162479241E+03    0.15954E-03   -0.46584E-03  1197   0.165E-01    0.213E-02
RMM:   2    -0.135162507866E+03   -0.28625E-04   -0.30483E-04  1123   0.338E-02    0.140E-02
RMM:   3    -0.135162506229E+03    0.16369E-05   -0.14690E-05   577   0.120E-02
  43 F= -.13516251E+03 E0= -.13515873E+03  d E =0.134432E-03
quench:  g(F)=  0.000E+00 g(S)=  0.000E+00 dE (1.order)= 0.000E+00
 bond charge predicted
       N       E                     dE             d eps       ncg     rms          rms(c)
DAV:   1    -0.135162348586E+03    0.15928E-03   -0.43156E-03  1071   0.144E-01    0.205E-02
RMM:   2    -0.135162373319E+03   -0.24733E-04   -0.25398E-04  1138   0.342E-02    0.133E-02
RMM:   3    -0.135162374785E+03   -0.14667E-05   -0.15627E-05   569   0.153E-02
  44 F= -.13516237E+03 E0= -.13515861E+03  d E =0.131443E-03
quench:  g(F)=  0.000E+00 g(S)=  0.000E+00 dE (1.order)= 0.000E+00
 bond charge predicted
       N       E                     dE             d eps       ncg     rms          rms(c)
DAV:   1    -0.135162141758E+03    0.23156E-03   -0.60711E-03  1107   0.178E-01    0.256E-02
RMM:   2    -0.135162178199E+03   -0.36441E-04   -0.37891E-04  1218   0.405E-02    0.222E-02
RMM:   3    -0.135162171231E+03    0.69681E-05   -0.24756E-05   627   0.147E-02
  45 F= -.13516217E+03 E0= -.13515841E+03  d E =0.203555E-03
quench:  g(F)=  0.000E+00 g(S)=  0.000E+00 dE (1.order)= 0.000E+00
 bond charge predicted
       N       E                     dE             d eps       ncg     rms          rms(c)
DAV:   1    -0.135161954135E+03    0.22406E-03   -0.75245E-03  1035   0.185E-01    0.283E-02
RMM:   2    -0.135162002044E+03   -0.47909E-04   -0.46937E-04  1261   0.473E-02    0.245E-02
RMM:   3    -0.135161994672E+03    0.73720E-05   -0.33947E-05   664   0.216E-02
  46 F= -.13516199E+03 E0= -.13515824E+03  d E =0.176559E-03
quench:  g(F)=  0.000E+00 g(S)=  0.000E+00 dE (1.order)= 0.000E+00
 bond charge predicted
       N       E                     dE             d eps       ncg     rms          rms(c)
DAV:   1    -0.135161831616E+03    0.17043E-03   -0.45599E-03  1287   0.175E-01    0.249E-02
RMM:   2    -0.135161874011E+03   -0.42396E-04   -0.31291E-04  1119   0.355E-02    0.358E-02
RMM:   3    -0.135161854887E+03    0.19124E-04   -0.24345E-05   628   0.137E-02    0.207E-02
RMM:   4    -0.135161852857E+03    0.20301E-05   -0.11364E-05   547   0.159E-02
  47 F= -.13516185E+03 E0= -.13515809E+03  d E =0.141814E-03
quench:  g(F)=  0.000E+00 g(S)=  0.000E+00 dE (1.order)= 0.000E+00
 bond charge predicted
       N       E                     dE             d eps       ncg     rms          rms(c)
DAV:   1    -0.135161690499E+03    0.16439E-03   -0.46437E-03  1044   0.147E-01    0.210E-02
RMM:   2    -0.135161719129E+03   -0.28630E-04   -0.24515E-04  1199   0.329E-02    0.206E-02
RMM:   3    -0.135161713996E+03    0.51334E-05   -0.16675E-05   584   0.137E-02
  48 F= -.13516171E+03 E0= -.13515795E+03  d E =0.138861E-03
quench:  g(F)=  0.000E+00 g(S)=  0.000E+00 dE (1.order)= 0.000E+00
 bond charge predicted
       N       E                     dE             d eps       ncg     rms          rms(c)
DAV:   1    -0.135161438828E+03    0.28030E-03   -0.77912E-03  1017   0.188E-01    0.281E-02
RMM:   2    -0.135161481327E+03   -0.42499E-04   -0.46834E-04  1333   0.459E-02    0.179E-02
RMM:   3    -0.135161483274E+03   -0.19469E-05   -0.28658E-05   626   0.170E-02
  49 F= -.13516148E+03 E0= -.13515772E+03  d E =0.230722E-03
quench:  g(F)=  0.000E+00 g(S)=  0.000E+00 dE (1.order)= 0.000E+00
 bond charge predicted
       N       E                     dE             d eps       ncg     rms          rms(c)
DAV:   1    -0.135161188274E+03    0.29305E-03   -0.10202E-02  1089   0.229E-01    0.323E-02
RMM:   2    -0.135161245049E+03   -0.56775E-04   -0.62784E-04  1310   0.508E-02    0.220E-02
RMM:   3    -0.135161236626E+03    0.84224E-05   -0.35108E-05   674   0.213E-02
  50 F= -.13516124E+03 E0= -.13515747E+03  d E =0.246648E-03
quench:  g(F)=  0.000E+00 g(S)=  0.000E+00 dE (1.order)= 0.000E+00
 bond charge predicted
       N       E                     dE             d eps       ncg     rms          rms(c)
DAV:   1    -0.135161088862E+03    0.15619E-03   -0.47971E-03  1188   0.166E-01    0.253E-02
RMM:   2    -0.135161145525E+03   -0.56662E-04   -0.32221E-04  1128   0.373E-02    0.415E-02
RMM:   3    -0.135161112222E+03    0.33303E-04   -0.27716E-05   636   0.157E-02    0.192E-02
RMM:   4    -0.135161111395E+03    0.82670E-06   -0.11814E-05   545   0.161E-02
  51 F= -.13516111E+03 E0= -.13515735E+03  d E =0.125231E-03
quench:  g(F)=  0.000E+00 g(S)=  0.000E+00 dE (1.order)= 0.000E+00
 bond charge predicted
       N       E                     dE             d eps       ncg     rms          rms(c)
DAV:   1    -0.135160968325E+03    0.14390E-03   -0.37810E-03  1035   0.127E-01    0.189E-02
RMM:   2    -0.135160985005E+03   -0.16680E-04   -0.18177E-04  1074   0.291E-02    0.125E-02
RMM:   3    -0.135160988291E+03   -0.32866E-05   -0.14326E-05   561   0.150E-02
  52 F= -.13516099E+03 E0= -.13515725E+03  d E =0.123104E-03
quench:  g(F)=  0.000E+00 g(S)=  0.000E+00 dE (1.order)= 0.000E+00
 bond charge predicted
       N       E                     dE             d eps       ncg     rms          rms(c)
DAV:   1    -0.135160724614E+03    0.26039E-03   -0.69955E-03  1035   0.182E-01    0.263E-02
RMM:   2    -0.135160760003E+03   -0.35388E-04   -0.40978E-04  1268   0.436E-02    0.142E-02
RMM:   3    -0.135160755108E+03    0.48949E-05   -0.26165E-05   586   0.192E-02
  53 F= -.13516076E+03 E0= -.13515702E+03  d E =0.233184E-03
quench:  g(F)=  0.000E+00 g(S)=  0.000E+00 dE (1.order)= 0.000E+00
 bond charge predicted
       N       E                     dE             d eps       ncg     rms          rms(c)
DAV:   1    -0.135160455819E+03    0.30418E-03   -0.98761E-03  1017   0.202E-01    0.312E-02
RMM:   2    -0.135160500300E+03   -0.44481E-04   -0.52223E-04  1374   0.456E-02    0.168E-02
RMM:   3    -0.135160494574E+03    0.57266E-05   -0.18832E-05   585   0.129E-02
  54 F= -.13516049E+03 E0= -.13515675E+03  d E =0.260534E-03
quench:  g(F)=  0.000E+00 g(S)=  0.000E+00 dE (1.order)= 0.000E+00
 bond charge predicted
       N       E                     dE             d eps       ncg     rms          rms(c)
DAV:   1    -0.135160313830E+03    0.18647E-03   -0.65471E-03  1008   0.157E-01    0.261E-02
RMM:   2    -0.135160355158E+03   -0.41329E-04   -0.39201E-04  1290   0.389E-02    0.285E-02
RMM:   3    -0.135160345419E+03    0.97389E-05   -0.26814E-05   640   0.145E-02
  55 F= -.13516035E+03 E0= -.13515659E+03  d E =0.149154E-03
quench:  g(F)=  0.000E+00 g(S)=  0.000E+00 dE (1.order)= 0.000E+00
 bond charge predicted
       N       E                     dE             d eps       ncg     rms          rms(c)
DAV:   1    -0.135160219221E+03    0.13594E-03   -0.33001E-03  1251   0.146E-01    0.192E-02
RMM:   2    -0.135160245371E+03   -0.26151E-04   -0.19690E-04  1011   0.307E-02    0.223E-02
RMM:   3    -0.135160237783E+03    0.75886E-05   -0.16544E-05   574   0.151E-02
  56 F= -.13516024E+03 E0= -.13515650E+03  d E =0.107637E-03
quench:  g(F)=  0.000E+00 g(S)=  0.000E+00 dE (1.order)= 0.000E+00
 bond charge predicted
       N       E                     dE             d eps       ncg     rms          rms(c)
DAV:   1    -0.135160034982E+03    0.21039E-03   -0.48109E-03  1008   0.146E-01    0.225E-02
RMM:   2    -0.135160062010E+03   -0.27028E-04   -0.29950E-04  1198   0.382E-02    0.154E-02
RMM:   3    -0.135160062642E+03   -0.63208E-06   -0.21521E-05   587   0.172E-02
  57 F= -.13516006E+03 E0= -.13515632E+03  d E =0.175141E-03
quench:  g(F)=  0.000E+00 g(S)=  0.000E+00 dE (1.order)= 0.000E+00
 bond charge predicted
       N       E                     dE             d eps       ncg     rms          rms(c)
DAV:   1    -0.135159778268E+03    0.28374E-03   -0.81967E-03  1062   0.202E-01    0.286E-02
RMM:   2    -0.135159821529E+03   -0.43261E-04   -0.48009E-04  1298   0.447E-02    0.173E-02
RMM:   3    -0.135159822795E+03   -0.12667E-05   -0.22501E-05   618   0.138E-02
  58 F= -.13515982E+03 E0= -.13515608E+03  d E =0.239846E-03
quench:  g(F)=  0.000E+00 g(S)=  0.000E+00 dE (1.order)= 0.000E+00
 bond charge predicted
       N       E                     dE             d eps       ncg     rms          rms(c)
DAV:   1    -0.135159572860E+03    0.24867E-03   -0.73635E-03  1098   0.188E-01    0.280E-02
RMM:   2    -0.135159622163E+03   -0.49303E-04   -0.48608E-04  1264   0.445E-02    0.241E-02
RMM:   3    -0.135159616949E+03    0.52132E-05   -0.30837E-05   649   0.164E-02
  59 F= -.13515962E+03 E0= -.13515588E+03  d E =0.205846E-03
quench:  g(F)=  0.000E+00 g(S)=  0.000E+00 dE (1.order)= 0.000E+00
 bond charge predicted
       N       E                     dE             d eps       ncg     rms          rms(c)
DAV:   1    -0.135159481600E+03    0.14056E-03   -0.41328E-03  1251   0.163E-01    0.211E-02
RMM:   2    -0.135159506733E+03   -0.25133E-04   -0.26351E-04  1066   0.341E-02    0.147E-02
RMM:   3    -0.135159504197E+03    0.25356E-05   -0.13801E-05   548   0.144E-02
  60 F= -.13515950E+03 E0= -.13515578E+03  d E =0.112752E-03
quench:  g(F)=  0.000E+00 g(S)=  0.000E+00 dE (1.order)= 0.000E+00
 bond charge predicted
       N       E                     dE             d eps       ncg     rms          rms(c)
DAV:   1    -0.135159323764E+03    0.18297E-03   -0.40847E-03  1035   0.137E-01    0.209E-02
RMM:   2    -0.135159360228E+03   -0.36464E-04   -0.24484E-04  1138   0.346E-02    0.297E-02
RMM:   3    -0.135159341183E+03    0.19045E-04   -0.21068E-05   598   0.152E-02    0.154E-02
RMM:   4    -0.135159340880E+03    0.30292E-06   -0.77063E-06   537   0.134E-02
  61 F= -.13515934E+03 E0= -.13515561E+03  d E =0.163317E-03
quench:  g(F)=  0.000E+00 g(S)=  0.000E+00 dE (1.order)= 0.000E+00
 bond charge predicted
       N       E                     dE             d eps       ncg     rms          rms(c)
DAV:   1    -0.135159085453E+03    0.25573E-03   -0.75798E-03  1008   0.170E-01    0.272E-02
RMM:   2    -0.135159118495E+03   -0.33042E-04   -0.37360E-04  1326   0.390E-02    0.174E-02
RMM:   3    -0.135159120839E+03   -0.23446E-05   -0.21420E-05   613   0.150E-02
  62 F= -.13515912E+03 E0= -.13515539E+03  d E =0.220041E-03
quench:  g(F)=  0.000E+00 g(S)=  0.000E+00 dE (1.order)= 0.000E+00
 bond charge predicted
       N       E                     dE             d eps       ncg     rms          rms(c)
DAV:   1    -0.135158789396E+03    0.32910E-03   -0.10342E-02  1044   0.221E-01    0.325E-02
RMM:   2    -0.135158848371E+03   -0.58975E-04   -0.65047E-04  1351   0.527E-02    0.200E-02
RMM:   3    -0.135158851374E+03   -0.30033E-05   -0.46252E-05   713   0.214E-02
  63 F= -.13515885E+03 E0= -.13515511E+03  d E =0.269465E-03
quench:  g(F)=  0.000E+00 g(S)=  0.000E+00 dE (1.order)= 0.000E+00
 bond charge predicted
       N       E                     dE             d eps       ncg     rms          rms(c)
DAV:   1    -0.135158640262E+03    0.20811E-03   -0.69230E-03  1251   0.208E-01    0.297E-02
RMM:   2    -0.135158683990E+03   -0.43728E-04   -0.42981E-04  1178   0.434E-02    0.284E-02
RMM:   3    -0.135158674899E+03    0.90903E-05   -0.29556E-05   645   0.172E-02
  64 F= -.13515867E+03 E0= -.13515495E+03  d E =0.176475E-03
quench:  g(F)=  0.000E+00 g(S)=  0.000E+00 dE (1.order)= 0.000E+00
 bond charge predicted
       N       E                     dE             d eps       ncg     rms          rms(c)
DAV:   1    -0.135158546819E+03    0.13717E-03   -0.31790E-03  1242   0.144E-01    0.207E-02
RMM:   2    -0.135158591504E+03   -0.44685E-04   -0.23358E-04  1068   0.375E-02    0.367E-02
RMM:   3    -0.135158561377E+03    0.30128E-04   -0.22377E-05   597   0.172E-02    0.140E-02
RMM:   4    -0.135158562063E+03   -0.68612E-06   -0.74939E-06   541   0.116E-02
  65 F= -.13515856E+03 E0= -.13515483E+03  d E =0.112837E-03
quench:  g(F)=  0.000E+00 g(S)=  0.000E+00 dE (1.order)= 0.000E+00
 bond charge predicted
       N       E                     dE             d eps       ncg     rms          rms(c)
DAV:   1    -0.135158353807E+03    0.20757E-03   -0.51379E-03  1008   0.141E-01    0.220E-02
RMM:   2    -0.135158373649E+03   -0.19842E-04   -0.23749E-04  1192   0.330E-02    0.102E-02
RMM:   3    -0.135158373907E+03   -0.25795E-06   -0.14961E-05   549   0.147E-02
  66 F= -.13515837E+03 E0= -.13515465E+03  d E =0.188156E-03
quench:  g(F)=  0.000E+00 g(S)=  0.000E+00 dE (1.order)= 0.000E+00
 bond charge predicted
       N       E                     dE             d eps       ncg     rms          rms(c)
DAV:   1    -0.135158034862E+03    0.33879E-03   -0.10024E-02  1008   0.207E-01    0.314E-02
RMM:   2    -0.135158085342E+03   -0.50481E-04   -0.55597E-04  1397   0.493E-02    0.191E-02
RMM:   3    -0.135158093510E+03   -0.81677E-05   -0.35629E-05   669   0.193E-02
  67 F= -.13515809E+03 E0= -.13515437E+03  d E =0.280397E-03
quench:  g(F)=  0.000E+00 g(S)=  0.000E+00 dE (1.order)= 0.000E+00
 bond charge predicted
       N       E                     dE             d eps       ncg     rms          rms(c)
DAV:   1    -0.135157756142E+03    0.32920E-03   -0.11452E-02  1125   0.246E-01    0.363E-02
RMM:   2    -0.135157819043E+03   -0.62901E-04   -0.69694E-04  1287   0.548E-02    0.289E-02
RMM:   3    -0.135157805656E+03    0.13387E-04   -0.49417E-05   713   0.237E-02    0.220E-02
RMM:   4    -0.135157805974E+03   -0.31751E-06   -0.14831E-05   553   0.162E-02
  68 F= -.13515781E+03 E0= -.13515409E+03  d E =0.287536E-03
quench:  g(F)=  0.000E+00 g(S)=  0.000E+00 dE (1.order)= 0.000E+00
 bond charge predicted
       N       E                     dE             d eps       ncg     rms          rms(c)
DAV:   1    -0.135157681195E+03    0.12446E-03   -0.44873E-03  1116   0.144E-01    0.255E-02
RMM:   2    -0.135157754858E+03   -0.73663E-04   -0.32429E-04  1157   0.386E-02    0.514E-02
RMM:   3    -0.135157698162E+03    0.56696E-04   -0.34475E-05   656   0.190E-02    0.170E-02
RMM:   4    -0.135157698632E+03   -0.46984E-06   -0.10403E-05   550   0.141E-02
  69 F= -.13515770E+03 E0= -.13515398E+03  d E =0.107342E-03
quench:  g(F)=  0.000E+00 g(S)=  0.000E+00 dE (1.order)= 0.000E+00
 bond charge predicted
       N       E                     dE             d eps       ncg     rms          rms(c)
DAV:   1    -0.135157530418E+03    0.16774E-03   -0.40320E-03  1017   0.127E-01    0.200E-02
RMM:   2    -0.135157549683E+03   -0.19265E-04   -0.20329E-04  1121   0.302E-02    0.161E-02
RMM:   3    -0.135157548214E+03    0.14690E-05   -0.14806E-05   577   0.133E-02
  70 F= -.13515755E+03 E0= -.13515384E+03  d E =0.150418E-03
quench:  g(F)=  0.000E+00 g(S)=  0.000E+00 dE (1.order)= 0.000E+00
 bond charge predicted
       N       E                     dE             d eps       ncg     rms          rms(c)
DAV:   1    -0.135157250783E+03    0.29890E-03   -0.81056E-03  1008   0.186E-01    0.288E-02
RMM:   2    -0.135157292270E+03   -0.41487E-04   -0.44103E-04  1340   0.455E-02    0.189E-02
RMM:   3    -0.135157295873E+03   -0.36030E-05   -0.38919E-05   660   0.222E-02
  71 F= -.13515730E+03 E0= -.13515359E+03  d E =0.252341E-03
quench:  g(F)=  0.000E+00 g(S)=  0.000E+00 dE (1.order)= 0.000E+00
 bond charge predicted
       N       E                     dE             d eps       ncg     rms          rms(c)
DAV:   1    -0.135156932900E+03    0.35937E-03   -0.11298E-02  1125   0.242E-01    0.376E-02
RMM:   2    -0.135157002611E+03   -0.69710E-04   -0.71213E-04  1264   0.558E-02    0.383E-02
RMM:   3    -0.135156982500E+03    0.20110E-04   -0.54364E-05   747   0.223E-02    0.276E-02
RMM:   4    -0.135156981491E+03    0.10091E-05   -0.13220E-05   567   0.148E-02
  72 F= -.13515698E+03 E0= -.13515327E+03  d E =0.314382E-03
quench:  g(F)=  0.000E+00 g(S)=  0.000E+00 dE (1.order)= 0.000E+00
 bond charge predicted
       N       E                     dE             d eps       ncg     rms          rms(c)
DAV:   1    -0.135156760400E+03    0.22210E-03   -0.75867E-03  1125   0.197E-01    0.293E-02
RMM:   2    -0.135156823164E+03   -0.62764E-04   -0.50879E-04  1258   0.432E-02    0.332E-02
RMM:   3    -0.135156800056E+03    0.23108E-04   -0.34689E-05   673   0.176E-02    0.274E-02
RMM:   4    -0.135156792938E+03    0.71180E-05   -0.14721E-05   560   0.170E-02
  73 F= -.13515679E+03 E0= -.13515308E+03  d E =0.188553E-03
quench:  g(F)=  0.000E+00 g(S)=  0.000E+00 dE (1.order)= 0.000E+00
 bond charge predicted
       N       E                     dE             d eps       ncg     rms          rms(c)
DAV:   1    -0.135156664494E+03    0.13556E-03   -0.38288E-03  1026   0.122E-01    0.210E-02
RMM:   2    -0.135156684374E+03   -0.19880E-04   -0.20169E-04  1045   0.303E-02    0.208E-02
RMM:   3    -0.135156678931E+03    0.54431E-05   -0.19009E-05   570   0.170E-02
  74 F= -.13515668E+03 E0= -.13515298E+03  d E =0.114007E-03
quench:  g(F)=  0.000E+00 g(S)=  0.000E+00 dE (1.order)= 0.000E+00
 bond charge predicted
       N       E                     dE             d eps       ncg     rms          rms(c)
DAV:   1    -0.135156471667E+03    0.21271E-03   -0.47825E-03  1008   0.142E-01    0.220E-02
RMM:   2    -0.135156493998E+03   -0.22331E-04   -0.26253E-04  1178   0.338E-02    0.114E-02
RMM:   3    -0.135156492346E+03    0.16526E-05   -0.12683E-05   554   0.127E-02
  75 F= -.13515649E+03 E0= -.13515279E+03  d E =0.186585E-03
quench:  g(F)=  0.000E+00 g(S)=  0.000E+00 dE (1.order)= 0.000E+00
 bond charge predicted
       N       E                     dE             d eps       ncg     rms          rms(c)
DAV:   1    -0.135156213918E+03    0.28008E-03   -0.81994E-03  1008   0.172E-01    0.289E-02
RMM:   2    -0.135156252524E+03   -0.38605E-04   -0.43173E-04  1256   0.430E-02    0.207E-02
RMM:   3    -0.135156253388E+03   -0.86427E-06   -0.32411E-05   655   0.217E-02
  76 F= -.13515625E+03 E0= -.13515255E+03  d E =0.238958E-03
quench:  g(F)=  0.000E+00 g(S)=  0.000E+00 dE (1.order)= 0.000E+00
 bond charge predicted
       N       E                     dE             d eps       ncg     rms          rms(c)
DAV:   1    -0.135155946449E+03    0.30607E-03   -0.84673E-03  1116   0.213E-01    0.323E-02
RMM:   2    -0.135156012702E+03   -0.66253E-04   -0.58236E-04  1255   0.483E-02    0.359E-02
RMM:   3    -0.135155992826E+03    0.19875E-04   -0.42633E-05   695   0.160E-02    0.303E-02
RMM:   4    -0.135155984567E+03    0.82592E-05   -0.18196E-05   554   0.199E-02
  77 F= -.13515598E+03 E0= -.13515228E+03  d E =0.268821E-03
quench:  g(F)=  0.000E+00 g(S)=  0.000E+00 dE (1.order)= 0.000E+00
 bond charge predicted
       N       E                     dE             d eps       ncg     rms          rms(c)
DAV:   1    -0.135155772090E+03    0.22074E-03   -0.72592E-03  1017   0.175E-01    0.275E-02
RMM:   2    -0.135155813825E+03   -0.41735E-04   -0.39418E-04  1270   0.389E-02    0.246E-02
RMM:   3    -0.135155811268E+03    0.25567E-05   -0.25466E-05   626   0.160E-02
  78 F= -.13515581E+03 E0= -.13515212E+03  d E =0.173299E-03
quench:  g(F)=  0.000E+00 g(S)=  0.000E+00 dE (1.order)= 0.000E+00
 bond charge predicted
       N       E                     dE             d eps       ncg     rms          rms(c)
DAV:   1    -0.135155557530E+03    0.25629E-03   -0.64575E-03  1089   0.185E-01    0.266E-02
RMM:   2    -0.135155596968E+03   -0.39437E-04   -0.44286E-04  1249   0.412E-02    0.162E-02
RMM:   3    -0.135155596191E+03    0.77645E-06   -0.21482E-05   609   0.142E-02
  79 F= -.13515560E+03 E0= -.13515190E+03  d E =0.215077E-03
quench:  g(F)=  0.000E+00 g(S)=  0.000E+00 dE (1.order)= 0.000E+00
 bond charge predicted
       N       E                     dE             d eps       ncg     rms          rms(c)
DAV:   1    -0.135155354403E+03    0.24256E-03   -0.70502E-03  1080   0.190E-01    0.271E-02
RMM:   2    -0.135155392793E+03   -0.38390E-04   -0.40848E-04  1264   0.404E-02    0.170E-02
RMM:   3    -0.135155398041E+03   -0.52479E-05   -0.23514E-05   603   0.158E-02
  80 F= -.13515540E+03 E0= -.13515171E+03  d E =0.198151E-03
quench:  g(F)=  0.000E+00 g(S)=  0.000E+00 dE (1.order)= 0.000E+00
 bond charge predicted
       N       E                     dE             d eps       ncg     rms          rms(c)
DAV:   1    -0.135155189997E+03    0.20280E-03   -0.49037E-03  1206   0.176E-01    0.239E-02
RMM:   2    -0.135155221815E+03   -0.31818E-04   -0.33112E-04  1131   0.358E-02    0.188E-02
RMM:   3    -0.135155218655E+03    0.31604E-05   -0.20408E-05   609   0.136E-02
  81 F= -.13515522E+03 E0= -.13515153E+03  d E =0.179386E-03
quench:  g(F)=  0.000E+00 g(S)=  0.000E+00 dE (1.order)= 0.000E+00
 bond charge predicted
       N       E                     dE             d eps       ncg     rms          rms(c)
DAV:   1    -0.135155019359E+03    0.20246E-03   -0.51018E-03  1035   0.153E-01    0.239E-02
RMM:   2    -0.135155051718E+03   -0.32359E-04   -0.31324E-04  1168   0.385E-02    0.200E-02
RMM:   3    -0.135155048957E+03    0.27604E-05   -0.24874E-05   587   0.191E-02
  82 F= -.13515505E+03 E0= -.13515136E+03  d E =0.169697E-03
quench:  g(F)=  0.000E+00 g(S)=  0.000E+00 dE (1.order)= 0.000E+00
 bond charge predicted
       N       E                     dE             d eps       ncg     rms          rms(c)
DAV:   1    -0.135154769482E+03    0.28224E-03   -0.64071E-03  1098   0.185E-01    0.292E-02
RMM:   2    -0.135154817599E+03   -0.48117E-04   -0.43805E-04  1216   0.431E-02    0.333E-02
RMM:   3    -0.135154802106E+03    0.15493E-04   -0.33342E-05   648   0.158E-02    0.256E-02
RMM:   4    -0.135154798522E+03    0.35840E-05   -0.12928E-05   551   0.168E-02
  83 F= -.13515480E+03 E0= -.13515111E+03  d E =0.250436E-03
quench:  g(F)=  0.000E+00 g(S)=  0.000E+00 dE (1.order)= 0.000E+00
 bond charge predicted
       N       E                     dE             d eps       ncg     rms          rms(c)
DAV:   1    -0.135154544257E+03    0.25785E-03   -0.84129E-03  1017   0.191E-01    0.298E-02
RMM:   2    -0.135154593147E+03   -0.48890E-04   -0.44924E-04  1349   0.417E-02    0.274E-02
RMM:   3    -0.135154587330E+03    0.58171E-05   -0.28904E-05   640   0.158E-02
  84 F= -.13515459E+03 E0= -.13515090E+03  d E =0.211192E-03
quench:  g(F)=  0.000E+00 g(S)=  0.000E+00 dE (1.order)= 0.000E+00
 bond charge predicted
       N       E                     dE             d eps       ncg     rms          rms(c)
DAV:   1    -0.135154347282E+03    0.24587E-03   -0.67290E-03  1116   0.192E-01    0.277E-02
RMM:   2    -0.135154389555E+03   -0.42274E-04   -0.47637E-04  1231   0.425E-02    0.175E-02
RMM:   3    -0.135154385526E+03    0.40291E-05   -0.24330E-05   618   0.144E-02
  85 F= -.13515439E+03 E0= -.13515069E+03  d E =0.201804E-03
quench:  g(F)=  0.000E+00 g(S)=  0.000E+00 dE (1.order)= 0.000E+00
 bond charge predicted
       N       E                     dE             d eps       ncg     rms          rms(c)
DAV:   1    -0.135154198794E+03    0.19076E-03   -0.52951E-03  1107   0.169E-01    0.248E-02
RMM:   2    -0.135154242174E+03   -0.43380E-04   -0.32838E-04  1150   0.391E-02    0.302E-02
RMM:   3    -0.135154227528E+03    0.14646E-04   -0.25808E-05   621   0.177E-02    0.218E-02
RMM:   4    -0.135154223362E+03    0.41654E-05   -0.98099E-06   544   0.143E-02
  86 F= -.13515422E+03 E0= -.13515054E+03  d E =0.162164E-03
quench:  g(F)=  0.000E+00 g(S)=  0.000E+00 dE (1.order)= 0.000E+00
 bond charge predicted
       N       E                     dE             d eps       ncg     rms          rms(c)
DAV:   1    -0.135153992653E+03    0.23487E-03   -0.58426E-03  1008   0.146E-01    0.241E-02
RMM:   2    -0.135154016744E+03   -0.24091E-04   -0.29802E-04  1210   0.342E-02    0.120E-02
RMM:   3    -0.135154015369E+03    0.13750E-05   -0.13891E-05   567   0.123E-02
  87 F= -.13515402E+03 E0= -.13515034E+03  d E =0.207993E-03
quench:  g(F)=  0.000E+00 g(S)=  0.000E+00 dE (1.order)= 0.000E+00
 bond charge predicted
       N       E                     dE             d eps       ncg     rms          rms(c)
DAV:   1    -0.135153734757E+03    0.28199E-03   -0.84720E-03  1008   0.184E-01    0.310E-02
RMM:   2    -0.135153796502E+03   -0.61745E-04   -0.47451E-04  1358   0.440E-02    0.390E-02
RMM:   3    -0.135153772892E+03    0.23609E-04   -0.37210E-05   664   0.175E-02    0.263E-02
RMM:   4    -0.135153766677E+03    0.62151E-05   -0.14753E-05   552   0.183E-02
  88 F= -.13515377E+03 E0= -.13515009E+03  d E =0.248692E-03
quench:  g(F)=  0.000E+00 g(S)=  0.000E+00 dE (1.order)= 0.000E+00
 bond charge predicted
       N       E                     dE             d eps       ncg     rms          rms(c)
DAV:   1    -0.135153505966E+03    0.26693E-03   -0.86969E-03  1008   0.180E-01    0.298E-02
RMM:   2    -0.135153547299E+03   -0.41333E-04   -0.47866E-04  1342   0.424E-02    0.189E-02
RMM:   3    -0.135153550713E+03   -0.34139E-05   -0.28622E-05   645   0.173E-02
  89 F= -.13515355E+03 E0= -.13514988E+03  d E =0.215964E-03
quench:  g(F)=  0.000E+00 g(S)=  0.000E+00 dE (1.order)= 0.000E+00
 bond charge predicted
       N       E                     dE             d eps       ncg     rms          rms(c)
DAV:   1    -0.135153354631E+03    0.19267E-03   -0.62872E-03  1179   0.192E-01    0.255E-02
RMM:   2    -0.135153390311E+03   -0.35680E-04   -0.39512E-04  1151   0.395E-02    0.144E-02
RMM:   3    -0.135153387996E+03    0.23151E-05   -0.16383E-05   576   0.136E-02
  90 F= -.13515339E+03 E0= -.13514972E+03  d E =0.162717E-03
quench:  g(F)=  0.000E+00 g(S)=  0.000E+00 dE (1.order)= 0.000E+00
 bond charge predicted
       N       E                     dE             d eps       ncg     rms          rms(c)
DAV:   1    -0.135153225926E+03    0.16439E-03   -0.36060E-03  1098   0.136E-01    0.228E-02
RMM:   2    -0.135153276977E+03   -0.51051E-04   -0.24707E-04  1072   0.348E-02    0.414E-02
RMM:   3    -0.135153241430E+03    0.35547E-04   -0.27113E-05   628   0.169E-02    0.157E-02
RMM:   4    -0.135153241971E+03   -0.54118E-06   -0.87343E-06   542   0.143E-02
  91 F= -.13515324E+03 E0= -.13514957E+03  d E =0.146025E-03
quench:  g(F)=  0.000E+00 g(S)=  0.000E+00 dE (1.order)= 0.000E+00
 bond charge predicted
       N       E                     dE             d eps       ncg     rms          rms(c)
DAV:   1    -0.135153009115E+03    0.23231E-03   -0.59811E-03  1008   0.147E-01    0.243E-02
RMM:   2    -0.135153032962E+03   -0.23847E-04   -0.28492E-04  1224   0.333E-02    0.130E-02
RMM:   3    -0.135153037721E+03   -0.47584E-05   -0.14854E-05   589   0.122E-02
  92 F= -.13515304E+03 E0= -.13514937E+03  d E =0.204251E-03
quench:  g(F)=  0.000E+00 g(S)=  0.000E+00 dE (1.order)= 0.000E+00
 bond charge predicted
       N       E                     dE             d eps       ncg     rms          rms(c)
DAV:   1    -0.135152673485E+03    0.35948E-03   -0.10864E-02  1008   0.217E-01    0.341E-02
RMM:   2    -0.135152726398E+03   -0.52913E-04   -0.63673E-04  1374   0.513E-02    0.161E-02
RMM:   3    -0.135152719136E+03    0.72625E-05   -0.30386E-05   603   0.174E-02
  93 F= -.13515272E+03 E0= -.13514906E+03  d E =0.318585E-03
quench:  g(F)=  0.000E+00 g(S)=  0.000E+00 dE (1.order)= 0.000E+00
 bond charge predicted
       N       E                     dE             d eps       ncg     rms          rms(c)
DAV:   1    -0.135152408597E+03    0.31780E-03   -0.12010E-02  1008   0.215E-01    0.357E-02
RMM:   2    -0.135152461240E+03   -0.52643E-04   -0.61939E-04  1358   0.498E-02    0.222E-02
RMM:   3    -0.135152461992E+03   -0.75208E-06   -0.35174E-05   653   0.202E-02
  94 F= -.13515246E+03 E0= -.13514879E+03  d E =0.257144E-03
quench:  g(F)=  0.000E+00 g(S)=  0.000E+00 dE (1.order)= 0.000E+00
 bond charge predicted
       N       E                     dE             d eps       ncg     rms          rms(c)
DAV:   1    -0.135152342202E+03    0.11904E-03   -0.39089E-03  1359   0.180E-01    0.234E-02
RMM:   2    -0.135152400496E+03   -0.58294E-04   -0.27403E-04  1067   0.391E-02    0.446E-02
RMM:   3    -0.135152358545E+03    0.41951E-04   -0.25260E-05   624   0.164E-02    0.139E-02
RMM:   4    -0.135152361160E+03   -0.26152E-05   -0.88624E-06   547   0.131E-02
  95 F= -.13515236E+03 E0= -.13514869E+03  d E =0.100832E-03
quench:  g(F)=  0.000E+00 g(S)=  0.000E+00 dE (1.order)= 0.000E+00
 bond charge predicted
       N       E                     dE             d eps       ncg     rms          rms(c)
DAV:   1    -0.135152178651E+03    0.17989E-03   -0.41656E-03  1044   0.128E-01    0.204E-02
RMM:   2    -0.135152193685E+03   -0.15035E-04   -0.18727E-04  1109   0.295E-02    0.946E-03
RMM:   3    -0.135152197939E+03   -0.42539E-05   -0.13800E-05   554   0.140E-02
  96 F= -.13515220E+03 E0= -.13514854E+03  d E =0.163221E-03
quench:  g(F)=  0.000E+00 g(S)=  0.000E+00 dE (1.order)= 0.000E+00
 bond charge predicted
       N       E                     dE             d eps       ncg     rms          rms(c)
DAV:   1    -0.135151866088E+03    0.32760E-03   -0.93567E-03  1008   0.197E-01    0.317E-02
RMM:   2    -0.135151910322E+03   -0.44234E-04   -0.54295E-04  1333   0.477E-02    0.150E-02
RMM:   3    -0.135151904155E+03    0.61672E-05   -0.24018E-05   582   0.173E-02
  97 F= -.13515190E+03 E0= -.13514826E+03  d E =0.293784E-03
quench:  g(F)=  0.000E+00 g(S)=  0.000E+00 dE (1.order)= 0.000E+00
 bond charge predicted
       N       E                     dE             d eps       ncg     rms          rms(c)
DAV:   1    -0.135151536168E+03    0.37415E-03   -0.14062E-02  1008   0.231E-01    0.384E-02
RMM:   2    -0.135151593648E+03   -0.57480E-04   -0.70459E-04  1433   0.515E-02    0.206E-02
RMM:   3    -0.135151591834E+03    0.18137E-05   -0.30860E-05   636   0.186E-02
  98 F= -.13515159E+03 E0= -.13514793E+03  d E =0.312320E-03
quench:  g(F)=  0.000E+00 g(S)=  0.000E+00 dE (1.order)= 0.000E+00
 bond charge predicted
       N       E                     dE             d eps       ncg     rms          rms(c)
DAV:   1    -0.135151406379E+03    0.18727E-03   -0.69694E-03  1188   0.200E-01    0.317E-02
RMM:   2    -0.135151496741E+03   -0.90362E-04   -0.48289E-04  1196   0.450E-02    0.530E-02
RMM:   3    -0.135151438970E+03    0.57771E-04   -0.48115E-05   712   0.197E-02    0.233E-02
RMM:   4    -0.135151438198E+03    0.77170E-06   -0.15009E-05   559   0.171E-02
  99 F= -.13515144E+03 E0= -.13514778E+03  d E =0.153637E-03
quench:  g(F)=  0.000E+00 g(S)=  0.000E+00 dE (1.order)= 0.000E+00
 bond charge predicted
       N       E                     dE             d eps       ncg     rms          rms(c)
DAV:   1    -0.135151346431E+03    0.92539E-04   -0.27613E-03  1035   0.109E-01    0.173E-02
RMM:   2    -0.135151358469E+03   -0.12038E-04   -0.14131E-04   906   0.266E-02    0.117E-02
RMM:   3    -0.135151360095E+03   -0.16260E-05   -0.15839E-05   555   0.167E-02
 100 F= -.13515136E+03 E0= -.13514771E+03  d E =0.781031E-04
quench:  g(F)=  0.000E+00 g(S)=  0.000E+00 dE (1.order)= 0.000E+00
 bond charge predicted
       N       E                     dE             d eps       ncg     rms          rms(c)
DAV:   1    -0.135151147371E+03    0.21110E-03   -0.49820E-03  1017   0.153E-01    0.232E-02
RMM:   2    -0.135151173379E+03   -0.26008E-04   -0.28887E-04  1149   0.368E-02    0.142E-02
RMM:   3    -0.135151176897E+03   -0.35178E-05   -0.21269E-05   595   0.153E-02
 101 F= -.13515118E+03 E0= -.13514753E+03  d E =0.183198E-03
quench:  g(F)=  0.000E+00 g(S)=  0.000E+00 dE (1.order)= 0.000E+00
 bond charge predicted
       N       E                     dE             d eps       ncg     rms          rms(c)
DAV:   1    -0.135150845190E+03    0.32819E-03   -0.95632E-03  1044   0.213E-01    0.329E-02
RMM:   2    -0.135150892355E+03   -0.47166E-04   -0.54455E-04  1339   0.495E-02    0.226E-02
RMM:   3    -0.135150893223E+03   -0.86815E-06   -0.35351E-05   656   0.193E-02
 102 F= -.13515089E+03 E0= -.13514726E+03  d E =0.283673E-03
quench:  g(F)=  0.000E+00 g(S)=  0.000E+00 dE (1.order)= 0.000E+00
 bond charge predicted
       N       E                     dE             d eps       ncg     rms          rms(c)
DAV:   1    -0.135150575496E+03    0.31686E-03   -0.11530E-02  1035   0.231E-01    0.361E-02
RMM:   2    -0.135150645305E+03   -0.69809E-04   -0.77069E-04  1295   0.585E-02    0.243E-02
RMM:   3    -0.135150638661E+03    0.66435E-05   -0.54961E-05   802   0.252E-02
 103 F= -.13515064E+03 E0= -.13514701E+03  d E =0.254562E-03
quench:  g(F)=  0.000E+00 g(S)=  0.000E+00 dE (1.order)= 0.000E+00
 bond charge predicted
       N       E                     dE             d eps       ncg     rms          rms(c)
DAV:   1    -0.135150501397E+03    0.14391E-03   -0.51623E-03  1305   0.212E-01    0.282E-02
RMM:   2    -0.135150571938E+03   -0.70542E-04   -0.34904E-04  1120   0.417E-02    0.520E-02
RMM:   3    -0.135150524580E+03    0.47358E-04   -0.38219E-05   657   0.172E-02    0.189E-02
RMM:   4    -0.135150525304E+03   -0.72346E-06   -0.12557E-05   546   0.167E-02
 104 F= -.13515053E+03 E0= -.13514689E+03  d E =0.113358E-03
quench:  g(F)=  0.000E+00 g(S)=  0.000E+00 dE (1.order)= 0.000E+00
 bond charge predicted
       N       E                     dE             d eps       ncg     rms          rms(c)
DAV:   1    -0.135150404529E+03    0.12005E-03   -0.29242E-03  1116   0.123E-01    0.182E-02
RMM:   2    -0.135150423997E+03   -0.19468E-04   -0.16801E-04   967   0.286E-02    0.174E-02
RMM:   3    -0.135150420322E+03    0.36756E-05   -0.16748E-05   568   0.158E-02
 105 F= -.13515042E+03 E0= -.13514677E+03  d E =0.104982E-03
quench:  g(F)=  0.000E+00 g(S)=  0.000E+00 dE (1.order)= 0.000E+00
 bond charge predicted
       N       E                     dE             d eps       ncg     rms          rms(c)
DAV:   1    -0.135150201550E+03    0.22245E-03   -0.56455E-03  1008   0.155E-01    0.249E-02
RMM:   2    -0.135150230798E+03   -0.29248E-04   -0.33026E-04  1176   0.387E-02    0.167E-02
RMM:   3    -0.135150231358E+03   -0.55981E-06   -0.23771E-05   590   0.201E-02
 106 F= -.13515023E+03 E0= -.13514658E+03  d E =0.188964E-03
quench:  g(F)=  0.000E+00 g(S)=  0.000E+00 dE (1.order)= 0.000E+00
 bond charge predicted
       N       E                     dE             d eps       ncg     rms          rms(c)
DAV:   1    -0.135149913512E+03    0.31729E-03   -0.94042E-03  1062   0.219E-01    0.323E-02
RMM:   2    -0.135149971448E+03   -0.57936E-04   -0.59175E-04  1292   0.492E-02    0.293E-02
RMM:   3    -0.135149964361E+03    0.70871E-05   -0.47383E-05   697   0.185E-02
 107 F= -.13514996E+03 E0= -.13514631E+03  d E =0.266997E-03
quench:  g(F)=  0.000E+00 g(S)=  0.000E+00 dE (1.order)= 0.000E+00
 bond charge predicted
       N       E                     dE             d eps       ncg     rms          rms(c)
DAV:   1    -0.135149738319E+03    0.23313E-03   -0.85586E-03  1125   0.211E-01    0.317E-02
RMM:   2    -0.135149786543E+03   -0.48224E-04   -0.49830E-04  1237   0.462E-02    0.237E-02
RMM:   3    -0.135149788335E+03   -0.17923E-05   -0.33060E-05   653   0.194E-02
 108 F= -.13514979E+03 E0= -.13514614E+03  d E =0.176026E-03
quench:  g(F)=  0.000E+00 g(S)=  0.000E+00 dE (1.order)= 0.000E+00
 bond charge predicted
       N       E                     dE             d eps       ncg     rms          rms(c)
DAV:   1    -0.135149672793E+03    0.11375E-03   -0.32263E-03  1341   0.173E-01    0.212E-02
RMM:   2    -0.135149699789E+03   -0.26996E-04   -0.23207E-04  1046   0.345E-02    0.254E-02
RMM:   3    -0.135149692475E+03    0.73136E-05   -0.20270E-05   588   0.159E-02
 109 F= -.13514969E+03 E0= -.13514605E+03  d E =0.958601E-04
quench:  g(F)=  0.000E+00 g(S)=  0.000E+00 dE (1.order)= 0.000E+00
 bond charge predicted
       N       E                     dE             d eps       ncg     rms          rms(c)
DAV:   1    -0.135149531428E+03    0.16836E-03   -0.37637E-03  1062   0.138E-01    0.224E-02
RMM:   2    -0.135149559437E+03   -0.28009E-04   -0.22301E-04  1097   0.340E-02    0.237E-02
RMM:   3    -0.135149551260E+03    0.81767E-05   -0.20962E-05   596   0.164E-02
 110 F= -.13514955E+03 E0= -.13514591E+03  d E =0.141215E-03
quench:  g(F)=  0.000E+00 g(S)=  0.000E+00 dE (1.order)= 0.000E+00
 bond charge predicted
       N       E                     dE             d eps       ncg     rms          rms(c)
DAV:   1    -0.135149307098E+03    0.25234E-03   -0.73001E-03  1044   0.187E-01    0.293E-02
RMM:   2    -0.135149346631E+03   -0.39533E-04   -0.46123E-04  1257   0.456E-02    0.187E-02
RMM:   3    -0.135149340577E+03    0.60537E-05   -0.36856E-05   632   0.225E-02
 111 F= -.13514934E+03 E0= -.13514569E+03  d E =0.210683E-03
quench:  g(F)=  0.000E+00 g(S)=  0.000E+00 dE (1.order)= 0.000E+00
 bond charge predicted
       N       E                     dE             d eps       ncg     rms          rms(c)
DAV:   1    -0.135149082646E+03    0.26399E-03   -0.91161E-03  1053   0.204E-01    0.317E-02
RMM:   2    -0.135149136655E+03   -0.54009E-04   -0.52989E-04  1258   0.489E-02    0.270E-02
RMM:   3    -0.135149133893E+03    0.27619E-05   -0.38582E-05   687   0.221E-02
 112 F= -.13514913E+03 E0= -.13514550E+03  d E =0.206684E-03
quench:  g(F)=  0.000E+00 g(S)=  0.000E+00 dE (1.order)= 0.000E+00
 bond charge predicted
       N       E                     dE             d eps       ncg     rms          rms(c)
DAV:   1    -0.135148948051E+03    0.18860E-03   -0.55474E-03  1197   0.184E-01    0.276E-02
RMM:   2    -0.135148990397E+03   -0.42346E-04   -0.39955E-04  1146   0.395E-02    0.281E-02
RMM:   3    -0.135148980192E+03    0.10205E-04   -0.27303E-05   635   0.141E-02    0.229E-02
RMM:   4    -0.135148977635E+03    0.25573E-05   -0.10011E-05   547   0.138E-02
 113 F= -.13514898E+03 E0= -.13514534E+03  d E =0.156258E-03
quench:  g(F)=  0.000E+00 g(S)=  0.000E+00 dE (1.order)= 0.000E+00
 bond charge predicted
       N       E                     dE             d eps       ncg     rms          rms(c)
DAV:   1    -0.135148853484E+03    0.12671E-03   -0.41245E-03  1116   0.147E-01    0.211E-02
RMM:   2    -0.135148883003E+03   -0.29519E-04   -0.21543E-04  1072   0.304E-02    0.243E-02
RMM:   3    -0.135148872592E+03    0.10410E-04   -0.17565E-05   579   0.151E-02    0.182E-02
RMM:   4    -0.135148869931E+03    0.26611E-05   -0.70213E-06   537   0.130E-02
 114 F= -.13514887E+03 E0= -.13514524E+03  d E =0.107704E-03
quench:  g(F)=  0.000E+00 g(S)=  0.000E+00 dE (1.order)= 0.000E+00
 bond charge predicted
       N       E                     dE             d eps       ncg     rms          rms(c)
DAV:   1    -0.135148667564E+03    0.20503E-03   -0.62901E-03  1008   0.152E-01    0.254E-02
RMM:   2    -0.135148691803E+03   -0.24239E-04   -0.28138E-04  1254   0.338E-02    0.167E-02
RMM:   3    -0.135148691501E+03    0.30158E-06   -0.25602E-05   601   0.176E-02
 115 F= -.13514869E+03 E0= -.13514508E+03  d E =0.178430E-03
quench:  g(F)=  0.000E+00 g(S)=  0.000E+00 dE (1.order)= 0.000E+00
 bond charge predicted
       N       E                     dE             d eps       ncg     rms          rms(c)
DAV:   1    -0.135148403968E+03    0.28783E-03   -0.10737E-02  1008   0.201E-01    0.335E-02
RMM:   2    -0.135148454010E+03   -0.50043E-04   -0.55649E-04  1337   0.470E-02    0.203E-02
RMM:   3    -0.135148457418E+03   -0.34079E-05   -0.34516E-05   649   0.220E-02
 116 F= -.13514846E+03 E0= -.13514485E+03  d E =0.234083E-03
quench:  g(F)=  0.000E+00 g(S)=  0.000E+00 dE (1.order)= 0.000E+00
 bond charge predicted
       N       E                     dE             d eps       ncg     rms          rms(c)
DAV:   1    -0.135148174081E+03    0.27993E-03   -0.92628E-03  1188   0.239E-01    0.351E-02
RMM:   2    -0.135148252549E+03   -0.78468E-04   -0.63369E-04  1218   0.480E-02    0.442E-02
RMM:   3    -0.135148223398E+03    0.29151E-04   -0.53294E-05   722   0.184E-02    0.307E-02
RMM:   4    -0.135148216664E+03    0.67340E-05   -0.19058E-05   563   0.198E-02
 117 F= -.13514822E+03 E0= -.13514459E+03  d E =0.240755E-03
quench:  g(F)=  0.000E+00 g(S)=  0.000E+00 dE (1.order)= 0.000E+00
 bond charge predicted
       N       E                     dE             d eps       ncg     rms          rms(c)
DAV:   1    -0.135148099086E+03    0.12431E-03   -0.50070E-03  1170   0.163E-01    0.237E-02
RMM:   2    -0.135148138314E+03   -0.39228E-04   -0.27353E-04  1098   0.345E-02    0.277E-02
RMM:   3    -0.135148122539E+03    0.15775E-04   -0.21871E-05   592   0.170E-02    0.198E-02
RMM:   4    -0.135148119629E+03    0.29097E-05   -0.89639E-06   543   0.136E-02
 118 F= -.13514812E+03 E0= -.13514450E+03  d E =0.970345E-04
quench:  g(F)=  0.000E+00 g(S)=  0.000E+00 dE (1.order)= 0.000E+00
 bond charge predicted
       N       E                     dE             d eps       ncg     rms          rms(c)
DAV:   1    -0.135147934171E+03    0.18837E-03   -0.51527E-03  1008   0.143E-01    0.241E-02
RMM:   2    -0.135147957397E+03   -0.23226E-04   -0.24674E-04  1167   0.326E-02    0.192E-02
RMM:   3    -0.135147956236E+03    0.11615E-05   -0.22857E-05   609   0.166E-02
 119 F= -.13514796E+03 E0= -.13514435E+03  d E =0.163394E-03
quench:  g(F)=  0.000E+00 g(S)=  0.000E+00 dE (1.order)= 0.000E+00
 bond charge predicted
       N       E                     dE             d eps       ncg     rms          rms(c)
DAV:   1    -0.135147697071E+03    0.26033E-03   -0.92118E-03  1008   0.195E-01    0.317E-02
RMM:   2    -0.135147747855E+03   -0.50784E-04   -0.51228E-04  1284   0.484E-02    0.237E-02
RMM:   3    -0.135147745731E+03    0.21242E-05   -0.39651E-05   700   0.235E-02
 120 F= -.13514775E+03 E0= -.13514415E+03  d E =0.210505E-03
quench:  g(F)=  0.000E+00 g(S)=  0.000E+00 dE (1.order)= 0.000E+00
 bond charge predicted
       N       E                     dE             d eps       ncg     rms          rms(c)
DAV:   1    -0.135147498645E+03    0.24921E-03   -0.78253E-03  1197   0.220E-01    0.335E-02
RMM:   2    -0.135147568258E+03   -0.69613E-04   -0.55045E-04  1201   0.468E-02    0.457E-02
RMM:   3    -0.135147539076E+03    0.29182E-04   -0.48868E-05   702   0.185E-02    0.275E-02
RMM:   4    -0.135147535670E+03    0.34055E-05   -0.15878E-05   559   0.180E-02
 121 F= -.13514754E+03 E0= -.13514392E+03  d E =0.210060E-03
quench:  g(F)=  0.000E+00 g(S)=  0.000E+00 dE (1.order)= 0.000E+00
 bond charge predicted
       N       E                     dE             d eps       ncg     rms          rms(c)
DAV:   1    -0.135147416143E+03    0.12293E-03   -0.47736E-03  1161   0.164E-01    0.232E-02
RMM:   2    -0.135147456322E+03   -0.40179E-04   -0.26647E-04  1098   0.336E-02    0.290E-02
RMM:   3    -0.135147438335E+03    0.17987E-04   -0.21403E-05   599   0.160E-02    0.190E-02
RMM:   4    -0.135147436039E+03    0.22968E-05   -0.91853E-06   543   0.140E-02
 122 F= -.13514744E+03 E0= -.13514382E+03  d E =0.996317E-04
quench:  g(F)=  0.000E+00 g(S)=  0.000E+00 dE (1.order)= 0.000E+00
 bond charge predicted
       N       E                     dE             d eps       ncg     rms          rms(c)
DAV:   1    -0.135147247445E+03    0.19089E-03   -0.54271E-03  1008   0.147E-01    0.244E-02
RMM:   2    -0.135147270488E+03   -0.23043E-04   -0.25359E-04  1179   0.331E-02    0.180E-02
RMM:   3    -0.135147270399E+03    0.88483E-07   -0.22804E-05   602   0.171E-02
 123 F= -.13514727E+03 E0= -.13514367E+03  d E =0.165639E-03
quench:  g(F)=  0.000E+00 g(S)=  0.000E+00 dE (1.order)= 0.000E+00
 bond charge predicted
       N       E                     dE             d eps       ncg     rms          rms(c)
DAV:   1    -0.135147024114E+03    0.24637E-03   -0.92594E-03  1008   0.194E-01    0.314E-02
RMM:   2    -0.135147072743E+03   -0.48629E-04   -0.50509E-04  1282   0.479E-02    0.228E-02
RMM:   3    -0.135147072058E+03    0.68500E-06   -0.37750E-05   681   0.231E-02
 124 F= -.13514707E+03 E0= -.13514348E+03  d E =0.198341E-03
quench:  g(F)=  0.000E+00 g(S)=  0.000E+00 dE (1.order)= 0.000E+00
 bond charge predicted
       N       E                     dE             d eps       ncg     rms          rms(c)
DAV:   1    -0.135146868916E+03    0.20383E-03   -0.68227E-03  1224   0.212E-01    0.312E-02
RMM:   2    -0.135146933008E+03   -0.64092E-04   -0.48132E-04  1175   0.438E-02    0.447E-02
RMM:   3    -0.135146904666E+03    0.28342E-04   -0.41853E-05   677   0.175E-02    0.252E-02
RMM:   4    -0.135146901801E+03    0.28651E-05   -0.14669E-05   554   0.174E-02
 125 F= -.13514690E+03 E0= -.13514330E+03  d E =0.170257E-03
quench:  g(F)=  0.000E+00 g(S)=  0.000E+00 dE (1.order)= 0.000E+00
 bond charge predicted
       N       E                     dE             d eps       ncg     rms          rms(c)
DAV:   1    -0.135146805786E+03    0.98880E-04   -0.36905E-03  1215   0.147E-01    0.204E-02
RMM:   2    -0.135146837003E+03   -0.31217E-04   -0.20000E-04  1010   0.303E-02    0.261E-02
RMM:   3    -0.135146822691E+03    0.14312E-04   -0.20628E-05   580   0.167E-02    0.163E-02
RMM:   4    -0.135146821469E+03    0.12222E-05   -0.76770E-06   540   0.122E-02
 126 F= -.13514682E+03 E0= -.13514321E+03  d E =0.803318E-04
quench:  g(F)=  0.000E+00 g(S)=  0.000E+00 dE (1.order)= 0.000E+00
 bond charge predicted
       N       E                     dE             d eps       ncg     rms          rms(c)
DAV:   1    -0.135146619497E+03    0.20319E-03   -0.54503E-03  1008   0.145E-01    0.244E-02
RMM:   2    -0.135146641259E+03   -0.21761E-04   -0.24708E-04  1179   0.322E-02    0.166E-02
RMM:   3    -0.135146643426E+03   -0.21679E-05   -0.21176E-05   607   0.153E-02
 127 F= -.13514664E+03 E0= -.13514305E+03  d E =0.178043E-03
quench:  g(F)=  0.000E+00 g(S)=  0.000E+00 dE (1.order)= 0.000E+00
 bond charge predicted
       N       E                     dE             d eps       ncg     rms          rms(c)
DAV:   1    -0.135146345124E+03    0.29613E-03   -0.11136E-02  1008   0.213E-01    0.348E-02
RMM:   2    -0.135146399075E+03   -0.53951E-04   -0.59791E-04  1340   0.512E-02    0.226E-02
RMM:   3    -0.135146398081E+03    0.99425E-06   -0.43041E-05   727   0.242E-02
 128 F= -.13514640E+03 E0= -.13514282E+03  d E =0.245346E-03
quench:  g(F)=  0.000E+00 g(S)=  0.000E+00 dE (1.order)= 0.000E+00
 bond charge predicted
       N       E                     dE             d eps       ncg     rms          rms(c)
DAV:   1    -0.135146117583E+03    0.28149E-03   -0.10426E-02  1134   0.248E-01    0.370E-02
RMM:   2    -0.135146210440E+03   -0.92857E-04   -0.71682E-04  1256   0.530E-02    0.490E-02
RMM:   3    -0.135146172286E+03    0.38153E-04   -0.61583E-05   765   0.197E-02    0.319E-02
RMM:   4    -0.135146164174E+03    0.81125E-05   -0.19406E-05   571   0.194E-02
 129 F= -.13514616E+03 E0= -.13514257E+03  d E =0.233907E-03
quench:  g(F)=  0.000E+00 g(S)=  0.000E+00 dE (1.order)= 0.000E+00
 bond charge predicted
       N       E                     dE             d eps       ncg     rms          rms(c)
DAV:   1    -0.135146094769E+03    0.77517E-04   -0.41731E-03  1215   0.152E-01    0.222E-02
RMM:   2    -0.135146131154E+03   -0.36384E-04   -0.23080E-04  1030   0.337E-02    0.287E-02
RMM:   3    -0.135146113705E+03    0.17449E-04   -0.23809E-05   585   0.183E-02    0.175E-02
RMM:   4    -0.135146112204E+03    0.15007E-05   -0.84217E-06   545   0.120E-02
 130 F= -.13514611E+03 E0= -.13514251E+03  d E =0.519695E-04
quench:  g(F)=  0.000E+00 g(S)=  0.000E+00 dE (1.order)= 0.000E+00
 bond charge predicted
       N       E                     dE             d eps       ncg     rms          rms(c)
DAV:   1    -0.135145968955E+03    0.14475E-03   -0.36961E-03  1008   0.123E-01    0.206E-02
RMM:   2    -0.135145985256E+03   -0.16301E-04   -0.17344E-04  1028   0.283E-02    0.167E-02
RMM:   3    -0.135145985206E+03    0.50561E-07   -0.18064E-05   577   0.155E-02
 131 F= -.13514599E+03 E0= -.13514240E+03  d E =0.126999E-03
quench:  g(F)=  0.000E+00 g(S)=  0.000E+00 dE (1.order)= 0.000E+00
 bond charge predicted
       N       E                     dE             d eps       ncg     rms          rms(c)
DAV:   1    -0.135145747709E+03    0.23755E-03   -0.77628E-03  1008   0.178E-01    0.292E-02
RMM:   2    -0.135145787795E+03   -0.40086E-04   -0.42621E-04  1255   0.443E-02    0.210E-02
RMM:   3    -0.135145786644E+03    0.11513E-05   -0.33086E-05   653   0.221E-02
 132 F= -.13514579E+03 E0= -.13514221E+03  d E =0.198562E-03
quench:  g(F)=  0.000E+00 g(S)=  0.000E+00 dE (1.order)= 0.000E+00
 bond charge predicted
       N       E                     dE             d eps       ncg     rms          rms(c)
DAV:   1    -0.135145522448E+03    0.26535E-03   -0.88863E-03  1116   0.224E-01    0.344E-02
RMM:   2    -0.135145596112E+03   -0.73664E-04   -0.60792E-04  1250   0.501E-02    0.439E-02
RMM:   3    -0.135145568416E+03    0.27696E-04   -0.51909E-05   720   0.187E-02    0.296E-02
RMM:   4    -0.135145562461E+03    0.59550E-05   -0.17337E-05   560   0.191E-02
 133 F= -.13514556E+03 E0= -.13514197E+03  d E =0.224183E-03
quench:  g(F)=  0.000E+00 g(S)=  0.000E+00 dE (1.order)= 0.000E+00
 bond charge predicted
       N       E                     dE             d eps       ncg     rms          rms(c)
DAV:   1    -0.135145464530E+03    0.10389E-03   -0.51069E-03  1170   0.163E-01    0.239E-02
RMM:   2    -0.135145503882E+03   -0.39353E-04   -0.27868E-04  1093   0.340E-02    0.285E-02
RMM:   3    -0.135145488591E+03    0.15291E-04   -0.22795E-05   608   0.164E-02    0.200E-02
RMM:   4    -0.135145485475E+03    0.31158E-05   -0.94626E-06   545   0.141E-02
 134 F= -.13514549E+03 E0= -.13514189E+03  d E =0.769852E-04
quench:  g(F)=  0.000E+00 g(S)=  0.000E+00 dE (1.order)= 0.000E+00
 bond charge predicted
       N       E                     dE             d eps       ncg     rms          rms(c)
DAV:   1    -0.135145384015E+03    0.10458E-03   -0.28464E-03  1053   0.111E-01    0.182E-02
RMM:   2    -0.135145398831E+03   -0.14815E-04   -0.15246E-04   928   0.277E-02    0.177E-02
RMM:   3    -0.135145395638E+03    0.31926E-05   -0.17885E-05   549   0.173E-02
 135 F= -.13514540E+03 E0= -.13514182E+03  d E =0.898373E-04
quench:  g(F)=  0.000E+00 g(S)=  0.000E+00 dE (1.order)= 0.000E+00
 bond charge predicted
       N       E                     dE             d eps       ncg     rms          rms(c)
DAV:   1    -0.135145232892E+03    0.16594E-03   -0.46383E-03  1008   0.134E-01    0.222E-02
RMM:   2    -0.135145256701E+03   -0.23809E-04   -0.24686E-04  1095   0.334E-02    0.162E-02
RMM:   3    -0.135145258753E+03   -0.20521E-05   -0.19381E-05   580   0.175E-02
 136 F= -.13514526E+03 E0= -.13514168E+03  d E =0.136885E-03
quench:  g(F)=  0.000E+00 g(S)=  0.000E+00 dE (1.order)= 0.000E+00
 bond charge predicted
       N       E                     dE             d eps       ncg     rms          rms(c)
DAV:   1    -0.135145050979E+03    0.20572E-03   -0.60020E-03  1107   0.177E-01    0.272E-02
RMM:   2    -0.135145090069E+03   -0.39090E-04   -0.39235E-04  1189   0.404E-02    0.275E-02
RMM:   3    -0.135145080874E+03    0.91951E-05   -0.33818E-05   643   0.170E-02
 137 F= -.13514508E+03 E0= -.13514150E+03  d E =0.177879E-03
quench:  g(F)=  0.000E+00 g(S)=  0.000E+00 dE (1.order)= 0.000E+00
 bond charge predicted
       N       E                     dE             d eps       ncg     rms          rms(c)
DAV:   1    -0.135144961263E+03    0.12881E-03   -0.46211E-03  1107   0.153E-01    0.235E-02
RMM:   2    -0.135145000314E+03   -0.39052E-04   -0.29777E-04  1069   0.402E-02    0.267E-02
RMM:   3    -0.135144987795E+03    0.12519E-04   -0.25360E-05   593   0.192E-02    0.199E-02
RMM:   4    -0.135144984286E+03    0.35088E-05   -0.96153E-06   542   0.138E-02
 138 F= -.13514498E+03 E0= -.13514141E+03  d E =0.965882E-04
quench:  g(F)=  0.000E+00 g(S)=  0.000E+00 dE (1.order)= 0.000E+00
 bond charge predicted
       N       E                     dE             d eps       ncg     rms          rms(c)
DAV:   1    -0.135144883070E+03    0.10473E-03   -0.29832E-03  1008   0.103E-01    0.176E-02
RMM:   2    -0.135144897254E+03   -0.14184E-04   -0.15715E-04   924   0.249E-02    0.127E-02
RMM:   3    -0.135144897926E+03   -0.67205E-06   -0.12944E-05   557   0.138E-02
 139 F= -.13514490E+03 E0= -.13514130E+03  d E =0.863603E-04
quench:  g(F)=  0.000E+00 g(S)=  0.000E+00 dE (1.order)= 0.000E+00
 bond charge predicted
       N       E                     dE             d eps       ncg     rms          rms(c)
DAV:   1    -0.135144750552E+03    0.14670E-03   -0.40392E-03  1017   0.131E-01    0.213E-02
RMM:   2    -0.135144776095E+03   -0.25543E-04   -0.21567E-04  1062   0.317E-02    0.213E-02
RMM:   3    -0.135144771192E+03    0.49030E-05   -0.17729E-05   583   0.152E-02
 140 F= -.13514477E+03 E0= -.13514119E+03  d E =0.126734E-03
quench:  g(F)=  0.000E+00 g(S)=  0.000E+00 dE (1.order)= 0.000E+00
 bond charge predicted
       N       E                     dE             d eps       ncg     rms          rms(c)
DAV:   1    -0.135144586909E+03    0.18919E-03   -0.57024E-03  1044   0.163E-01    0.253E-02
RMM:   2    -0.135144618997E+03   -0.32088E-04   -0.36571E-04  1180   0.384E-02    0.157E-02
RMM:   3    -0.135144615138E+03    0.38586E-05   -0.21010E-05   581   0.168E-02
 141 F= -.13514462E+03 E0= -.13514102E+03  d E =0.156054E-03
quench:  g(F)=  0.000E+00 g(S)=  0.000E+00 dE (1.order)= 0.000E+00
 bond charge predicted
       N       E                     dE             d eps       ncg     rms          rms(c)
DAV:   1    -0.135144470469E+03    0.14853E-03   -0.49043E-03  1125   0.163E-01    0.241E-02
RMM:   2    -0.135144512507E+03   -0.42038E-04   -0.30449E-04  1079   0.386E-02    0.313E-02
RMM:   3    -0.135144496034E+03    0.16473E-04   -0.24905E-05   610   0.179E-02    0.201E-02
RMM:   4    -0.135144492420E+03    0.36147E-05   -0.86384E-06   544   0.132E-02
 142 F= -.13514449E+03 E0= -.13514091E+03  d E =0.122718E-03
quench:  g(F)=  0.000E+00 g(S)=  0.000E+00 dE (1.order)= 0.000E+00
 bond charge predicted
       N       E                     dE             d eps       ncg     rms          rms(c)
[...]
 bond charge predicted
       N       E                     dE             d eps       ncg     rms          rms(c)
DAV:   1    -0.135088665363E+03    0.95758E-04   -0.29550E-03  1116   0.120E-01    0.160E-02
RMM:   2    -0.135088684006E+03   -0.18643E-04   -0.17965E-04   958   0.296E-02    0.161E-02
RMM:   3    -0.135088681081E+03    0.29246E-05   -0.15631E-05   563   0.163E-02
 664 F= -.13508868E+03 E0= -.13508687E+03  d E =0.778584E-04
quench:  g(F)=  0.000E+00 g(S)=  0.000E+00 dE (1.order)= 0.000E+00
 bond charge predicted
       N       E                     dE             d eps       ncg     rms          rms(c)
DAV:   1    -0.135088571098E+03    0.11291E-03   -0.36435E-03  1161   0.135E-01    0.179E-02
RMM:   2    -0.135088592195E+03   -0.21097E-04   -0.22807E-04  1008   0.300E-02    0.136E-02
RMM:   3    -0.135088589443E+03    0.27520E-05   -0.17370E-05   578   0.137E-02
 665 F= -.13508859E+03 E0= -.13508677E+03  d E =0.916381E-04
quench:  g(F)=  0.000E+00 g(S)=  0.000E+00 dE (1.order)= 0.000E+00
 bond charge predicted
       N       E                     dE             d eps       ncg     rms          rms(c)
DAV:   1    -0.135088474041E+03    0.11815E-03   -0.39363E-03  1044   0.134E-01    0.188E-02
RMM:   2    -0.135088498685E+03   -0.24644E-04   -0.24370E-04  1099   0.342E-02    0.178E-02
RMM:   3    -0.135088495214E+03    0.34705E-05   -0.16758E-05   569   0.160E-02
 666 F= -.13508850E+03 E0= -.13508669E+03  d E =0.942291E-04
quench:  g(F)=  0.000E+00 g(S)=  0.000E+00 dE (1.order)= 0.000E+00
 bond charge predicted
       N       E                     dE             d eps       ncg     rms          rms(c)
DAV:   1    -0.135088395778E+03    0.10291E-03   -0.35214E-03  1224   0.139E-01    0.181E-02
RMM:   2    -0.135088418161E+03   -0.22384E-04   -0.23610E-04   985   0.295E-02    0.143E-02
RMM:   3    -0.135088415151E+03    0.30101E-05   -0.17636E-05   582   0.137E-02
 667 F= -.13508842E+03 E0= -.13508660E+03  d E =0.800630E-04
quench:  g(F)=  0.000E+00 g(S)=  0.000E+00 dE (1.order)= 0.000E+00
 bond charge predicted
       N       E                     dE             d eps       ncg     rms          rms(c)
DAV:   1    -0.135088328330E+03    0.89832E-04   -0.27262E-03  1188   0.119E-01    0.158E-02
RMM:   2    -0.135088346736E+03   -0.18407E-04   -0.16932E-04   920   0.283E-02    0.168E-02
RMM:   3    -0.135088343259E+03    0.34773E-05   -0.15829E-05   563   0.165E-02
 668 F= -.13508834E+03 E0= -.13508654E+03  d E =0.718921E-04
quench:  g(F)=  0.000E+00 g(S)=  0.000E+00 dE (1.order)= 0.000E+00
 bond charge predicted
       N       E                     dE             d eps       ncg     rms          rms(c)
DAV:   1    -0.135088243914E+03    0.10282E-03   -0.31857E-03  1161   0.127E-01    0.168E-02
RMM:   2    -0.135088262166E+03   -0.18251E-04   -0.19797E-04   972   0.283E-02    0.127E-02
RMM:   3    -0.135088259681E+03    0.24849E-05   -0.15645E-05   567   0.137E-02
 669 F= -.13508826E+03 E0= -.13508645E+03  d E =0.835784E-04
quench:  g(F)=  0.000E+00 g(S)=  0.000E+00 dE (1.order)= 0.000E+00
 bond charge predicted
       N       E                     dE             d eps       ncg     rms          rms(c)
DAV:   1    -0.135088141575E+03    0.12059E-03   -0.38321E-03  1008   0.129E-01    0.184E-02
RMM:   2    -0.135088164495E+03   -0.22919E-04   -0.22839E-04  1091   0.335E-02    0.174E-02
RMM:   3    -0.135088161394E+03    0.31009E-05   -0.15724E-05   567   0.156E-02
 670 F= -.13508816E+03 E0= -.13508636E+03  d E =0.982869E-04
quench:  g(F)=  0.000E+00 g(S)=  0.000E+00 dE (1.order)= 0.000E+00
 bond charge predicted
       N       E                     dE             d eps       ncg     rms          rms(c)
DAV:   1    -0.135088051358E+03    0.11314E-03   -0.38431E-03  1197   0.143E-01    0.187E-02
RMM:   2    -0.135088074880E+03   -0.23522E-04   -0.25233E-04  1014   0.306E-02    0.140E-02
RMM:   3    -0.135088072110E+03    0.27700E-05   -0.18381E-05   585   0.136E-02
 671 F= -.13508807E+03 E0= -.13508626E+03  d E =0.892836E-04
quench:  g(F)=  0.000E+00 g(S)=  0.000E+00 dE (1.order)= 0.000E+00
 bond charge predicted
       N       E                     dE             d eps       ncg     rms          rms(c)
DAV:   1    -0.135087987673E+03    0.87207E-04   -0.27499E-03  1206   0.119E-01    0.160E-02
RMM:   2    -0.135088006714E+03   -0.19041E-04   -0.17308E-04   911   0.285E-02    0.173E-02
RMM:   3    -0.135088002962E+03    0.37518E-05   -0.16378E-05   564   0.168E-02
 672 F= -.13508800E+03 E0= -.13508620E+03  d E =0.691478E-04
quench:  g(F)=  0.000E+00 g(S)=  0.000E+00 dE (1.order)= 0.000E+00
 bond charge predicted
       N       E                     dE             d eps       ncg     rms          rms(c)
DAV:   1    -0.135087911870E+03    0.94844E-04   -0.29010E-03  1179   0.123E-01    0.160E-02
RMM:   2    -0.135087928711E+03   -0.16841E-04   -0.18111E-04   946   0.271E-02    0.122E-02
RMM:   3    -0.135087926418E+03    0.22930E-05   -0.14363E-05   561   0.136E-02
 673 F= -.13508793E+03 E0= -.13508612E+03  d E =0.765444E-04
quench:  g(F)=  0.000E+00 g(S)=  0.000E+00 dE (1.order)= 0.000E+00
 bond charge predicted
       N       E                     dE             d eps       ncg     rms          rms(c)
DAV:   1    -0.135087810104E+03    0.11861E-03   -0.36699E-03  1008   0.127E-01    0.177E-02
RMM:   2    -0.135087831810E+03   -0.21706E-04   -0.21690E-04  1070   0.330E-02    0.167E-02
RMM:   3    -0.135087829030E+03    0.27804E-05   -0.15562E-05   565   0.156E-02
 674 F= -.13508783E+03 E0= -.13508603E+03  d E =0.973882E-04
quench:  g(F)=  0.000E+00 g(S)=  0.000E+00 dE (1.order)= 0.000E+00
 bond charge predicted
       N       E                     dE             d eps       ncg     rms          rms(c)
DAV:   1    -0.135087703974E+03    0.12784E-03   -0.42544E-03  1179   0.147E-01    0.196E-02
RMM:   2    -0.135087729296E+03   -0.25321E-04   -0.27485E-04  1050   0.320E-02    0.144E-02
RMM:   3    -0.135087726050E+03    0.32453E-05   -0.18228E-05   591   0.133E-02
 675 F= -.13508773E+03 E0= -.13508593E+03  d E =0.102979E-03
quench:  g(F)=  0.000E+00 g(S)=  0.000E+00 dE (1.order)= 0.000E+00
 bond charge predicted
       N       E                     dE             d eps       ncg     rms          rms(c)
DAV:   1    -0.135087625094E+03    0.10420E-03   -0.33915E-03  1143   0.130E-01    0.177E-02
RMM:   2    -0.135087647770E+03   -0.22676E-04   -0.21299E-04   998   0.317E-02    0.181E-02
RMM:   3    -0.135087643961E+03    0.38091E-05   -0.18469E-05   568   0.170E-02
 676 F= -.13508764E+03 E0= -.13508585E+03  d E =0.820896E-04
quench:  g(F)=  0.000E+00 g(S)=  0.000E+00 dE (1.order)= 0.000E+00
 bond charge predicted
       N       E                     dE             d eps       ncg     rms          rms(c)
DAV:   1    -0.135087554125E+03    0.93644E-04   -0.29411E-03  1224   0.127E-01    0.164E-02
RMM:   2    -0.135087572226E+03   -0.18101E-04   -0.19055E-04   932   0.271E-02    0.130E-02
RMM:   3    -0.135087569884E+03    0.23425E-05   -0.16192E-05   566   0.140E-02
 677 F= -.13508757E+03 E0= -.13508577E+03  d E =0.740769E-04
quench:  g(F)=  0.000E+00 g(S)=  0.000E+00 dE (1.order)= 0.000E+00
 bond charge predicted
       N       E                     dE             d eps       ncg     rms          rms(c)
DAV:   1    -0.135087472477E+03    0.99749E-04   -0.30376E-03  1098   0.120E-01    0.162E-02
RMM:   2    -0.135087491929E+03   -0.19451E-04   -0.18544E-04   974   0.301E-02    0.164E-02
RMM:   3    -0.135087488652E+03    0.32767E-05   -0.15550E-05   563   0.160E-02
 678 F= -.13508749E+03 E0= -.13508570E+03  d E =0.812318E-04
quench:  g(F)=  0.000E+00 g(S)=  0.000E+00 dE (1.order)= 0.000E+00
 bond charge predicted
       N       E                     dE             d eps       ncg     rms          rms(c)
DAV:   1    -0.135087372481E+03    0.11945E-03   -0.37883E-03  1161   0.137E-01    0.182E-02
RMM:   2    -0.135087394012E+03   -0.21531E-04   -0.23540E-04  1012   0.305E-02    0.134E-02
RMM:   3    -0.135087391131E+03    0.28811E-05   -0.17860E-05   579   0.139E-02
 679 F= -.13508739E+03 E0= -.13508560E+03  d E =0.975212E-04
quench:  g(F)=  0.000E+00 g(S)=  0.000E+00 dE (1.order)= 0.000E+00
 bond charge predicted
       N       E                     dE             d eps       ncg     rms          rms(c)
DAV:   1    -0.135087267566E+03    0.12645E-03   -0.41354E-03  1017   0.135E-01    0.191E-02
RMM:   2    -0.135087293486E+03   -0.25920E-04   -0.25381E-04  1119   0.349E-02    0.183E-02
RMM:   3    -0.135087289715E+03    0.37709E-05   -0.17045E-05   575   0.159E-02
 680 F= -.13508729E+03 E0= -.13508550E+03  d E =0.101416E-03
quench:  g(F)=  0.000E+00 g(S)=  0.000E+00 dE (1.order)= 0.000E+00
 bond charge predicted
       N       E                     dE             d eps       ncg     rms          rms(c)
DAV:   1    -0.135087183090E+03    0.11040E-03   -0.37107E-03  1224   0.142E-01    0.185E-02
RMM:   2    -0.135087206251E+03   -0.23161E-04   -0.24763E-04   997   0.300E-02    0.140E-02
RMM:   3    -0.135087203155E+03    0.30962E-05   -0.17966E-05   580   0.137E-02
 681 F= -.13508720E+03 E0= -.13508541E+03  d E =0.865600E-04
quench:  g(F)=  0.000E+00 g(S)=  0.000E+00 dE (1.order)= 0.000E+00
 bond charge predicted
       N       E                     dE             d eps       ncg     rms          rms(c)
DAV:   1    -0.135087113071E+03    0.93180E-04   -0.29201E-03  1143   0.121E-01    0.163E-02
RMM:   2    -0.135087133377E+03   -0.20306E-04   -0.18515E-04   953   0.298E-02    0.173E-02
RMM:   3    -0.135087129385E+03    0.39915E-05   -0.16251E-05   564   0.164E-02
 682 F= -.13508713E+03 E0= -.13508535E+03  d E =0.737699E-04
quench:  g(F)=  0.000E+00 g(S)=  0.000E+00 dE (1.order)= 0.000E+00
 bond charge predicted
       N       E                     dE             d eps       ncg     rms          rms(c)
DAV:   1    -0.135087024942E+03    0.10844E-03   -0.33553E-03  1161   0.130E-01    0.171E-02
RMM:   2    -0.135087044174E+03   -0.19232E-04   -0.21019E-04   983   0.292E-02    0.124E-02
RMM:   3    -0.135087041393E+03    0.27808E-05   -0.16159E-05   568   0.141E-02
 683 F= -.13508704E+03 E0= -.13508526E+03  d E =0.879919E-04
quench:  g(F)=  0.000E+00 g(S)=  0.000E+00 dE (1.order)= 0.000E+00
 bond charge predicted
       N       E                     dE             d eps       ncg     rms          rms(c)
DAV:   1    -0.135086916519E+03    0.12766E-03   -0.40966E-03  1008   0.131E-01    0.188E-02
RMM:   2    -0.135086940584E+03   -0.24065E-04   -0.24294E-04  1106   0.344E-02    0.175E-02
RMM:   3    -0.135086937608E+03    0.29761E-05   -0.16538E-05   574   0.157E-02
 684 F= -.13508694E+03 E0= -.13508516E+03  d E =0.103786E-03
quench:  g(F)=  0.000E+00 g(S)=  0.000E+00 dE (1.order)= 0.000E+00
 bond charge predicted
       N       E                     dE             d eps       ncg     rms          rms(c)
DAV:   1    -0.135086814834E+03    0.12575E-03   -0.43288E-03  1197   0.150E-01    0.197E-02
RMM:   2    -0.135086841203E+03   -0.26369E-04   -0.28300E-04  1046   0.322E-02    0.143E-02
RMM:   3    -0.135086838307E+03    0.28960E-05   -0.20087E-05   596   0.137E-02
 685 F= -.13508684E+03 E0= -.13508506E+03  d E =0.993007E-04
quench:  g(F)=  0.000E+00 g(S)=  0.000E+00 dE (1.order)= 0.000E+00
 bond charge predicted
       N       E                     dE             d eps       ncg     rms          rms(c)
DAV:   1    -0.135086738634E+03    0.10257E-03   -0.32849E-03  1206   0.131E-01    0.173E-02
RMM:   2    -0.135086760169E+03   -0.21535E-04   -0.20660E-04   976   0.304E-02    0.173E-02
RMM:   3    -0.135086756744E+03    0.34247E-05   -0.16668E-05   565   0.165E-02
 686 F= -.13508676E+03 E0= -.13508498E+03  d E =0.815631E-04
quench:  g(F)=  0.000E+00 g(S)=  0.000E+00 dE (1.order)= 0.000E+00
 bond charge predicted
       N       E                     dE             d eps       ncg     rms          rms(c)
DAV:   1    -0.135086659035E+03    0.10113E-03   -0.31953E-03  1206   0.131E-01    0.169E-02
RMM:   2    -0.135086678396E+03   -0.19361E-04   -0.20318E-04   958   0.281E-02    0.134E-02
RMM:   3    -0.135086675865E+03    0.25316E-05   -0.16398E-05   574   0.138E-02
 687 F= -.13508668E+03 E0= -.13508490E+03  d E =0.808794E-04
quench:  g(F)=  0.000E+00 g(S)=  0.000E+00 dE (1.order)= 0.000E+00
 bond charge predicted
       N       E                     dE             d eps       ncg     rms          rms(c)
DAV:   1    -0.135086558182E+03    0.12021E-03   -0.37368E-03  1071   0.132E-01    0.180E-02
RMM:   2    -0.135086580664E+03   -0.22483E-04   -0.22709E-04  1076   0.329E-02    0.166E-02
RMM:   3    -0.135086577449E+03    0.32153E-05   -0.15931E-05   567   0.157E-02
 688 F= -.13508658E+03 E0= -.13508481E+03  d E =0.984158E-04
quench:  g(F)=  0.000E+00 g(S)=  0.000E+00 dE (1.order)= 0.000E+00
 bond charge predicted
       N       E                     dE             d eps       ncg     rms          rms(c)
DAV:   1    -0.135086448429E+03    0.13223E-03   -0.44500E-03  1179   0.151E-01    0.200E-02
RMM:   2    -0.135086474720E+03   -0.26290E-04   -0.28119E-04  1059   0.326E-02    0.152E-02
RMM:   3    -0.135086471499E+03    0.32210E-05   -0.20905E-05   602   0.138E-02
 689 F= -.13508647E+03 E0= -.13508470E+03  d E =0.105950E-03
quench:  g(F)=  0.000E+00 g(S)=  0.000E+00 dE (1.order)= 0.000E+00
 bond charge predicted
       N       E                     dE             d eps       ncg     rms          rms(c)
DAV:   1    -0.135086365923E+03    0.10880E-03   -0.35955E-03  1197   0.134E-01    0.183E-02
RMM:   2    -0.135086389687E+03   -0.23764E-04   -0.22820E-04  1011   0.318E-02    0.183E-02
RMM:   3    -0.135086385600E+03    0.40866E-05   -0.17500E-05   568   0.167E-02
 690 F= -.13508639E+03 E0= -.13508462E+03  d E =0.858984E-04
quench:  g(F)=  0.000E+00 g(S)=  0.000E+00 dE (1.order)= 0.000E+00
 bond charge predicted
       N       E                     dE             d eps       ncg     rms          rms(c)
DAV:   1    -0.135086294280E+03    0.95407E-04   -0.30403E-03  1224   0.130E-01    0.167E-02
RMM:   2    -0.135086313840E+03   -0.19560E-04   -0.20118E-04   944   0.276E-02    0.139E-02
RMM:   3    -0.135086311017E+03    0.28231E-05   -0.15858E-05   572   0.136E-02
 691 F= -.13508631E+03 E0= -.13508454E+03  d E =0.745833E-04
quench:  g(F)=  0.000E+00 g(S)=  0.000E+00 dE (1.order)= 0.000E+00
 bond charge predicted
       N       E                     dE             d eps       ncg     rms          rms(c)
DAV:   1    -0.135086210917E+03    0.10292E-03   -0.30987E-03  1125   0.123E-01    0.164E-02
RMM:   2    -0.135086230137E+03   -0.19219E-04   -0.18943E-04   969   0.299E-02    0.157E-02
RMM:   3    -0.135086227339E+03    0.27980E-05   -0.15698E-05   563   0.163E-02
 692 F= -.13508623E+03 E0= -.13508446E+03  d E =0.836783E-04
quench:  g(F)=  0.000E+00 g(S)=  0.000E+00 dE (1.order)= 0.000E+00
 bond charge predicted
       N       E                     dE             d eps       ncg     rms          rms(c)
DAV:   1    -0.135086111415E+03    0.11872E-03   -0.38551E-03  1161   0.139E-01    0.183E-02
RMM:   2    -0.135086133889E+03   -0.22474E-04   -0.24050E-04  1025   0.308E-02    0.139E-02
RMM:   3    -0.135086130934E+03    0.29554E-05   -0.18229E-05   582   0.137E-02
 693 F= -.13508613E+03 E0= -.13508436E+03  d E =0.964048E-04
quench:  g(F)=  0.000E+00 g(S)=  0.000E+00 dE (1.order)= 0.000E+00
 bond charge predicted
       N       E                     dE             d eps       ncg     rms          rms(c)
DAV:   1    -0.135086013511E+03    0.12038E-03   -0.38810E-03  1080   0.133E-01    0.186E-02
RMM:   2    -0.135086038225E+03   -0.24714E-04   -0.24225E-04  1074   0.334E-02    0.179E-02
RMM:   3    -0.135086034425E+03    0.37997E-05   -0.17169E-05   571   0.163E-02
 694 F= -.13508603E+03 E0= -.13508428E+03  d E =0.965088E-04
quench:  g(F)=  0.000E+00 g(S)=  0.000E+00 dE (1.order)= 0.000E+00
 bond charge predicted
       N       E                     dE             d eps       ncg     rms          rms(c)
DAV:   1    -0.135085935381E+03    0.10284E-03   -0.34037E-03  1224   0.136E-01    0.176E-02
RMM:   2    -0.135085956927E+03   -0.21547E-04   -0.22552E-04   971   0.288E-02    0.138E-02
RMM:   3    -0.135085953921E+03    0.30060E-05   -0.17038E-05   579   0.136E-02
 695 F= -.13508595E+03 E0= -.13508419E+03  d E =0.805040E-04
quench:  g(F)=  0.000E+00 g(S)=  0.000E+00 dE (1.order)= 0.000E+00
 bond charge predicted
       N       E                     dE             d eps       ncg     rms          rms(c)
DAV:   1    -0.135085862492E+03    0.94435E-04   -0.28857E-03  1143   0.119E-01    0.159E-02
RMM:   2    -0.135085881475E+03   -0.18983E-04   -0.17820E-04   941   0.292E-02    0.163E-02
RMM:   3    -0.135085878191E+03    0.32847E-05   -0.15746E-05   563   0.163E-02
 696 F= -.13508588E+03 E0= -.13508412E+03  d E =0.757305E-04
quench:  g(F)=  0.000E+00 g(S)=  0.000E+00 dE (1.order)= 0.000E+00
 bond charge predicted
       N       E                     dE             d eps       ncg     rms          rms(c)
DAV:   1    -0.135085774576E+03    0.10690E-03   -0.33112E-03  1170   0.130E-01    0.169E-02
RMM:   2    -0.135085793660E+03   -0.19084E-04   -0.20523E-04   970   0.285E-02    0.125E-02
RMM:   3    -0.135085790837E+03    0.28234E-05   -0.14752E-05   567   0.134E-02
 697 F= -.13508579E+03 E0= -.13508403E+03  d E =0.873541E-04
quench:  g(F)=  0.000E+00 g(S)=  0.000E+00 dE (1.order)= 0.000E+00
 bond charge predicted
       N       E                     dE             d eps       ncg     rms          rms(c)
DAV:   1    -0.135085675263E+03    0.11840E-03   -0.36238E-03  1008   0.126E-01    0.179E-02
RMM:   2    -0.135085697300E+03   -0.22036E-04   -0.21727E-04  1062   0.326E-02    0.172E-02
RMM:   3    -0.135085694256E+03    0.30440E-05   -0.16636E-05   566   0.159E-02
 698 F= -.13508569E+03 E0= -.13508394E+03  d E =0.965811E-04
quench:  g(F)=  0.000E+00 g(S)=  0.000E+00 dE (1.order)= 0.000E+00
 bond charge predicted
       N       E                     dE             d eps       ncg     rms          rms(c)
DAV:   1    -0.135085587940E+03    0.10936E-03   -0.35318E-03  1206   0.137E-01    0.179E-02
RMM:   2    -0.135085609906E+03   -0.21966E-04   -0.23254E-04   980   0.291E-02    0.132E-02
RMM:   3    -0.135085607196E+03    0.27107E-05   -0.15793E-05   580   0.133E-02
 699 F= -.13508561E+03 E0= -.13508385E+03  d E =0.870599E-04
quench:  g(F)=  0.000E+00 g(S)=  0.000E+00 dE (1.order)= 0.000E+00
 bond charge predicted
       N       E                     dE             d eps       ncg     rms          rms(c)
DAV:   1    -0.135085520930E+03    0.88977E-04   -0.26003E-03  1206   0.116E-01    0.156E-02
RMM:   2    -0.135085537965E+03   -0.17035E-04   -0.15950E-04   891   0.271E-02    0.161E-02
RMM:   3    -0.135085535204E+03    0.27604E-05   -0.17004E-05   561   0.169E-02
 700 F= -.13508554E+03 E0= -.13508378E+03  d E =0.719914E-04
quench:  g(F)=  0.000E+00 g(S)=  0.000E+00 dE (1.order)= 0.000E+00
 bond charge predicted
       N       E                     dE             d eps       ncg     rms          rms(c)
DAV:   1    -0.135085441466E+03    0.96498E-04   -0.28132E-03  1188   0.121E-01    0.156E-02
RMM:   2    -0.135085457917E+03   -0.16450E-04   -0.17279E-04   928   0.262E-02    0.119E-02
RMM:   3    -0.135085455787E+03    0.21297E-05   -0.13883E-05   559   0.134E-02
 701 F= -.13508546E+03 E0= -.13508370E+03  d E =0.794173E-04
quench:  g(F)=  0.000E+00 g(S)=  0.000E+00 dE (1.order)= 0.000E+00
 bond charge predicted
       N       E                     dE             d eps       ncg     rms          rms(c)
DAV:   1    -0.135085344859E+03    0.11306E-03   -0.33185E-03  1035   0.123E-01    0.170E-02
RMM:   2    -0.135085364916E+03   -0.20057E-04   -0.20020E-04  1020   0.312E-02    0.161E-02
RMM:   3    -0.135085362099E+03    0.28169E-05   -0.15222E-05   563   0.159E-02
 702 F= -.13508536E+03 E0= -.13508362E+03  d E =0.936880E-04
quench:  g(F)=  0.000E+00 g(S)=  0.000E+00 dE (1.order)= 0.000E+00
 bond charge predicted
       N       E                     dE             d eps       ncg     rms          rms(c)
