 vasp.5.4.4.18Apr17-6-g9f103f2a35 (build Feb 06 2024 13:54:16) complex          
  
 POSCAR found type information on POSCAR  Ru N  O 
 03/POSCAR found :  3 types and      40 ions
 scaLAPACK will be used

 ----------------------------------------------------------------------------- 
|                                                                             |
|  ADVICE TO THIS USER RUNNING 'VASP/VAMP'   (HEAR YOUR MASTER'S VOICE ...):  |
|                                                                             |
|      You enforced a specific xc-type in the INCAR file,                     |
|      a different type was found on the POTCAR file                          |
|          I HOPE YOU KNOW, WHAT YOU ARE  DOING                               |
|                                                                             |
 ----------------------------------------------------------------------------- 

 LDA part: xc-table for Pade appr. of Perdew
 POSCAR found type information on POSCAR  Ru N  O 
 00/POSCAR found :  3 types and      40 ions
 POSCAR found type information on POSCAR  Ru N  O 
 06/POSCAR found :  3 types and      40 ions
 Jacobian:    20.4921819155783     
 POSCAR, INCAR and KPOINTS ok, starting setup
 FFT: planning ...
 WAVECAR not read
 entering main loop
       N       E                     dE             d eps       ncg     rms          rms(c)
  Solvation turned off during non-self-consistent phase (first NELMDL steps)
DAV:   1     0.590788586990E+04    0.59079E+04   -0.33073E+05 18783   0.163E+03
DAV:   2    -0.791558392106E+02   -0.59870E+04   -0.57758E+04 16296   0.480E+02
DAV:   3    -0.330848058467E+03   -0.25169E+03   -0.23590E+03 20331   0.887E+01
DAV:   4    -0.342460589940E+03   -0.11613E+02   -0.11283E+02 19053   0.147E+01
DAV:   5    -0.342900318542E+03   -0.43973E+00   -0.43277E+00 21312   0.260E+00    0.665E+01
 Begin Solvation calculations
  rms_SCF =    5.41874356656255      tol =   0.541874356656255     
 Begin minimization
 Creating dielectric and ionic cavities
  area:      155.603274303319     
  volume:    747.063246368360     
  Acav:     8.169171900924228E-002
  Solving linear dielectric/ionic screening model
        iter                  A_solv                     rms
   LPB:       -0.749003878358424E+03   0.377407291375097E+03
   LPB:    0  -0.210099843400231E+01   0.973827859022777E+01  -0.720644E+01   0.000000E+00   0.287642E+02  -0.207288E+03
   LPB:    1  -0.570597586461872E+00   0.484282145667054E+01   0.136649E-01   0.000000E+00   0.171744E+03   0.944903E-14
   LPB:    2  -0.339021483948841E+00   0.162250000804045E+01   0.146622E-01   0.141025E+00   0.900094E+02   0.697824E-14
   LPB:    3  -0.227633728508408E+00   0.841150255738531E+00   0.254418E-01   0.277201E+00   0.747566E+02   0.117257E-13
   LPB:    4  -0.182668196676673E+00   0.101860793118608E+01   0.250615E-01   0.409810E+00   0.314313E+03   0.223675E-13
   LPB:    5  -0.157420882733845E+00   0.344001126329032E+00   0.242684E-01   0.579832E+00   0.461759E+02   0.235209E-13
  Finished solving LPB equations
  A_corr:   -7.572916372460296E-002
 End minimization
 Ecorr=   3674.46700628966     
 A_corr= -7.572916372460296E-002
 Ecorr_band=  -3674.54273545339     
 End Solvation calculations
RMM:   6    -0.326795438747E+03    0.16105E+02   -0.99945E+01 15267   0.194E+01    0.305E+01
 Begin Solvation calculations
  rms_SCF =    5.41874356656255      tol =   0.541874356656255     
 Begin minimization
 Creating dielectric and ionic cavities
  area:      153.317744023357     
  volume:    734.179210643077     
  Acav:     8.049181561226219E-002
  Solving linear dielectric/ionic screening model
        iter                  A_solv                     rms
   LPB:       -0.516818407451992E+01   0.408488912169025E+02
   LPB:    0  -0.175962475020386E+01   0.165046505132966E+02  -0.481794E+00   0.000000E+00   0.293683E+02  -0.141494E+02
   LPB:    1  -0.406663719017383E+00   0.154595045788583E+01   0.109092E-01   0.000000E+00   0.468086E+02  -0.629130E-15
   LPB:    2  -0.304113267008048E+00   0.799142010102500E+00   0.180564E-01   0.457947E-01   0.118310E+03   0.394897E-14
   LPB:    3  -0.264348287683632E+00   0.122785761035878E+01   0.304190E-01   0.230170E+00   0.630849E+02   0.112418E-13
   LPB:    4  -0.237521617057177E+00   0.814190992219542E+00   0.244117E-01   0.840646E+00   0.544301E+02   0.141024E-13
   LPB:    5  -0.220496601095019E+00   0.333809613999055E+00   0.213978E-01   0.724019E+00   0.835396E+02   0.170077E-13
  Finished solving LPB equations
  A_corr:   -0.140004785482757     
 End minimization
 Ecorr=   3688.53384406341     
 A_corr= -0.140004785482757     
 Ecorr_band=  -3688.67384884889     
 End Solvation calculations
RMM:   7    -0.412322407395E+03   -0.85527E+02   -0.15119E+02 15720   0.180E+01    0.855E+01
 Begin Solvation calculations
  rms_SCF =    5.41874356656255      tol =   0.541874356656255     
 Begin minimization
 Creating dielectric and ionic cavities
  area:      142.477567941358     
  volume:    752.226476179258     
  Acav:     7.480072316921275E-002
  Solving linear dielectric/ionic screening model
        iter                  A_solv                     rms
   LPB:       -0.725829563652048E+01   0.462706786007901E+02
   LPB:    0  -0.206569122039915E+01   0.220163365854286E+02   0.603415E+00   0.000000E+00   0.285222E+02   0.172107E+02
   LPB:    1  -0.355419601518606E+00   0.212147371492410E+01   0.963074E-02   0.000000E+00   0.617972E+02   0.136435E-14
   LPB:    2  -0.253333084680502E+00   0.128178644352739E+01   0.148348E-01   0.387508E-01   0.122862E+03   0.520257E-14
   LPB:    3  -0.230865953936472E+00   0.469654486615961E+00   0.180819E-01   0.180558E+00   0.705999E+02   0.224206E-14
   LPB:    4  -0.222062764820432E+00   0.231690350974196E+00   0.244941E-01   0.289252E+00   0.326522E+03   0.887090E-15
  Finished solving LPB equations
  A_corr:   -0.147262041651219     
 End minimization
 Ecorr=   3481.86417198605     
 A_corr= -0.147262041651219     
 Ecorr_band=  -3482.01143402771     
 End Solvation calculations
RMM:   8    -0.322367315238E+03    0.89955E+02   -0.42648E+01 15264   0.991E+00    0.188E+01
 Begin Solvation calculations
  rms_SCF =    5.41874356656255      tol =   0.541874356656255     
 Begin minimization
 Creating dielectric and ionic cavities
  area:      141.279790687260     
  volume:    750.329133512782     
  Acav:     7.417189011081170E-002
  Solving linear dielectric/ionic screening model
        iter                  A_solv                     rms
   LPB:       -0.105355842774992E+02   0.585557773283816E+02
   LPB:    0  -0.105348614897595E+02   0.585448613889618E+02  -0.710809E-02   0.000000E+00   0.286111E+02  -0.203370E+00
   LPB:    1  -0.114916461226735E+01   0.557659047180700E+01   0.912903E-02   0.000000E+00   0.656671E+02   0.511380E-17
   LPB:    2  -0.396453296538771E+00   0.949866438730232E+00   0.165794E-01   0.441588E-01   0.114601E+03  -0.368541E-14
   LPB:    3  -0.292085208893795E+00   0.345561200709894E+00   0.220348E-01   0.104328E+00   0.229447E+03  -0.293961E-14
   LPB:    4  -0.264985261062170E+00   0.165306639983678E+00   0.276217E-01   0.207138E+00   0.246990E+03  -0.254445E-14
  Finished solving LPB equations
  A_corr:   -0.190813370951359     
 End minimization
 Ecorr=   3453.02007826643     
 A_corr= -0.190813370951359     
 Ecorr_band=  -3453.21089163738     
 End Solvation calculations
RMM:   9    -0.347871600996E+03   -0.25504E+02   -0.20727E+01 15921   0.525E+00    0.464E+01
 Begin Solvation calculations
  rms_SCF =    5.41874356656255      tol =   0.541874356656255     
 Begin minimization
 Creating dielectric and ionic cavities
  area:      147.021305157015     
  volume:    748.440503829258     
  Acav:     7.718618520743283E-002
  Solving linear dielectric/ionic screening model
        iter                  A_solv                     rms
   LPB:       -0.654802947239823E+01   0.459155634138545E+02
   LPB:    0  -0.649615479965905E+01   0.457784522429384E+02   0.601249E-01   0.000000E+00   0.286997E+02   0.172556E+01
   LPB:    1  -0.742835751024289E+00   0.419044267095721E+01   0.912011E-02   0.000000E+00   0.660029E+02   0.505367E-16
   LPB:    2  -0.303961331149684E+00   0.685255147188475E+00   0.161320E-01   0.431255E-01   0.126134E+03  -0.246484E-14
   LPB:    3  -0.245049609194862E+00   0.229022676887077E+00   0.212801E-01   0.101760E+00   0.281573E+03  -0.265968E-14
   LPB:    4  -0.232850026642682E+00   0.134464690099747E+00   0.263125E-01   0.167476E+00   0.369052E+03  -0.250733E-14
  Finished solving LPB equations
  A_corr:   -0.155663841435249     
 End minimization
 Ecorr=   3422.25176247959     
 A_corr= -0.155663841435249     
 Ecorr_band=  -3422.40742632103     
 End Solvation calculations
RMM:  10    -0.318327553262E+03    0.29544E+02   -0.52623E+00 15305   0.302E+00    0.764E+00
 Begin Solvation calculations
  rms_SCF =    5.21416088637835      tol =   0.521416088637835     
 Begin minimization
 Creating dielectric and ionic cavities
  area:      137.431090957227     
  volume:    744.699283875054     
  Acav:     7.215132275254400E-002
  Solving linear dielectric/ionic screening model
        iter                  A_solv                     rms
   LPB:       -0.267566363895710E+00   0.199902141394299E+01
   LPB:    0  -0.266290277786657E+00   0.165321844019897E+01  -0.940142E-02   0.000000E+00   0.288751E+02  -0.271467E+00
   LPB:    1  -0.247553110642464E+00   0.434174201200210E+00   0.120751E-01   0.000000E+00   0.693233E+02  -0.119718E-16
   LPB:    2  -0.243786318218974E+00   0.220441386577933E+00   0.184285E-01   0.131725E+00   0.154152E+03  -0.138582E-15
   LPB:    3  -0.239753129395956E+00   0.307729028437225E+00   0.393934E-01   0.500890E+00   0.154729E+03  -0.319442E-15
   LPB:    4  -0.236247698796208E+00   0.268026791245203E+00   0.277498E-01   0.123383E+01   0.395168E+02  -0.403906E-15
  Finished solving LPB equations
  A_corr:   -0.164096376043664     
 End minimization
 Ecorr=   3398.28365642884     
 A_corr= -0.164096376043664     
 Ecorr_band=  -3398.44775280488     
 End Solvation calculations
RMM:  11    -0.317951358830E+03    0.37619E+00   -0.18195E+00 15340   0.201E+00    0.560E+00
 Begin Solvation calculations
  rms_SCF =    3.99422465989111      tol =   0.399422465989111     
 Begin minimization
 Creating dielectric and ionic cavities
  area:      136.721842970493     
  volume:    739.860853768118     
  Acav:     7.177896755950898E-002
  Solving linear dielectric/ionic screening model
        iter                  A_solv                     rms
   LPB:       -0.317313078590408E+00   0.392950977146826E+01
   LPB:    0  -0.316314453529125E+00   0.378627470656178E+01  -0.828430E-02   0.000000E+00   0.291019E+02  -0.241089E+00
   LPB:    1  -0.261818887079111E+00   0.466515793027209E+00   0.981696E-02   0.000000E+00   0.740420E+02  -0.160916E-16
   LPB:    2  -0.257026660969161E+00   0.966466827441019E-01   0.138973E-01   0.621187E-01   0.227483E+03   0.249422E-14
   LPB:    3  -0.254954114308252E+00   0.226445039646300E+00   0.418340E-01   0.143671E+00   0.304891E+03   0.926893E-15
   LPB:    4  -0.252257990471495E+00   0.198217429398705E+00   0.375236E-01   0.145031E+01   0.376257E+02   0.437749E-15
  Finished solving LPB equations
  A_corr:   -0.180479022911986     
 End minimization
 Ecorr=   3379.52223219144     
 A_corr= -0.180479022911986     
 Ecorr_band=  -3379.70271121435     
 End Solvation calculations
RMM:  12    -0.317653843534E+03    0.29752E+00   -0.38546E-01 15658   0.934E-01    0.290E+00
 Begin Solvation calculations
  rms_SCF =    1.95096113987121      tol =   0.195096113987121     
 Begin minimization
 Creating dielectric and ionic cavities
  area:      136.476363273752     
  volume:    736.707567244903     
  Acav:     7.165009071871985E-002
  Solving linear dielectric/ionic screening model
        iter                  A_solv                     rms
   LPB:       -0.281520088515466E+00   0.744166700532489E+00
   LPB:    0  -0.279369511545903E+00   0.873048699890783E+00   0.121264E-01   0.000000E+00   0.292497E+02   0.354694E+00
   LPB:    1  -0.267536279901603E+00   0.467049225381816E+00   0.135690E-01   0.000000E+00   0.136858E+03   0.182293E-16
   LPB:    2  -0.265807028373944E+00   0.153720789434864E+00   0.151428E-01   0.130947E+00   0.896664E+02  -0.549324E-15
   LPB:    3  -0.264280569828220E+00   0.131067837465140E+00   0.346326E-01   0.385965E+00   0.142523E+03  -0.617119E-15
   LPB:    4  -0.262441584094516E+00   0.188134219434104E+00   0.436133E-01   0.956663E+00   0.430389E+02  -0.582512E-15
  Finished solving LPB equations
  A_corr:   -0.190791493375796     
 End minimization
 Ecorr=   3357.07854464550     
 A_corr= -0.190791493375796     
 Ecorr_band=  -3357.26933613887     
 End Solvation calculations
RMM:  13    -0.317699428467E+03   -0.45585E-01   -0.23972E-01 15518   0.714E-01    0.340E+00
 Begin Solvation calculations
  rms_SCF =    1.95096113987121      tol =   0.195096113987121     
 Begin minimization
 Creating dielectric and ionic cavities
  area:      137.173870795535     
  volume:    729.426917254077     
  Acav:     7.201628216765608E-002
  Solving linear dielectric/ionic screening model
        iter                  A_solv                     rms
   LPB:       -0.370904858709808E+00   0.138317196863107E+01
   LPB:    0  -0.363909021990683E+00   0.197102815027381E+01   0.217448E-01   0.000000E+00   0.295910E+02   0.643450E+00
   LPB:    1  -0.306690404999099E+00   0.900978672978171E+00   0.134526E-01   0.000000E+00   0.116811E+03   0.147603E-16
   LPB:    2  -0.300012093669044E+00   0.242149854861902E+00   0.142899E-01   0.109876E+00   0.100412E+03   0.111763E-13
   LPB:    3  -0.297038416705766E+00   0.234219001379674E+00   0.256720E-01   0.247855E+00   0.231460E+03   0.128995E-13
   LPB:    4  -0.294759772955009E+00   0.248821335208402E+00   0.279787E-01   0.703096E+00   0.666407E+02   0.138920E-13
   LPB:    5  -0.292321340150758E+00   0.175893479933406E+00   0.329920E-01   0.907514E+00   0.191857E+03   0.139527E-13
  Finished solving LPB equations
  A_corr:   -0.220305057983102     
 End minimization
 Ecorr=   3320.34044515322     
 A_corr= -0.220305057983102     
 Ecorr_band=  -3320.56075021120     
 End Solvation calculations
RMM:  14    -0.317633522139E+03    0.65906E-01   -0.11321E-01 15410   0.570E-01    0.176E+00
 Begin Solvation calculations
  rms_SCF =    1.95096113987121      tol =   0.195096113987121     
 Begin minimization
 Creating dielectric and ionic cavities
  area:      137.690426080537     
  volume:    726.551106935659     
  Acav:     7.228747369228201E-002
  Solving linear dielectric/ionic screening model
        iter                  A_solv                     rms
   LPB:       -0.324826180488140E+00   0.763808145281847E+00
   LPB:    0  -0.324042060044897E+00   0.104540893690982E+01   0.726339E-02   0.000000E+00   0.297259E+02   0.215910E+00
   LPB:    1  -0.310405575425477E+00   0.399484464962872E+00   0.134124E-01   0.000000E+00   0.917227E+02   0.150077E-17
   LPB:    2  -0.308403353736674E+00   0.125646231658659E+00   0.158284E-01   0.124417E+00   0.119696E+03  -0.265984E-14
   LPB:    3  -0.307254374360402E+00   0.214584226318722E+00   0.371826E-01   0.244285E+00   0.166376E+03  -0.329828E-14
   LPB:    4  -0.305582255857719E+00   0.254793343409941E+00   0.323092E-01   0.167482E+01   0.453238E+02  -0.349069E-14
   LPB:    5  -0.303645877241140E+00   0.102254199048636E+00   0.308807E-01   0.121161E+01   0.950444E+02  -0.296964E-14
  Finished solving LPB equations
  A_corr:   -0.231358403548858     
 End minimization
 Ecorr=   3295.62541835773     
 A_corr= -0.231358403548858     
 Ecorr_band=  -3295.85677676128     
 End Solvation calculations
RMM:  15    -0.317631305088E+03    0.22171E-02   -0.76989E-02 15500   0.420E-01    0.183E+00
 Begin Solvation calculations
  rms_SCF =    1.95096113987121      tol =   0.195096113987121     
 Begin minimization
 Creating dielectric and ionic cavities
  area:      138.196676187998     
  volume:    724.006047886252     
  Acav:     7.255325499869915E-002
  Solving linear dielectric/ionic screening model
        iter                  A_solv                     rms
   LPB:       -0.331088053300341E+00   0.837705793424167E+00
   LPB:    0  -0.330660328456942E+00   0.100879640564277E+01   0.535377E-02   0.000000E+00   0.298452E+02   0.159784E+00
   LPB:    1  -0.318252044647203E+00   0.305019686626517E+00   0.141993E-01   0.000000E+00   0.898749E+02  -0.533161E-17
   LPB:    2  -0.316630057945117E+00   0.850122585492375E-01   0.152944E-01   0.121359E+00   0.152311E+03  -0.870374E-15
   LPB:    3  -0.316058115980248E+00   0.929621572696930E-01   0.324450E-01   0.166222E+00   0.115666E+03  -0.119552E-14
   LPB:    4  -0.315631456817579E+00   0.145788130434806E+00   0.327947E-01   0.738030E+00   0.159534E+03  -0.121218E-14
  Finished solving LPB equations
  A_corr:   -0.243078201818880     
 End minimization
 Ecorr=   3283.30398485346     
 A_corr= -0.243078201818880     
 Ecorr_band=  -3283.54706305528     
 End Solvation calculations
RMM:  16    -0.317603175234E+03    0.28130E-01   -0.31649E-02 15418   0.269E-01    0.106E+00
 Begin Solvation calculations
  rms_SCF =    1.95096113987121      tol =   0.195096113987121     
 Begin minimization
 Creating dielectric and ionic cavities
  area:      138.457520848913     
  volume:    722.890537436849     
  Acav:     7.269019844567910E-002
  Solving linear dielectric/ionic screening model
        iter                  A_solv                     rms
   LPB:       -0.325864769378833E+00   0.612305239291363E+00
   LPB:    0  -0.325733724417872E+00   0.665171427107158E+00   0.296079E-02   0.000000E+00   0.298975E+02   0.885202E-01
   LPB:    1  -0.321849265116096E+00   0.181423652638333E+00   0.139399E-01   0.000000E+00   0.799836E+02  -0.451209E-18
   LPB:    2  -0.321276557717180E+00   0.884928980335476E-01   0.142494E-01   0.144233E+00   0.236949E+03  -0.129797E-14
   LPB:    3  -0.320909249591040E+00   0.128981351198188E+00   0.346390E-01   0.263833E+00   0.793800E+02  -0.145319E-14
   LPB:    4  -0.320399898942534E+00   0.103998945033675E+00   0.346845E-01   0.138489E+01   0.586828E+02  -0.181548E-14
  Finished solving LPB equations
  A_corr:   -0.247709700496855     
 End minimization
 Ecorr=   3275.16006822053     
 A_corr= -0.247709700496855     
 Ecorr_band=  -3275.40777792103     
 End Solvation calculations
RMM:  17    -0.317597497797E+03    0.56774E-02   -0.84719E-03 15813   0.127E-01    0.860E-01
 Begin Solvation calculations
  rms_SCF =    1.82726027721431      tol =   0.182726027721431     
 Begin minimization
 Creating dielectric and ionic cavities
  area:      138.741933375391     
  volume:    721.763985407847     
  Acav:     7.283951502208053E-002
  Solving linear dielectric/ionic screening model
        iter                  A_solv                     rms
   LPB:       -0.331970892684052E+00   0.657408492880625E+00
   LPB:    0  -0.331874872600719E+00   0.689962906667506E+00   0.253219E-02   0.000000E+00   0.299503E+02   0.758397E-01
   LPB:    1  -0.326833761140894E+00   0.172181421473594E+00   0.144649E-01   0.000000E+00   0.953673E+02   0.561824E-17
   LPB:    2  -0.326314797960562E+00   0.990407949201555E-01   0.136725E-01   0.108913E+00   0.232664E+03  -0.372413E-15
   LPB:    3  -0.326026778011427E+00   0.917740952504735E-01   0.288016E-01   0.263461E+00   0.759710E+02  -0.297321E-15
   LPB:    4  -0.325654758298890E+00   0.963949784947979E-01   0.374154E-01   0.994284E+00   0.764339E+02  -0.275627E-15
  Finished solving LPB equations
  A_corr:   -0.252815243276809     
 End minimization
 Ecorr=   3268.96167238207     
 A_corr= -0.252815243276809     
 Ecorr_band=  -3269.21448762535     
 End Solvation calculations
RMM:  18    -0.317593726375E+03    0.37714E-02   -0.24227E-03 13424   0.563E-02    0.696E-01
 Begin Solvation calculations
  rms_SCF =    1.49662596223770      tol =   0.149662596223770     
 Begin minimization
 Creating dielectric and ionic cavities
  area:      139.145295486053     
  volume:    720.392191452562     
  Acav:     7.305128013017795E-002
  Solving linear dielectric/ionic screening model
        iter                  A_solv                     rms
   LPB:       -0.345819245694259E+00   0.982322637126583E+00
   LPB:    0  -0.345819121941382E+00   0.984103160513903E+00   0.908085E-04   0.000000E+00   0.300146E+02   0.272558E-02
   LPB:    1  -0.335246493731300E+00   0.228823930499146E+00   0.145830E-01   0.000000E+00   0.952149E+02   0.182816E-18
   LPB:    2  -0.334164367790152E+00   0.127454820259525E+00   0.144349E-01   0.103401E+00   0.192789E+03   0.318821E-14
   LPB:    3  -0.333736594083919E+00   0.109991397412917E+00   0.247324E-01   0.230720E+00   0.780846E+02   0.372538E-14
   LPB:    4  -0.333362023101637E+00   0.109421988986263E+00   0.289662E-01   0.747644E+00   0.123346E+03   0.340242E-14
  Finished solving LPB equations
  A_corr:   -0.260310742971459     
 End minimization
 Ecorr=   3263.49497662333     
 A_corr= -0.260310742971459     
 Ecorr_band=  -3263.75528736630     
 End Solvation calculations
RMM:  19    -0.317594861631E+03   -0.11353E-02   -0.36010E-03 13076   0.841E-02    0.699E-01
 Begin Solvation calculations
  rms_SCF =    1.41618860358239      tol =   0.141618860358239     
 Begin minimization
 Creating dielectric and ionic cavities
  area:      139.747891152771     
  volume:    718.763895103723     
  Acav:     7.336764285520471E-002
  Solving linear dielectric/ionic screening model
        iter                  A_solv                     rms
   LPB:       -0.376597404568311E+00   0.157654210093985E+01
   LPB:    0  -0.376583382207860E+00   0.155701617020567E+01  -0.965401E-03   0.000000E+00   0.300909E+02  -0.290498E-01
   LPB:    1  -0.351150218076553E+00   0.357372565972056E+00   0.145578E-01   0.000000E+00   0.920125E+02   0.155560E-17
   LPB:    2  -0.348406904889408E+00   0.191204110478456E+00   0.147379E-01   0.106546E+00   0.182763E+03  -0.212020E-14
   LPB:    3  -0.347419282539008E+00   0.157925290975341E+00   0.236137E-01   0.224692E+00   0.844233E+02  -0.229587E-14
   LPB:    4  -0.346703809774924E+00   0.154120728598862E+00   0.261525E-01   0.654113E+00   0.156557E+03  -0.285393E-14
   LPB:    5  -0.346062540991622E+00   0.108202513763031E+00   0.277579E-01   0.844449E+00   0.106700E+03  -0.332688E-14
  Finished solving LPB equations
  A_corr:   -0.272694898136418     
 End minimization
 Ecorr=   3257.06964142672     
 A_corr= -0.272694898136418     
 Ecorr_band=  -3257.34233632485     
 End Solvation calculations
RMM:  20    -0.317597815814E+03   -0.29542E-02   -0.51557E-03 13470   0.987E-02    0.773E-01
 Begin Solvation calculations
  rms_SCF =    1.41618860358239      tol =   0.141618860358239     
 Begin minimization
 Creating dielectric and ionic cavities
  area:      140.238408457875     
  volume:    717.755658912749     
  Acav:     7.362516444038457E-002
  Solving linear dielectric/ionic screening model
        iter                  A_solv                     rms
   LPB:       -0.383461795765849E+00   0.159615900313998E+01
   LPB:    0  -0.383457553275724E+00   0.158535371357497E+01  -0.530599E-03   0.000000E+00   0.301382E+02  -0.159913E-01
   LPB:    1  -0.362035233453944E+00   0.362279577125198E+00   0.143326E-01   0.000000E+00   0.762390E+02   0.671773E-18
   LPB:    2  -0.359649354845189E+00   0.158725390339739E+00   0.136989E-01   0.116525E+00   0.203951E+03   0.105915E-14
   LPB:    3  -0.358955421211569E+00   0.136029257247324E+00   0.228413E-01   0.174435E+00   0.965108E+02   0.765442E-15
   LPB:    4  -0.358313098305260E+00   0.149053467701110E+00   0.295980E-01   0.714322E+00   0.113543E+03   0.771397E-15
   LPB:    5  -0.357564279907200E+00   0.108899566302134E+00   0.328549E-01   0.105023E+01   0.875814E+02   0.910778E-15
  Finished solving LPB equations
  A_corr:   -0.283939115466816     
 End minimization
 Ecorr=   3249.53347365085     
 A_corr= -0.283939115466816     
 Ecorr_band=  -3249.81741276631     
 End Solvation calculations
RMM:  21    -0.317597617754E+03    0.19806E-03   -0.37213E-03 12789   0.750E-02    0.737E-01
 Begin Solvation calculations
  rms_SCF =    1.41618860358239      tol =   0.141618860358239     
 Begin minimization
 Creating dielectric and ionic cavities
  area:      140.594798755002     
  volume:    717.186761561948     
  Acav:     7.381226934637587E-002
  Solving linear dielectric/ionic screening model
        iter                  A_solv                     rms
   LPB:       -0.383945921892048E+00   0.139127452468475E+01
   LPB:    0  -0.383932934353666E+00   0.137351516656486E+01  -0.927956E-03   0.000000E+00   0.301649E+02  -0.279917E-01
   LPB:    1  -0.370056557036921E+00   0.313884198521412E+00   0.140508E-01   0.000000E+00   0.692097E+02  -0.144716E-17
   LPB:    2  -0.368496850246241E+00   0.122451512144247E+00   0.129364E-01   0.122084E+00   0.232708E+03   0.199887E-14
   LPB:    3  -0.368081970224593E+00   0.991522167789769E-01   0.223165E-01   0.154194E+00   0.108565E+03   0.161099E-14
   LPB:    4  -0.367631137450510E+00   0.121295358865846E+00   0.340266E-01   0.712688E+00   0.917783E+02   0.165031E-14
  Finished solving LPB equations
  A_corr:   -0.293818868104135     
 End minimization
 Ecorr=   3242.99407244417     
 A_corr= -0.293818868104135     
 Ecorr_band=  -3243.28789131227     
 End Solvation calculations
RMM:  22    -0.317594491328E+03    0.31264E-02   -0.32073E-03 12604   0.643E-02    0.497E-01
 Begin Solvation calculations
  rms_SCF =    1.06790500119997      tol =   0.106790500119997     
 Begin minimization
 Creating dielectric and ionic cavities
  area:      140.837200204052     
  volume:    717.040344123211     
  Acav:     7.393953010712742E-002
  Solving linear dielectric/ionic screening model
        iter                  A_solv                     rms
   LPB:       -0.388214066259786E+00   0.132483225910003E+01
   LPB:    0  -0.388128691907802E+00   0.129703300426671E+01  -0.237891E-02   0.000000E+00   0.301718E+02  -0.717760E-01
   LPB:    1  -0.378029170941053E+00   0.286705081999518E+00   0.135232E-01   0.000000E+00   0.645749E+02  -0.558312E-18
   LPB:    2  -0.376884136066000E+00   0.117715398832730E+00   0.126976E-01   0.120747E+00   0.237674E+03  -0.181843E-14
   LPB:    3  -0.376367758708332E+00   0.719163837719977E-01   0.276002E-01   0.207470E+00   0.937392E+02  -0.201860E-14
   LPB:    4  -0.375745736282761E+00   0.104982845231129E+00   0.410210E-01   0.810485E+00   0.933100E+02  -0.220258E-14
  Finished solving LPB equations
  A_corr:   -0.301806206175634     
 End minimization
 Ecorr=   3239.07980815517     
 A_corr= -0.301806206175634     
 Ecorr_band=  -3239.38161436134     
 End Solvation calculations
RMM:  23    -0.317594969035E+03   -0.47771E-03   -0.17979E-03 12412   0.474E-02    0.470E-01
 Begin Solvation calculations
  rms_SCF =   0.990694005434081      tol =   9.906940054340814E-002
 Begin minimization
 Creating dielectric and ionic cavities
  area:      141.100504121459     
  volume:    717.014863666945     
  Acav:     7.407776466376603E-002
  Solving linear dielectric/ionic screening model
        iter                  A_solv                     rms
   LPB:       -0.403728162161935E+00   0.165884101665216E+01
   LPB:    0  -0.403499393700215E+00   0.161095063783886E+01  -0.389407E-02   0.000000E+00   0.301729E+02  -0.117496E+00
   LPB:    1  -0.388906349557292E+00   0.352147760808374E+00   0.133709E-01   0.000000E+00   0.618181E+02   0.356005E-17
   LPB:    2  -0.387292330008047E+00   0.123005815854610E+00   0.122391E-01   0.120830E+00   0.244399E+03  -0.563147E-15
   LPB:    3  -0.386742832786707E+00   0.645531883108855E-01   0.251922E-01   0.165402E+00   0.109185E+03  -0.593186E-15
   LPB:    4  -0.386120844690999E+00   0.108413606561900E+00   0.424440E-01   0.671840E+00   0.911831E+02  -0.944415E-15
   LPB:    5  -0.385549405174859E+00   0.114571071635844E+00   0.310971E-01   0.125396E+01   0.999846E+02  -0.128970E-14
   LPB:    6  -0.385121613044643E+00   0.500280772572092E-01   0.288223E-01   0.807707E+00   0.849433E+02  -0.280547E-14
  Finished solving LPB equations
  A_corr:   -0.311043848380877     
 End minimization
 Ecorr=   3233.98297873583     
 A_corr= -0.311043848380877     
 Ecorr_band=  -3234.29402258421     
 End Solvation calculations
RMM:  24    -0.317595744894E+03   -0.77586E-03   -0.16727E-03 12288   0.626E-02    0.535E-01
 Begin Solvation calculations
  rms_SCF =   0.990694005434081      tol =   9.906940054340814E-002
 Begin minimization
 Creating dielectric and ionic cavities
  area:      141.237463248256     
  volume:    717.132336767472     
  Acav:     7.414966820533428E-002
  Solving linear dielectric/ionic screening model
        iter                  A_solv                     rms
   LPB:       -0.403653423637095E+00   0.153401353625922E+01
   LPB:    0  -0.403280511027114E+00   0.147270665655587E+01  -0.497221E-02   0.000000E+00   0.301674E+02  -0.149999E+00
   LPB:    1  -0.393432435674739E+00   0.295214522193839E+00   0.123445E-01   0.000000E+00   0.587219E+02   0.104305E-16
   LPB:    2  -0.392159165819267E+00   0.790365652283865E-01   0.124529E-01   0.128167E+00   0.246685E+03  -0.105741E-14
   LPB:    3  -0.391942908359181E+00   0.253014761773095E-01   0.183928E-01   0.114993E+00   0.185776E+03  -0.120107E-14
   LPB:    4  -0.391838184189734E+00   0.428103660394922E-01   0.354549E-01   0.251217E+00   0.162586E+03  -0.124138E-14
  Finished solving LPB equations
  A_corr:   -0.317688515984399     
 End minimization
 Ecorr=   3232.96795615058     
 A_corr= -0.317688515984399     
 Ecorr_band=  -3233.28564466656     
 End Solvation calculations
RMM:  25    -0.317592723210E+03    0.30217E-02   -0.16402E-03 12521   0.433E-02    0.222E-01
 Begin Solvation calculations
  rms_SCF =   0.409656813504107      tol =   4.096568135041068E-002
 Begin minimization
 Creating dielectric and ionic cavities
  area:      141.363253729195     
  volume:    717.238423714820     
  Acav:     7.421570820782737E-002
  Solving linear dielectric/ionic screening model
        iter                  A_solv                     rms
   LPB:       -0.406318287323748E+00   0.126986357572345E+01
   LPB:    0  -0.406045387220132E+00   0.121448108254227E+01  -0.425386E-02   0.000000E+00   0.301625E+02  -0.128307E+00
   LPB:    1  -0.399337012287804E+00   0.244326776989516E+00   0.124689E-01   0.000000E+00   0.574888E+02  -0.494312E-18
   LPB:    2  -0.398502523250365E+00   0.726218988261631E-01   0.123647E-01   0.125444E+00   0.232428E+03   0.150766E-15
   LPB:    3  -0.398284198434755E+00   0.322350044459490E-01   0.236410E-01   0.136836E+00   0.124275E+03   0.163240E-15
   LPB:    4  -0.398099426398556E+00   0.533358813652396E-01   0.392071E-01   0.510309E+00   0.104223E+03   0.276247E-16
   LPB:    5  -0.397926443549777E+00   0.679199752634418E-01   0.341499E-01   0.107484E+01   0.952714E+02  -0.445961E-16
   LPB:    6  -0.397750144308130E+00   0.376796849276941E-01   0.332033E-01   0.104823E+01   0.720132E+02  -0.370979E-15
  Finished solving LPB equations
  A_corr:   -0.323534436100303     
 End minimization
 Ecorr=   3230.57249277986     
 A_corr= -0.323534436100303     
 Ecorr_band=  -3230.89602721596     
 End Solvation calculations
RMM:  26    -0.317592536547E+03    0.18666E-03   -0.65324E-04 11283   0.342E-02    0.189E-01
 Begin Solvation calculations
  rms_SCF =   0.342275598206835      tol =   3.422755982068350E-002
 Begin minimization
 Creating dielectric and ionic cavities
  area:      141.494047112824     
  volume:    717.354170328937     
  Acav:     7.428437473423254E-002
  Solving linear dielectric/ionic screening model
        iter                  A_solv                     rms
   LPB:       -0.414495483893956E+00   0.140869684676756E+01
   LPB:    0  -0.414154110616777E+00   0.134482828809070E+01  -0.475812E-02   0.000000E+00   0.301570E+02  -0.143491E+00
   LPB:    1  -0.406048945236062E+00   0.264232598171700E+00   0.122994E-01   0.000000E+00   0.580826E+02  -0.314852E-17
   LPB:    2  -0.405031721537654E+00   0.723555162235694E-01   0.123903E-01   0.124583E+00   0.240749E+03  -0.338993E-15
   LPB:    3  -0.404864745966155E+00   0.220997464677052E-01   0.179789E-01   0.113124E+00   0.177932E+03  -0.373297E-15
   LPB:    4  -0.404801474521043E+00   0.312459634724488E-01   0.309721E-01   0.219962E+00   0.157986E+03  -0.302483E-15
  Finished solving LPB equations
  A_corr:   -0.330517099786810     
 End minimization
 Ecorr=   3229.45419393681     
 A_corr= -0.330517099786810     
 Ecorr_band=  -3229.78471103659     
 End Solvation calculations
RMM:  27    -0.317592474429E+03    0.62118E-04   -0.13839E-03 12186   0.378E-02    0.127E-01
 Begin Solvation calculations
  rms_SCF =   0.163450237800134      tol =   1.634502378001339E-002
 Begin minimization
 Creating dielectric and ionic cavities
  area:      141.526863510639     
  volume:    717.425148155307     
  Acav:     7.430160334308532E-002
  Solving linear dielectric/ionic screening model
        iter                  A_solv                     rms
   LPB:       -0.408058805381661E+00   0.484545010406811E+00
   LPB:    0  -0.408021539273038E+00   0.467430551395661E+00  -0.157218E-02   0.000000E+00   0.301537E+02  -0.474070E-01
   LPB:    1  -0.407134119583753E+00   0.893588389623387E-01   0.119116E-01   0.000000E+00   0.565754E+02  -0.319673E-17
   LPB:    2  -0.407013989155115E+00   0.276790269040839E-01   0.129575E-01   0.124444E+00   0.202853E+03   0.338317E-16
   LPB:    3  -0.406953111517432E+00   0.177727165310628E-01   0.358954E-01   0.182931E+00   0.830992E+02  -0.199559E-16
   LPB:    4  -0.406851774503863E+00   0.239956078569286E-01   0.534970E-01   0.111691E+01   0.697935E+02   0.405408E-16
   LPB:    5  -0.406770336198156E+00   0.343132499720445E-01   0.357777E-01   0.120165E+01   0.127006E+03   0.159970E-15
   LPB:    6  -0.406713584094201E+00   0.312289844682738E-01   0.296797E-01   0.840051E+00   0.874599E+02  -0.329957E-16
   LPB:    7  -0.406678200079518E+00   0.139011930407850E-01   0.259260E-01   0.713756E+00   0.223672E+03  -0.267728E-15
  Finished solving LPB equations
  A_corr:   -0.332376596736433     
 End minimization
 Ecorr=   3227.88315160510     
 A_corr= -0.332376596736433     
 Ecorr_band=  -3228.21552820183     
 End Solvation calculations
RMM:  28    -0.317593465437E+03   -0.99101E-03   -0.98840E-04 11932   0.425E-02    0.310E-01
 Begin Solvation calculations
  rms_SCF =   0.163450237800134      tol =   1.634502378001339E-002
 Begin minimization
 Creating dielectric and ionic cavities
  area:      141.565992438103     
  volume:    717.584754579446     
  Acav:     7.432214603000388E-002
  Solving linear dielectric/ionic screening model
        iter                  A_solv                     rms
   LPB:       -0.415273910679850E+00   0.112022080586799E+01
   LPB:    0  -0.415080256216576E+00   0.107720701869152E+01  -0.358437E-02   0.000000E+00   0.301462E+02  -0.108055E+00
   LPB:    1  -0.410994241752348E+00   0.173699108969303E+00   0.110290E-01   0.000000E+00   0.568910E+02  -0.421373E-17
   LPB:    2  -0.410458949705447E+00   0.390167977175581E-01   0.129159E-01   0.111867E+00   0.207989E+03   0.344585E-15
   LPB:    3  -0.410381805899222E+00   0.122886337468591E-01   0.193196E-01   0.963467E-01   0.201357E+03   0.406543E-15
   LPB:    4  -0.410364467057732E+00   0.125211067043910E-01   0.235261E-01   0.184572E+00   0.233340E+03   0.413889E-15
  Finished solving LPB equations
  A_corr:   -0.336042321027728     
 End minimization
 Ecorr=   3227.31621661026     
 A_corr= -0.336042321027728     
 Ecorr_band=  -3227.65225893128     
 End Solvation calculations
RMM:  29    -0.317592622946E+03    0.84249E-03   -0.82135E-04 12284   0.295E-02    0.233E-01
 Begin Solvation calculations
  rms_SCF =   0.163450237800134      tol =   1.634502378001339E-002
 Begin minimization
 Creating dielectric and ionic cavities
  area:      141.555570232990     
  volume:    717.736183722629     
  Acav:     7.431667437231991E-002
  Solving linear dielectric/ionic screening model
        iter                  A_solv                     rms
   LPB:       -0.413242304683791E+00   0.690565926214785E+00
   LPB:    0  -0.413114114313549E+00   0.656467791695797E+00  -0.291660E-02   0.000000E+00   0.301391E+02  -0.879039E-01
   LPB:    1  -0.411663952674452E+00   0.931872500993091E-01   0.103891E-01   0.000000E+00   0.615054E+02   0.158321E-17
   LPB:    2  -0.411513617071171E+00   0.236805871399271E-01   0.125587E-01   0.857582E-01   0.192880E+03  -0.401339E-15
   LPB:    3  -0.411490994155650E+00   0.540533993354025E-02   0.214944E-01   0.879242E-01   0.112420E+03  -0.499054E-15
   LPB:    4  -0.411480753316574E+00   0.420112646136463E-02   0.348567E-01   0.279142E+00   0.169813E+03  -0.468543E-15
  Finished solving LPB equations
  A_corr:   -0.337164078944254     
 End minimization
 Ecorr=   3227.29104273578     
 A_corr= -0.337164078944254     
 Ecorr_band=  -3227.62820681473     
 End Solvation calculations
RMM:  30    -0.317594848142E+03   -0.22252E-02   -0.38744E-04 11089   0.216E-02    0.419E-01
 Begin Solvation calculations
  rms_SCF =   0.163450237800134      tol =   1.634502378001339E-002
 Begin minimization
 Creating dielectric and ionic cavities
  area:      141.486175148332     
  volume:    717.810750273853     
  Acav:     7.428024195287450E-002
  Solving linear dielectric/ionic screening model
        iter                  A_solv                     rms
   LPB:       -0.409248900221916E+00   0.201439305728481E+00
   LPB:    0  -0.409238946315561E+00   0.204953129291782E+00  -0.812777E-03   0.000000E+00   0.301356E+02  -0.244936E-01
   LPB:    1  -0.408745264892017E+00   0.464041030253186E-01   0.148040E-01   0.000000E+00   0.106441E+03  -0.154095E-17
   LPB:    2  -0.408688430733419E+00   0.287712351656681E-01   0.151016E-01   0.112855E+00   0.215726E+03  -0.747493E-16
   LPB:    3  -0.408672220571278E+00   0.182498160505388E-01   0.186501E-01   0.230952E+00   0.109903E+03  -0.252838E-15
   LPB:    4  -0.408663532185320E+00   0.152310933638161E-01   0.245563E-01   0.407071E+00   0.285034E+03  -0.214092E-15
  Finished solving LPB equations
  A_corr:   -0.334383290232445     
 End minimization
 Ecorr=   3228.02570211929     
 A_corr= -0.334383290232445     
 Ecorr_band=  -3228.36008540953     
 End Solvation calculations
RMM:  31    -0.317594278502E+03    0.56964E-03   -0.35401E-04 10200   0.247E-02    0.336E-01
 Begin Solvation calculations
  rms_SCF =   0.163450237800134      tol =   1.634502378001339E-002
 Begin minimization
 Creating dielectric and ionic cavities
  area:      141.468177400360     
  volume:    717.834069359855     
  Acav:     7.427079313518899E-002
  Solving linear dielectric/ionic screening model
        iter                  A_solv                     rms
   LPB:       -0.407865255425310E+00   0.812903486058505E-01
   LPB:    0  -0.407863108547654E+00   0.767945054703155E-01  -0.377473E-03   0.000000E+00   0.301345E+02  -0.113750E-01
   LPB:    1  -0.407801497215336E+00   0.195283640545895E-01   0.143095E-01   0.000000E+00   0.989438E+02   0.940360E-19
   LPB:    2  -0.407792865431795E+00   0.154753295270011E-01   0.160487E-01   0.124918E+00   0.238210E+03   0.408438E-16
   LPB:    3  -0.407784454879456E+00   0.146859568516225E-01   0.314750E-01   0.496820E+00   0.929243E+02   0.464051E-16
   LPB:    4  -0.407774872435941E+00   0.639741530975830E-02   0.370692E-01   0.967397E+00   0.403158E+03   0.742512E-17
  Finished solving LPB equations
  A_corr:   -0.333504079300752     
 End minimization
 Ecorr=   3228.05820511520     
 A_corr= -0.333504079300752     
 Ecorr_band=  -3228.39170919450     
 End Solvation calculations
RMM:  32    -0.317593676588E+03    0.60191E-03   -0.85170E-05  8849   0.120E-02    0.253E-01
 Begin Solvation calculations
  rms_SCF =   0.163450237800134      tol =   1.634502378001339E-002
 Begin minimization
 Creating dielectric and ionic cavities
  area:      141.446270185054     
  volume:    717.892144464239     
  Acav:     7.425929184715316E-002
  Solving linear dielectric/ionic screening model
        iter                  A_solv                     rms
   LPB:       -0.406816002149717E+00   0.107154886885643E+00
   LPB:    0  -0.406793644663429E+00   0.589299484914750E-01  -0.121819E-02   0.000000E+00   0.301318E+02  -0.367062E-01
   LPB:    1  -0.406650042453175E+00   0.270462883793242E-01   0.136354E-01   0.000000E+00   0.302301E+03  -0.171406E-17
   LPB:    2  -0.406637718573461E+00   0.180413182846463E-01   0.204647E-01   0.571808E-01   0.724642E+02  -0.170489E-15
   LPB:    3  -0.406632035158537E+00   0.128238741652334E-01   0.220907E-01   0.427226E+00   0.206061E+03  -0.189253E-15
   LPB:    4  -0.406623577586493E+00   0.861731649502936E-02   0.364648E-01   0.901513E+00   0.233098E+03  -0.203427E-15
  Finished solving LPB equations
  A_corr:   -0.332364285739340     
 End minimization
 Ecorr=   3228.09271107699     
 A_corr= -0.332364285739340     
 Ecorr_band=  -3228.42507536273     
 End Solvation calculations
RMM:  33    -0.317593409472E+03    0.26712E-03   -0.15833E-04  9254   0.144E-02    0.178E-01
 Begin Solvation calculations
  rms_SCF =   0.163450237800134      tol =   1.634502378001339E-002
 Begin minimization
 Creating dielectric and ionic cavities
  area:      141.446016968466     
  volume:    717.889979265582     
  Acav:     7.425915890844460E-002
  Solving linear dielectric/ionic screening model
        iter                  A_solv                     rms
   LPB:       -0.406318702141395E+00   0.782467458369675E-01
   LPB:    0  -0.406316418404265E+00   0.688690361929796E-01  -0.389336E-03   0.000000E+00   0.301319E+02  -0.117314E-01
   LPB:    1  -0.406279966664143E+00   0.160333232609943E-01   0.133168E-01   0.000000E+00   0.760272E+02  -0.511327E-18
   LPB:    2  -0.406276011405527E+00   0.898359119206264E-02   0.137268E-01   0.105265E+00   0.259916E+03   0.764374E-16
   LPB:    3  -0.406271875125771E+00   0.116070972596039E-01   0.404535E-01   0.354854E+00   0.758208E+02   0.834410E-16
   LPB:    4  -0.406263418593060E+00   0.769344027668098E-02   0.542314E-01   0.152506E+01   0.166096E+03   0.104836E-15
  Finished solving LPB equations
  A_corr:   -0.332004259684616     
 End minimization
 Ecorr=   3227.93985959749     
 A_corr= -0.332004259684616     
 Ecorr_band=  -3228.27186385717     
 End Solvation calculations
RMM:  34    -0.317593254998E+03    0.15447E-03   -0.56769E-05  6504   0.951E-03    0.130E-01
 Begin Solvation calculations
  rms_SCF =   0.163450237800134      tol =   1.634502378001339E-002
 Begin minimization
 Creating dielectric and ionic cavities
  area:      141.463705773117     
  volume:    717.876483577914     
  Acav:     7.426844553088628E-002
  Solving linear dielectric/ionic screening model
        iter                  A_solv                     rms
   LPB:       -0.406729638830881E+00   0.851325848708277E-01
   LPB:    0  -0.406722125362162E+00   0.507177218552445E-01  -0.706183E-03   0.000000E+00   0.301326E+02  -0.212791E-01
   LPB:    1  -0.406697244285269E+00   0.106164962472838E-01   0.124252E-01   0.000000E+00   0.724527E+02   0.752431E-18
   LPB:    2  -0.406695527717070E+00   0.553423550039125E-02   0.152570E-01   0.561855E-01   0.123028E+03  -0.980183E-16
   LPB:    3  -0.406694529494916E+00   0.467842672182369E-02   0.259067E-01   0.342471E+00   0.141256E+03  -0.105530E-15
   LPB:    4  -0.406693233175854E+00   0.757096782512861E-02   0.380856E-01   0.883357E+00   0.777264E+02  -0.105422E-15
  Finished solving LPB equations
  A_corr:   -0.332424787644967     
 End minimization
 Ecorr=   3227.53422895704     
 A_corr= -0.332424787644967     
 Ecorr_band=  -3227.86665374469     
 End Solvation calculations
RMM:  35    -0.317593098862E+03    0.15614E-03   -0.40113E-05  7361   0.779E-03    0.640E-02
 Begin Solvation calculations
  rms_SCF =   0.131047371584778      tol =   1.310473715847784E-002
 Begin minimization
 Creating dielectric and ionic cavities
  area:      141.469486816018     
  volume:    717.872129002787     
  Acav:     7.427148057840932E-002
  Solving linear dielectric/ionic screening model
        iter                  A_solv                     rms
   LPB:       -0.406977257381177E+00   0.257172578050654E-01
   LPB:    0  -0.406976745473005E+00   0.176392574032588E-01  -0.184328E-03   0.000000E+00   0.301328E+02  -0.555431E-02
   LPB:    1  -0.406973996749189E+00   0.512880893832455E-02   0.119606E-01   0.000000E+00   0.827888E+02   0.336435E-18
   LPB:    2  -0.406973617678820E+00   0.318677647421962E-02   0.161306E-01   0.102257E+00   0.142281E+03   0.443826E-17
   LPB:    3  -0.406972985638986E+00   0.426294818566969E-02   0.527858E-01   0.509516E+00   0.277469E+03   0.449887E-17
   LPB:    4  -0.406971947548609E+00   0.364827224458967E-02   0.379150E-01   0.228663E+01   0.132674E+03  -0.332094E-17
  Finished solving LPB equations
  A_corr:   -0.332700466970199     
 End minimization
 Ecorr=   3227.38619744167     
 A_corr= -0.332700466970199     
 Ecorr_band=  -3227.71889790864     
 End Solvation calculations
RMM:  36    -0.317593082284E+03    0.16578E-04   -0.18388E-05  5192   0.630E-03
 Begin Solvation calculations
  rms_SCF =   0.131047371584778      tol =   1.310473715847784E-002
 Begin minimization
 Creating dielectric and ionic cavities
  area:      141.483629652533     
  volume:    717.862381815428     
  Acav:     7.427890556757971E-002
  Solving linear dielectric/ionic screening model
        iter                  A_solv                     rms
   LPB:       -0.407739208062834E+00   0.696591724761146E-01
   LPB:    0  -0.407736272312990E+00   0.482858960498225E-01  -0.441420E-03   0.000000E+00   0.301332E+02  -0.133014E-01
   LPB:    1  -0.407720717380493E+00   0.988540389603772E-02   0.118464E-01   0.000000E+00   0.562195E+02  -0.766207E-18
   LPB:    2  -0.407719375884978E+00   0.370990734239893E-02   0.149507E-01   0.683357E-01   0.108786E+03  -0.239431E-15
   LPB:    3  -0.407718928836475E+00   0.327394099470957E-02   0.216973E-01   0.229625E+00   0.142928E+03  -0.257436E-15
   LPB:    4  -0.407718650927163E+00   0.263795597197236E-02   0.239841E-01   0.562381E+00   0.578555E+02  -0.264411E-15
  Finished solving LPB equations
  A_corr:   -0.333439745359583     
 End minimization
 Ecorr=   3226.96024732297     
 A_corr= -0.333439745359583     
 Ecorr_band=  -3227.29368706833     
 End Solvation calculations
   1 F= -.31759308E+03 E0= -.31758339E+03  d E =-.317593E+03
quench:  g(F)=  0.000E+00 g(S)=  0.000E+00 dE (1.order)= 0.000E+00
 bond charge predicted
       N       E                     dE             d eps       ncg     rms          rms(c)
 Begin Solvation calculations
  rms_SCF =   0.131047371584778      tol =   1.310473715847784E-002
 Begin minimization
 Creating dielectric and ionic cavities
  area:      141.484844193226     
  volume:    717.862873138857     
  Acav:     7.427954320144375E-002
  Solving linear dielectric/ionic screening model
        iter                  A_solv                     rms
   LPB:       -0.407751261812171E+00   0.265009489995336E-02
   LPB:    0  -0.407751261812170E+00   0.264994752342257E-02   0.697595E-08   0.000000E+00   0.301332E+02   0.210208E-06
   LPB:    1  -0.407731662446550E+00   0.201122826255069E-02   0.155532E-01   0.000000E+00   0.205608E+05   0.150352E-24
   LPB:    2  -0.407729497383528E+00   0.387064585710533E-02   0.271629E-01   0.632517E-01   0.144137E+04   0.498529E-17
   LPB:    3  -0.407728794745482E+00   0.591678185925095E-02   0.236969E-01   0.372002E+00   0.232733E+03   0.196846E-17
   LPB:    4  -0.407728317496041E+00   0.243451338226485E-02   0.206630E-01   0.778952E+00   0.158082E+03   0.463163E-17
  Finished solving LPB equations
  A_corr:   -0.333448774294597     
 End minimization
 Ecorr=   3226.93416755330     
 A_corr= -0.333448774294597     
 Ecorr_band=  -3227.26761632759     
 End Solvation calculations
DAV:   1    -0.317593099612E+03   -0.74993E-06   -0.11533E-03 13533   0.700E-02    0.129E-02
 Begin Solvation calculations
  rms_SCF =   1.465206587108532E-002 tol =   1.465206587108532E-003
 Begin minimization
 Creating dielectric and ionic cavities
  area:      141.490552015553     
  volume:    717.860460962810     
  Acav:     7.428253980816539E-002
  Solving linear dielectric/ionic screening model
        iter                  A_solv                     rms
   LPB:       -0.408038542126549E+00   0.937309950619356E-01
   LPB:    0  -0.408038392640708E+00   0.923494872535932E-01  -0.996074E-04   0.000000E+00   0.301333E+02  -0.300150E-02
   LPB:    1  -0.408013306804817E+00   0.977181982572761E-02   0.928810E-02   0.000000E+00   0.649108E+02   0.372928E-19
   LPB:    2  -0.408010865364247E+00   0.247815080859967E-02   0.148048E-01   0.610578E-01   0.134876E+03  -0.365733E-16
   LPB:    3  -0.408010294208389E+00   0.348732943019156E-02   0.275558E-01   0.125689E+00   0.218884E+03  -0.543366E-16
   LPB:    4  -0.408009918457757E+00   0.252674870565702E-02   0.309128E-01   0.586435E+00   0.561009E+02  -0.413697E-16
   LPB:    5  -0.408009504784198E+00   0.141447838637750E-02   0.344395E-01   0.988188E+00   0.194849E+03  -0.762946E-17
  Finished solving LPB equations
  A_corr:   -0.333726964976033     
 End minimization
 Ecorr=   3226.57151909684     
 A_corr= -0.333726964976033     
 Ecorr_band=  -3226.90524606182     
 End Solvation calculations
RMM:   2    -0.317593203990E+03   -0.10438E-03   -0.72899E-05  8155   0.149E-02    0.823E-02
 Begin Solvation calculations
  rms_SCF =   1.465206587108532E-002 tol =   1.465206587108532E-003
 Begin minimization
 Creating dielectric and ionic cavities
  area:      141.489474734327     
  volume:    717.857144309784     
  Acav:     7.428197423552162E-002
  Solving linear dielectric/ionic screening model
        iter                  A_solv                     rms
   LPB:       -0.408190149293700E+00   0.936701991656638E-01
   LPB:    0  -0.408189845669943E+00   0.928034357423228E-01  -0.141958E-03   0.000000E+00   0.301335E+02  -0.427767E-02
   LPB:    1  -0.408167383844358E+00   0.933746087558008E-02   0.886938E-02   0.000000E+00   0.659460E+02  -0.389819E-18
   LPB:    2  -0.408165301068417E+00   0.160280641441589E-02   0.166971E-01   0.492550E-01   0.109638E+03  -0.841019E-17
   LPB:    3  -0.408164891288415E+00   0.831845430674953E-03   0.256693E-01   0.127978E+00   0.218589E+03  -0.119222E-16
   LPB:    4  -0.408164699505120E+00   0.107384709970732E-02   0.325869E-01   0.368665E+00   0.249922E+03  -0.134963E-16
  Finished solving LPB equations
  A_corr:   -0.333882725269598     
 End minimization
 Ecorr=   3226.52213228540     
 A_corr= -0.333882725269598     
 Ecorr_band=  -3226.85601501067     
 End Solvation calculations
RMM:   3    -0.317593115788E+03    0.88202E-04   -0.16531E-05  7761   0.795E-03
 Begin Solvation calculations
  rms_SCF =   1.465206587108532E-002 tol =   1.465206587108532E-003
 Begin minimization
 Creating dielectric and ionic cavities
  area:      141.491949947038     
  volume:    717.851608105039     
  Acav:     7.428327372219491E-002
  Solving linear dielectric/ionic screening model
        iter                  A_solv                     rms
   LPB:       -0.408288124106481E+00   0.202440586743293E-01
   LPB:    0  -0.408287594184639E+00   0.114602585217238E-01  -0.187540E-03   0.000000E+00   0.301337E+02  -0.565129E-02
   LPB:    1  -0.408286893837228E+00   0.185602571218861E-02   0.116039E-01   0.000000E+00   0.501519E+02   0.123251E-18
   LPB:    2  -0.408286777338906E+00   0.150956346829702E-02   0.198459E-01   0.972607E-01   0.152112E+03   0.249353E-16
   LPB:    3  -0.408286640161723E+00   0.250338962287913E-02   0.374943E-01   0.623260E+00   0.146795E+03   0.301827E-16
   LPB:    4  -0.408286450935895E+00   0.198479499296575E-02   0.339308E-01   0.152430E+01   0.515779E+02   0.366907E-16
   LPB:    5  -0.408286185814413E+00   0.122545826086186E-02   0.371790E-01   0.127868E+01   0.831678E+02   0.370178E-16
  Finished solving LPB equations
  A_corr:   -0.334002912092218     
 End minimization
 Ecorr=   3226.37132632634     
 A_corr= -0.334002912092218     
 Ecorr_band=  -3226.70532923844     
 End Solvation calculations
   2 F= -.31759312E+03 E0= -.31758345E+03  d E =-.335045E-04
quench:  g(F)=  0.000E+00 g(S)=  0.000E+00 dE (1.order)= 0.000E+00
 reached required accuracy - stopping structural energy minimisation
