 vasp.5.4.4.18Apr17-6-g9f103f2a35 (build Feb 06 2024 13:54:16) complex          
  
 POSCAR found type information on POSCAR  Cu N  O 
 03/POSCAR found :  3 types and      40 ions
 scaLAPACK will be used

 ----------------------------------------------------------------------------- 
|                                                                             |
|  ADVICE TO THIS USER RUNNING 'VASP/VAMP'   (HEAR YOUR MASTER'S VOICE ...):  |
|                                                                             |
|      You enforced a specific xc-type in the INCAR file,                     |
|      a different type was found on the POTCAR file                          |
|          I HOPE YOU KNOW, WHAT YOU ARE  DOING                               |
|                                                                             |
 ----------------------------------------------------------------------------- 

 LDA part: xc-table for Pade appr. of Perdew
 POSCAR found type information on POSCAR  Cu N  O 
 00/POSCAR found :  3 types and      40 ions
 POSCAR found type information on POSCAR  Cu N  O 
 06/POSCAR found :  3 types and      40 ions
 Jacobian:    20.5888137679208     
 POSCAR, INCAR and KPOINTS ok, starting setup
 FFT: planning ...
 WAVECAR not read
 entering main loop
       N       E                     dE             d eps       ncg     rms          rms(c)
  Solvation turned off during non-self-consistent phase (first NELMDL steps)
DAV:   1     0.414845091627E+04    0.41485E+04   -0.17870E+05  4032   0.204E+03
DAV:   2     0.574436891141E+03   -0.35740E+04   -0.34540E+04  4032   0.459E+02
DAV:   3    -0.368826546253E+02   -0.61132E+03   -0.56565E+03  4725   0.229E+02
DAV:   4    -0.148466059755E+03   -0.11158E+03   -0.97023E+02  7029   0.909E+01
DAV:   5    -0.161125584894E+03   -0.12660E+02   -0.12326E+02  6210   0.317E+01    0.430E+01
 Begin Solvation calculations
  rms_SCF =    5.40168987631914      tol =   0.540168987631914     
 Begin minimization
 Creating dielectric and ionic cavities
  area:      170.315653593986     
  volume:    683.709534899586     
  Acav:     8.941571813684251E-002
  Solving linear dielectric/ionic screening model
        iter                  A_solv                     rms
   LPB:       -0.350482514508216E+03   0.229089593096944E+03
   LPB:    0  -0.886773196128284E+01   0.336020456644785E+02  -0.457511E+01   0.000000E+00   0.326410E+02  -0.149336E+03
   LPB:    1  -0.171409155543313E+01   0.788403826403652E+01   0.111881E-01   0.000000E+00   0.956293E+02   0.154066E-14
   LPB:    2  -0.719339069975774E+00   0.138818737069750E+01   0.134336E-01   0.115812E+00   0.323928E+03   0.243257E-13
   LPB:    3  -0.440974574702409E+00   0.144500794793200E+01   0.266686E-01   0.140958E+00   0.610019E+03   0.416037E-13
   LPB:    4  -0.352209472490188E+00   0.114953773515355E+01   0.244156E-01   0.348306E+00   0.834084E+02   0.462902E-13
   LPB:    5  -0.307225347417329E+00   0.608123212105461E+00   0.227789E-01   0.543189E+00   0.483583E+03   0.416270E-13
   LPB:    6  -0.279929728335617E+00   0.205256613014618E+00   0.311841E-01   0.443235E+00   0.128623E+03   0.320098E-13
  Finished solving LPB equations
  A_corr:   -0.190514010198774     
 End minimization
 Ecorr=   1763.68622774172     
 A_corr= -0.190514010198774     
 Ecorr_band=  -1763.87674175192     
 End Solvation calculations
RMM:   6    -0.152042156603E+03    0.90834E+01   -0.35083E+02  4081   0.940E+01    0.312E+01
 Begin Solvation calculations
  rms_SCF =    5.40168987631914      tol =   0.540168987631914     
 Begin minimization
 Creating dielectric and ionic cavities
  area:      188.626016448403     
  volume:    705.231161847640     
  Acav:     9.902865863541133E-002
  Solving linear dielectric/ionic screening model
        iter                  A_solv                     rms
   LPB:       -0.950153846802205E+01   0.511658899596692E+02
   LPB:    0  -0.802172449391515E+01   0.470564866449618E+02   0.305883E+00   0.000000E+00   0.316320E+02   0.967569E+01
   LPB:    1  -0.922728339235555E+00   0.417337278721062E+01   0.923741E-02   0.000000E+00   0.742295E+02  -0.307545E-15
   LPB:    2  -0.363399439343883E+00   0.140103756773012E+01   0.155860E-01   0.466966E-01   0.183523E+03  -0.197095E-13
   LPB:    3  -0.268240063270394E+00   0.971610839396557E+00   0.228619E-01   0.115986E+00   0.114170E+03  -0.216584E-13
   LPB:    4  -0.234730150963580E+00   0.617316292802354E+00   0.219120E-01   0.367411E+00   0.261086E+03  -0.159583E-13
   LPB:    5  -0.216108705979714E+00   0.209073610816394E+00   0.270673E-01   0.449859E+00   0.163182E+03  -0.519756E-14
  Finished solving LPB equations
  A_corr:   -0.117080047344303     
 End minimization
 Ecorr=   1667.50584800105     
 A_corr= -0.117080047344303     
 Ecorr_band=  -1667.62292804839     
 End Solvation calculations
RMM:   7    -0.137529341900E+03    0.14513E+02   -0.66317E+01  4105   0.442E+01    0.106E+01
 Begin Solvation calculations
  rms_SCF =    5.40168987631914      tol =   0.540168987631914     
 Begin minimization
 Creating dielectric and ionic cavities
  area:      166.048257190653     
  volume:    702.722735102913     
  Acav:     8.717533502509267E-002
  Solving linear dielectric/ionic screening model
        iter                  A_solv                     rms
   LPB:       -0.342597685544029E+01   0.307823089042903E+02
   LPB:    0  -0.342506462458169E+01   0.307624208969527E+02  -0.758050E-02   0.000000E+00   0.317496E+02  -0.240678E+00
   LPB:    1  -0.522691913359461E+00   0.291362342229912E+01   0.919756E-02   0.000000E+00   0.723923E+02  -0.648896E-17
   LPB:    2  -0.274885052688279E+00   0.502297270920875E+00   0.158570E-01   0.495235E-01   0.152676E+03   0.423450E-14
   LPB:    3  -0.236633698233422E+00   0.324836717689782E+00   0.233530E-01   0.104812E+00   0.320626E+03   0.103002E-13
   LPB:    4  -0.227158033146862E+00   0.181345344799146E+00   0.265325E-01   0.218036E+00   0.158258E+03   0.108188E-13
  Finished solving LPB equations
  A_corr:   -0.139982698121770     
 End minimization
 Ecorr=   1646.58928265926     
 A_corr= -0.139982698121770     
 Ecorr_band=  -1646.72926535738     
 End Solvation calculations
RMM:   8    -0.133732505794E+03    0.37968E+01   -0.36025E+00  4110   0.825E+00    0.664E+00
 Begin Solvation calculations
  rms_SCF =    1.33942896248642      tol =   0.133942896248642     
 Begin minimization
 Creating dielectric and ionic cavities
  area:      174.448490186382     
  volume:    700.695988283289     
  Acav:     9.158545734785033E-002
  Solving linear dielectric/ionic screening model
        iter                  A_solv                     rms
   LPB:       -0.350833921540711E+00   0.349761769727087E+01
   LPB:    0  -0.349859971576423E+00   0.331961444905086E+01  -0.782105E-02   0.000000E+00   0.318446E+02  -0.249059E+00
   LPB:    1  -0.276116355161413E+00   0.104462362126406E+01   0.116584E-01   0.000000E+00   0.859171E+02   0.533556E-17
   LPB:    2  -0.255770868309759E+00   0.276505456492751E+00   0.175517E-01   0.183258E+00   0.136333E+03   0.226864E-14
   LPB:    3  -0.248198120821953E+00   0.311517265278788E+00   0.298237E-01   0.219050E+00   0.278157E+03   0.693398E-15
   LPB:    4  -0.244171773115006E+00   0.234522997064613E+00   0.304938E-01   0.520006E+00   0.525243E+02   0.115229E-14
   LPB:    5  -0.240862734922901E+00   0.204407561854218E+00   0.296265E-01   0.845903E+00   0.171000E+03   0.506101E-14
   LPB:    6  -0.237973253840953E+00   0.927813193866744E-01   0.346779E-01   0.746013E+00   0.443963E+02   0.871164E-14
  Finished solving LPB equations
  A_corr:   -0.146387796493102     
 End minimization
 Ecorr=   1610.22670441589     
 A_corr= -0.146387796493102     
 Ecorr_band=  -1610.37309221238     
 End Solvation calculations
RMM:   9    -0.133005301510E+03    0.72720E+00   -0.14216E+00  4125   0.505E+00    0.423E+00
 Begin Solvation calculations
  rms_SCF =    1.33942896248642      tol =   0.133942896248642     
 Begin minimization
 Creating dielectric and ionic cavities
  area:      155.659987395270     
  volume:    694.695136386485     
  Acav:     8.172149338251690E-002
  Solving linear dielectric/ionic screening model
        iter                  A_solv                     rms
   LPB:       -0.105364233168984E+01   0.113981739016599E+02
   LPB:    0  -0.105265612847369E+01   0.112981216772950E+02  -0.783556E-02   0.000000E+00   0.321260E+02  -0.251725E+00
   LPB:    1  -0.458967753380051E+00   0.206341364493649E+01   0.107000E-01   0.000000E+00   0.778104E+02  -0.196017E-18
   LPB:    2  -0.368669139503488E+00   0.422301157902187E+00   0.148111E-01   0.109880E+00   0.260931E+03   0.320465E-13
   LPB:    3  -0.346197611665775E+00   0.365845379556056E+00   0.247068E-01   0.149184E+00   0.508261E+03   0.365953E-13
   LPB:    4  -0.338795366547657E+00   0.326098607780380E+00   0.269604E-01   0.301871E+00   0.959313E+02   0.377932E-13
   LPB:    5  -0.333663649174533E+00   0.256157286725383E+00   0.271206E-01   0.689170E+00   0.331665E+03   0.410034E-13
   LPB:    6  -0.329683077018395E+00   0.111379071531405E+00   0.332770E-01   0.632176E+00   0.744212E+02   0.408769E-13
  Finished solving LPB equations
  A_corr:   -0.247961583635878     
 End minimization
 Ecorr=   1566.95744905743     
 A_corr= -0.247961583635878     
 Ecorr_band=  -1567.20541064107     
 End Solvation calculations
RMM:  10    -0.132633286510E+03    0.37202E+00   -0.10268E+00  4353   0.244E+00    0.327E+00
 Begin Solvation calculations
  rms_SCF =   0.861052357201328      tol =   8.610523572013284E-002
 Begin minimization
 Creating dielectric and ionic cavities
  area:      150.699771638245     
  volume:    691.766721499217     
  Acav:     7.911738011007842E-002
  Solving linear dielectric/ionic screening model
        iter                  A_solv                     rms
   LPB:       -0.437559559151988E+00   0.275691454998993E+01
   LPB:    0  -0.435580082737034E+00   0.245321918410869E+01  -0.110774E-01   0.000000E+00   0.322633E+02  -0.357392E+00
   LPB:    1  -0.372600314494622E+00   0.899879011520984E+00   0.130438E-01   0.000000E+00   0.105453E+03   0.196214E-16
   LPB:    2  -0.365028645254942E+00   0.212222162656421E+00   0.132943E-01   0.117958E+00   0.154772E+03   0.696994E-14
   LPB:    3  -0.362086941501336E+00   0.160102539238026E+00   0.247939E-01   0.208319E+00   0.264160E+03   0.813041E-14
   LPB:    4  -0.359844785561479E+00   0.227378668559071E+00   0.374056E-01   0.505214E+00   0.578748E+02   0.886794E-14
   LPB:    5  -0.357284632511660E+00   0.193894513254800E+00   0.320753E-01   0.133158E+01   0.148732E+03   0.985162E-14
   LPB:    6  -0.355318382036761E+00   0.916001132917240E-01   0.313758E-01   0.785142E+00   0.458284E+02   0.114047E-13
   LPB:    7  -0.354211185182007E+00   0.388284499114031E-01   0.317063E-01   0.557232E+00   0.192263E+03   0.121019E-13
  Finished solving LPB equations
  A_corr:   -0.275093805071928     
 End minimization
 Ecorr=   1541.41919153821     
 A_corr= -0.275093805071928     
 Ecorr_band=  -1541.69428534329     
 End Solvation calculations
RMM:  11    -0.132512195705E+03    0.12109E+00   -0.34255E-01  4132   0.196E+00    0.166E+00
 Begin Solvation calculations
  rms_SCF =   0.520417518268869      tol =   5.204175182688690E-002
 Begin minimization
 Creating dielectric and ionic cavities
  area:      147.813736368669     
  volume:    685.753106837229     
  Acav:     7.760221159355107E-002
  Solving linear dielectric/ionic screening model
        iter                  A_solv                     rms
   LPB:       -0.747393033582998E+00   0.496018061023327E+01
   LPB:    0  -0.739826506925618E+00   0.424431374546397E+01  -0.215635E-01   0.000000E+00   0.325452E+02  -0.701789E+00
   LPB:    1  -0.484401158612509E+00   0.175859665655365E+01   0.138879E-01   0.000000E+00   0.117351E+03   0.171612E-17
   LPB:    2  -0.454568527809124E+00   0.503311635003057E+00   0.138986E-01   0.116707E+00   0.140952E+03   0.220418E-13
   LPB:    3  -0.444320695904569E+00   0.290281484469021E+00   0.204794E-01   0.233127E+00   0.328523E+03   0.252332E-13
   LPB:    4  -0.441074545228686E+00   0.250408446774145E+00   0.219492E-01   0.295554E+00   0.110403E+03   0.270178E-13
   LPB:    5  -0.438882322868407E+00   0.166494544758531E+00   0.259438E-01   0.571349E+00   0.290042E+03   0.277719E-13
   LPB:    6  -0.437183175571867E+00   0.666458877637340E-01   0.367411E-01   0.547302E+00   0.798029E+02   0.259185E-13
   LPB:    7  -0.435884392300112E+00   0.462800599720359E-01   0.381275E-01   0.736579E+00   0.157747E+03   0.238638E-13
  Finished solving LPB equations
  A_corr:   -0.358282180706561     
 End minimization
 Ecorr=   1511.86321929140     
 A_corr= -0.358282180706561     
 Ecorr_band=  -1512.22150147211     
 End Solvation calculations
RMM:  12    -0.132508630661E+03    0.35650E-02   -0.32386E-01  4162   0.204E+00    0.153E+00
 Begin Solvation calculations
  rms_SCF =   0.251733319088916      tol =   2.517333190889158E-002
 Begin minimization
 Creating dielectric and ionic cavities
  area:      148.134349739005     
  volume:    684.124058867441     
  Acav:     7.777053361297763E-002
  Solving linear dielectric/ionic screening model
        iter                  A_solv                     rms
   LPB:       -0.489822963163829E+00   0.134362156825413E+01
   LPB:    0  -0.489582207489156E+00   0.122602677513936E+01  -0.384194E-02   0.000000E+00   0.326216E+02  -0.125330E+00
   LPB:    1  -0.467635525179064E+00   0.594326573720514E+00   0.137537E-01   0.000000E+00   0.126692E+03  -0.700639E-17
   LPB:    2  -0.464515115711098E+00   0.160851004786459E+00   0.141206E-01   0.138487E+00   0.121882E+03  -0.112334E-14
   LPB:    3  -0.463309160701328E+00   0.100002006338964E+00   0.220323E-01   0.247693E+00   0.287365E+03  -0.127103E-14
   LPB:    4  -0.462714931324081E+00   0.122376171580934E+00   0.299372E-01   0.362636E+00   0.766470E+02  -0.108594E-14
   LPB:    5  -0.461877534864328E+00   0.123518410375259E+00   0.372851E-01   0.113150E+01   0.162099E+03  -0.208761E-15
   LPB:    6  -0.460935562502551E+00   0.568457837663744E-01   0.388057E-01   0.108080E+01   0.377949E+02   0.507922E-15
   LPB:    7  -0.460409944169341E+00   0.265985461053183E-01   0.310159E-01   0.698143E+00   0.145367E+03   0.272364E-14
   LPB:    8  -0.460170810226422E+00   0.155327173045597E-01   0.311367E-01   0.453192E+00   0.232229E+03   0.406999E-14
  Finished solving LPB equations
  A_corr:   -0.382400276613445     
 End minimization
 Ecorr=   1495.43072015169     
 A_corr= -0.382400276613445     
 Ecorr_band=  -1495.81312042830     
 End Solvation calculations
RMM:  13    -0.132473587239E+03    0.35043E-01   -0.62875E-02  4108   0.115E+00    0.890E-01
 Begin Solvation calculations
  rms_SCF =   0.251733319088916      tol =   2.517333190889158E-002
 Begin minimization
 Creating dielectric and ionic cavities
  area:      148.348868834051     
  volume:    681.675618319911     
  Acav:     7.788315613787687E-002
  Solving linear dielectric/ionic screening model
        iter                  A_solv                     rms
   LPB:       -0.584966650763293E+00   0.220542757580885E+01
   LPB:    0  -0.583108102972533E+00   0.179819114408725E+01  -0.106558E-01   0.000000E+00   0.327364E+02  -0.348833E+00
   LPB:    1  -0.516752673340029E+00   0.823245354106295E+00   0.150179E-01   0.000000E+00   0.135799E+03  -0.108753E-16
   LPB:    2  -0.508841708552220E+00   0.299065925692629E+00   0.154353E-01   0.115997E+00   0.110732E+03  -0.131891E-13
   LPB:    3  -0.506453358266902E+00   0.144704803084367E+00   0.188602E-01   0.247079E+00   0.229831E+03  -0.145679E-13
   LPB:    4  -0.505621331353522E+00   0.131114615315139E+00   0.210160E-01   0.312634E+00   0.144567E+03  -0.150809E-13
   LPB:    5  -0.505148168330342E+00   0.967292948607282E-01   0.230539E-01   0.518418E+00   0.245149E+03  -0.157012E-13
   LPB:    6  -0.504771479601438E+00   0.360689391129655E-01   0.335843E-01   0.546486E+00   0.771951E+02  -0.157139E-13
   LPB:    7  -0.504463286834949E+00   0.266714707973150E-01   0.383864E-01   0.715811E+00   0.158334E+03  -0.156002E-13
   LPB:    8  -0.504208980711825E+00   0.191338579957582E-01   0.391553E-01   0.808950E+00   0.103227E+03  -0.153831E-13
  Finished solving LPB equations
  A_corr:   -0.426325824573948     
 End minimization
 Ecorr=   1480.08964021608     
 A_corr= -0.426325824573948     
 Ecorr_band=  -1480.51596604065     
 End Solvation calculations
RMM:  14    -0.132471649172E+03    0.19381E-02   -0.60841E-02  4205   0.644E-01    0.519E-01
 Begin Solvation calculations
  rms_SCF =   0.251733319088916      tol =   2.517333190889158E-002
 Begin minimization
 Creating dielectric and ionic cavities
  area:      148.617378460051     
  volume:    680.260364901364     
  Acav:     7.802412369152700E-002
  Solving linear dielectric/ionic screening model
        iter                  A_solv                     rms
   LPB:       -0.577193972316065E+00   0.160436248922044E+01
   LPB:    0  -0.576536502162498E+00   0.139015408414355E+01  -0.633138E-02   0.000000E+00   0.328027E+02  -0.207686E+00
   LPB:    1  -0.542813537849562E+00   0.768116908675229E+00   0.139305E-01   0.000000E+00   0.143737E+03  -0.109433E-16
   LPB:    2  -0.538484273992052E+00   0.182593078587101E+00   0.135658E-01   0.131828E+00   0.942196E+02  -0.174406E-14
   LPB:    3  -0.537196322609091E+00   0.984210934993979E-01   0.197716E-01   0.204122E+00   0.273552E+03  -0.206974E-14
   LPB:    4  -0.536732358665420E+00   0.828056982147546E-01   0.232119E-01   0.306843E+00   0.114081E+03  -0.204682E-14
   LPB:    5  -0.536421190104315E+00   0.788269844198924E-01   0.276960E-01   0.562091E+00   0.265324E+03  -0.226182E-14
   LPB:    6  -0.536103616992171E+00   0.363207540389084E-01   0.379414E-01   0.744992E+00   0.572851E+02  -0.271610E-14
   LPB:    7  -0.535830503614731E+00   0.255941646358698E-01   0.374491E-01   0.871306E+00   0.122518E+03  -0.252982E-14
   LPB:    8  -0.535640869200597E+00   0.159344131827308E-01   0.354452E-01   0.733597E+00   0.111575E+03  -0.233131E-14
  Finished solving LPB equations
  A_corr:   -0.457616745509070     
 End minimization
 Ecorr=   1467.46312824549     
 A_corr= -0.457616745509070     
 Ecorr_band=  -1467.92074499100     
 End Solvation calculations
RMM:  15    -0.132473483243E+03   -0.18341E-02   -0.16013E-02  4079   0.515E-01    0.282E-01
 Begin Solvation calculations
  rms_SCF =   0.251733319088916      tol =   2.517333190889158E-002
 Begin minimization
 Creating dielectric and ionic cavities
  area:      149.185205989995     
  volume:    678.907123637701     
  Acav:     7.832223314474743E-002
  Solving linear dielectric/ionic screening model
        iter                  A_solv                     rms
   LPB:       -0.627855024733699E+00   0.192675962617556E+01
   LPB:    0  -0.626166834276303E+00   0.154420030623324E+01  -0.101356E-01   0.000000E+00   0.328661E+02  -0.333120E+00
   LPB:    1  -0.580709781053601E+00   0.773610473273734E+00   0.148476E-01   0.000000E+00   0.131317E+03  -0.489191E-17
   LPB:    2  -0.575180595727789E+00   0.234404156031248E+00   0.144181E-01   0.125259E+00   0.938155E+02  -0.800257E-15
   LPB:    3  -0.573654090202527E+00   0.125924885433017E+00   0.188412E-01   0.211269E+00   0.253023E+03  -0.154383E-14
   LPB:    4  -0.573077383388552E+00   0.100821020083002E+00   0.213269E-01   0.333762E+00   0.122712E+03  -0.697405E-15
   LPB:    5  -0.572717392434510E+00   0.823684104068691E-01   0.254765E-01   0.522546E+00   0.259216E+03  -0.549162E-15
   LPB:    6  -0.572393723946702E+00   0.336722978378742E-01   0.354120E-01   0.646843E+00   0.712193E+02  -0.608175E-15
   LPB:    7  -0.572125023152213E+00   0.247711224141402E-01   0.380675E-01   0.772261E+00   0.148493E+03  -0.198442E-15
  Finished solving LPB equations
  A_corr:   -0.493802790007466     
 End minimization
 Ecorr=   1455.83725423278     
 A_corr= -0.493802790007466     
 Ecorr_band=  -1456.33105702278     
 End Solvation calculations
RMM:  16    -0.132479875787E+03   -0.63925E-02   -0.86345E-03  4144   0.239E-01    0.217E-01
 Begin Solvation calculations
  rms_SCF =   0.251733319088916      tol =   2.517333190889158E-002
 Begin minimization
 Creating dielectric and ionic cavities
  area:      149.653874975052     
  volume:    678.165836135038     
  Acav:     7.856828436190251E-002
  Solving linear dielectric/ionic screening model
        iter                  A_solv                     rms
   LPB:       -0.638101433644666E+00   0.165863030508131E+01
   LPB:    0  -0.636690556715507E+00   0.130810651147919E+01  -0.926095E-02   0.000000E+00   0.329009E+02  -0.304694E+00
   LPB:    1  -0.606992685886203E+00   0.609031723333682E+00   0.150668E-01   0.000000E+00   0.115794E+03  -0.251784E-16
   LPB:    2  -0.603372074826348E+00   0.185943569527239E+00   0.144131E-01   0.127444E+00   0.936020E+02  -0.272723E-14
   LPB:    3  -0.602412101496887E+00   0.110186198864558E+00   0.193767E-01   0.197222E+00   0.231981E+03  -0.363904E-14
   LPB:    4  -0.601984125014559E+00   0.978853453848171E-01   0.229101E-01   0.377063E+00   0.102275E+03  -0.404398E-14
   LPB:    5  -0.601614385548824E+00   0.832818715713982E-01   0.287659E-01   0.688056E+00   0.221637E+03  -0.416682E-14
   LPB:    6  -0.601233667669375E+00   0.357894200755626E-01   0.365817E-01   0.809697E+00   0.616086E+02  -0.413614E-14
   LPB:    7  -0.600949172927951E+00   0.223724255297832E-01   0.360543E-01   0.758190E+00   0.161388E+03  -0.441425E-14
  Finished solving LPB equations
  A_corr:   -0.522380888566048     
 End minimization
 Ecorr=   1445.28105284865     
 A_corr= -0.522380888566048     
 Ecorr_band=  -1445.80343373722     
 End Solvation calculations
RMM:  17    -0.132485017456E+03   -0.51417E-02   -0.57989E-03  4127   0.194E-01    0.258E-01
 Begin Solvation calculations
  rms_SCF =   0.251733319088916      tol =   2.517333190889158E-002
 Begin minimization
 Creating dielectric and ionic cavities
  area:      150.843545673676     
  volume:    677.081381754787     
  Acav:     7.919286147868013E-002
  Solving linear dielectric/ionic screening model
        iter                  A_solv                     rms
   LPB:       -0.869807092419724E+00   0.392470412136397E+01
   LPB:    0  -0.862517992522935E+00   0.317243311198713E+01  -0.210336E-01   0.000000E+00   0.329517E+02  -0.693092E+00
   LPB:    1  -0.700842908775757E+00   0.115732007394366E+01   0.156910E-01   0.000000E+00   0.102303E+03  -0.131400E-16
   LPB:    2  -0.682483666586540E+00   0.395543298372023E+00   0.149601E-01   0.119105E+00   0.112988E+03   0.541321E-15
   LPB:    3  -0.677778737044630E+00   0.217426109054304E+00   0.206797E-01   0.185390E+00   0.173519E+03   0.209752E-14
   LPB:    4  -0.675800428277510E+00   0.218836374267805E+00   0.230024E-01   0.378018E+00   0.146083E+03   0.873041E-15
   LPB:    5  -0.674525985489220E+00   0.185048221484204E+00   0.231804E-01   0.639263E+00   0.219820E+03   0.349043E-15
   LPB:    6  -0.673397032888354E+00   0.700836379765596E-01   0.301085E-01   0.682003E+00   0.804769E+02   0.179144E-15
   LPB:    7  -0.672542459368099E+00   0.389758124788785E-01   0.360774E-01   0.631724E+00   0.232613E+03  -0.323912E-15
   LPB:    8  -0.671975032142132E+00   0.286950625288783E-01   0.360259E-01   0.664939E+00   0.187063E+03  -0.108617E-14
   LPB:    9  -0.671613201083649E+00   0.226642848802347E-01   0.352993E-01   0.650795E+00   0.270806E+03  -0.185054E-14
  Finished solving LPB equations
  A_corr:   -0.592420339604969     
 End minimization
 Ecorr=   1422.43185539961     
 A_corr= -0.592420339604969     
 Ecorr_band=  -1423.02427573921     
 End Solvation calculations
RMM:  18    -0.132494547031E+03   -0.95296E-02   -0.12973E-02  4066   0.207E-01    0.302E-01
 Begin Solvation calculations
  rms_SCF =   0.251733319088916      tol =   2.517333190889158E-002
 Begin minimization
 Creating dielectric and ionic cavities
  area:      151.374021380729     
  volume:    677.153126494160     
  Acav:     7.947136122488291E-002
  Solving linear dielectric/ionic screening model
        iter                  A_solv                     rms
   LPB:       -0.752861996336140E+00   0.249261330117416E+01
   LPB:    0  -0.750517217490708E+00   0.218892766332464E+01  -0.119302E-01   0.000000E+00   0.329484E+02  -0.393082E+00
   LPB:    1  -0.706979404442312E+00   0.493635036566004E+00   0.154159E-01   0.000000E+00   0.682097E+02   0.264820E-16
   LPB:    2  -0.702217436794180E+00   0.230320729402606E+00   0.136790E-01   0.123264E+00   0.259024E+03  -0.790220E-16
   LPB:    3  -0.701032422872330E+00   0.123812661873339E+00   0.186137E-01   0.182876E+00   0.130706E+03  -0.747386E-15
   LPB:    4  -0.700537845378752E+00   0.979635885270902E-01   0.217351E-01   0.357423E+00   0.164768E+03  -0.179645E-14
   LPB:    5  -0.700258212876910E+00   0.692159662083464E-01   0.254501E-01   0.482865E+00   0.143528E+03  -0.233538E-14
   LPB:    6  -0.699976938865314E+00   0.340246754005730E-01   0.363821E-01   0.703629E+00   0.987664E+02  -0.292211E-14
   LPB:    7  -0.699674057500876E+00   0.215818231265731E-01   0.428129E-01   0.915073E+00   0.131485E+03  -0.222828E-14
  Finished solving LPB equations
  A_corr:   -0.620202696275993     
 End minimization
 Ecorr=   1413.82732060455     
 A_corr= -0.620202696275993     
 Ecorr_band=  -1414.44752330083     
 End Solvation calculations
RMM:  19    -0.132496344017E+03   -0.17970E-02   -0.61103E-03  4089   0.197E-01    0.145E-01
 Begin Solvation calculations
  rms_SCF =   0.224548471609480      tol =   2.245484716094796E-002
 Begin minimization
 Creating dielectric and ionic cavities
  area:      151.693393124105     
  volume:    677.395487352595     
  Acav:     7.963903139015532E-002
  Solving linear dielectric/ionic screening model
        iter                  A_solv                     rms
   LPB:       -0.746690427370162E+00   0.201430807800954E+01
   LPB:    0  -0.745256959086789E+00   0.180741718693176E+01  -0.932968E-02   0.000000E+00   0.329370E+02  -0.307292E+00
   LPB:    1  -0.720673514666506E+00   0.389880914322542E+00   0.146911E-01   0.000000E+00   0.640841E+02  -0.157268E-16
   LPB:    2  -0.718052544111123E+00   0.166745372688163E+00   0.130417E-01   0.120099E+00   0.268460E+03  -0.633651E-15
   LPB:    3  -0.717459049558435E+00   0.723235927898987E-01   0.176062E-01   0.167734E+00   0.143840E+03  -0.624320E-15
   LPB:    4  -0.717227556967173E+00   0.683609800222932E-01   0.239104E-01   0.287210E+00   0.139979E+03  -0.602709E-15
   LPB:    5  -0.717043257278140E+00   0.629230887167714E-01   0.312028E-01   0.610073E+00   0.121629E+03  -0.737647E-15
   LPB:    6  -0.716819615422410E+00   0.308142968330658E-01   0.380903E-01   0.994047E+00   0.713792E+02  -0.895732E-15
   LPB:    7  -0.716629196685942E+00   0.159021518828240E-01   0.361071E-01   0.898213E+00   0.133231E+03  -0.109098E-14
  Finished solving LPB equations
  A_corr:   -0.636990165295786     
 End minimization
 Ecorr=   1407.86591589303     
 A_corr= -0.636990165295786     
 Ecorr_band=  -1408.50290605833     
 End Solvation calculations
RMM:  20    -0.132498209003E+03   -0.18650E-02   -0.30674E-03  4163   0.136E-01    0.127E-01
 Begin Solvation calculations
  rms_SCF =   0.201010629067233      tol =   2.010106290672331E-002
 Begin minimization
 Creating dielectric and ionic cavities
  area:      152.156579344709     
  volume:    677.740952886652     
  Acav:     7.988220415597207E-002
  Solving linear dielectric/ionic screening model
        iter                  A_solv                     rms
   LPB:       -0.809008127954752E+00   0.314317270011530E+01
   LPB:    0  -0.805443768213572E+00   0.282834764037090E+01  -0.147153E-01   0.000000E+00   0.329208E+02  -0.484441E+00
   LPB:    1  -0.750524172125821E+00   0.599271900342815E+00   0.142176E-01   0.000000E+00   0.628500E+02   0.107171E-16
   LPB:    2  -0.744598740142175E+00   0.236967223358627E+00   0.127583E-01   0.120234E+00   0.268416E+03   0.101850E-14
   LPB:    3  -0.743384042104575E+00   0.952561872868592E-01   0.172238E-01   0.151849E+00   0.151519E+03   0.138317E-14
   LPB:    4  -0.742965287070030E+00   0.852157608205284E-01   0.231182E-01   0.256842E+00   0.150351E+03   0.140980E-14
   LPB:    5  -0.742725412036060E+00   0.652223721378027E-01   0.266647E-01   0.496642E+00   0.131440E+03   0.137155E-14
   LPB:    6  -0.742506004810810E+00   0.292079018459138E-01   0.338160E-01   0.721241E+00   0.980698E+02   0.206625E-14
   LPB:    7  -0.742316243856548E+00   0.161441637379540E-01   0.379751E-01   0.770156E+00   0.164585E+03   0.190844E-14
  Finished solving LPB equations
  A_corr:   -0.662434039700576     
 End minimization
 Ecorr=   1400.98417054200     
 A_corr= -0.662434039700576     
 Ecorr_band=  -1401.64660458170     
 End Solvation calculations
RMM:  21    -0.132500106740E+03   -0.18977E-02   -0.33378E-03  4046   0.101E-01    0.520E-02
 Begin Solvation calculations
  rms_SCF =   8.956298271985919E-002 tol =   8.956298271985918E-003
 Begin minimization
 Creating dielectric and ionic cavities
  area:      152.271423794879     
  volume:    677.830618878455     
  Acav:     7.994249749231173E-002
  Solving linear dielectric/ionic screening model
        iter                  A_solv                     rms
   LPB:       -0.758265506164701E+00   0.114696043327768E+01
   LPB:    0  -0.757877372265586E+00   0.105246803496375E+01  -0.485622E-02   0.000000E+00   0.329166E+02  -0.159850E+00
   LPB:    1  -0.751236046493810E+00   0.210201091174565E+00   0.133857E-01   0.000000E+00   0.625412E+02  -0.670507E-17
   LPB:    2  -0.750513630235296E+00   0.803368554496627E-01   0.126492E-01   0.115109E+00   0.262511E+03  -0.195798E-14
   LPB:    3  -0.750357149285200E+00   0.323345251909457E-01   0.179702E-01   0.152470E+00   0.149846E+03  -0.215872E-14
   LPB:    4  -0.750284892205609E+00   0.400580277769093E-01   0.299102E-01   0.277429E+00   0.115218E+03  -0.217479E-14
   LPB:    5  -0.750192866795242E+00   0.498200407918682E-01   0.404530E-01   0.941666E+00   0.107826E+03  -0.229798E-14
   LPB:    6  -0.750055219038023E+00   0.242397695268353E-01   0.395168E-01   0.153119E+01   0.542782E+02  -0.253425E-14
   LPB:    7  -0.749968036429510E+00   0.958845186173482E-02   0.296321E-01   0.844657E+00   0.150801E+03  -0.362845E-14
   LPB:    8  -0.749934482084333E+00   0.505864298846828E-02   0.296081E-01   0.385186E+00   0.563060E+03  -0.431277E-14
  Finished solving LPB equations
  A_corr:   -0.669991984592021     
 End minimization
 Ecorr=   1397.35729630317     
 A_corr= -0.669991984592021     
 Ecorr_band=  -1398.02728828776     
 End Solvation calculations
RMM:  22    -0.132500686083E+03   -0.57934E-03   -0.76694E-04  4094   0.734E-02    0.857E-02
 Begin Solvation calculations
  rms_SCF =   8.956298271985919E-002 tol =   8.956298271985918E-003
 Begin minimization
 Creating dielectric and ionic cavities
  area:      152.333030313935     
  volume:    677.886808182674     
  Acav:     7.997484091481580E-002
  Solving linear dielectric/ionic screening model
        iter                  A_solv                     rms
   LPB:       -0.756588527529615E+00   0.694700247827196E+00
   LPB:    0  -0.756474854736199E+00   0.652607352899499E+00  -0.262817E-02   0.000000E+00   0.329140E+02  -0.865035E-01
   LPB:    1  -0.754339393373824E+00   0.132611881433386E+00   0.125794E-01   0.000000E+00   0.607403E+02   0.321001E-17
   LPB:    2  -0.754062725028650E+00   0.364160752324387E-01   0.125117E-01   0.130260E+00   0.247386E+03   0.404745E-15
   LPB:    3  -0.754016337708228E+00   0.131823772203044E-01   0.181661E-01   0.115477E+00   0.201679E+03   0.478671E-15
   LPB:    4  -0.754003236636676E+00   0.126932414275880E-01   0.237342E-01   0.216170E+00   0.200954E+03   0.513302E-15
   LPB:    5  -0.753996723237399E+00   0.120594648012926E-01   0.276366E-01   0.426962E+00   0.136556E+03   0.504083E-15
   LPB:    6  -0.753988881017461E+00   0.726432987696166E-02   0.386991E-01   0.859837E+00   0.121536E+03   0.506312E-15
  Finished solving LPB equations
  A_corr:   -0.674014040102645     
 End minimization
 Ecorr=   1396.45286412364     
 A_corr= -0.674014040102645     
 Ecorr_band=  -1397.12687816375     
 End Solvation calculations
RMM:  23    -0.132500674307E+03    0.11777E-04   -0.27190E-04  3954   0.258E-02    0.815E-02
 Begin Solvation calculations
  rms_SCF =   8.956298271985919E-002 tol =   8.956298271985918E-003
 Begin minimization
 Creating dielectric and ionic cavities
  area:      152.368214560919     
  volume:    677.918510163519     
  Acav:     7.999331264448235E-002
  Solving linear dielectric/ionic screening model
        iter                  A_solv                     rms
   LPB:       -0.758573248696422E+00   0.605281583613112E+00
   LPB:    0  -0.758521308811451E+00   0.583642373312616E+00  -0.177658E-02   0.000000E+00   0.329125E+02  -0.584717E-01
   LPB:    1  -0.757094325748941E+00   0.107252511774666E+00   0.116031E-01   0.000000E+00   0.606954E+02   0.559147E-18
   LPB:    2  -0.756892456408139E+00   0.258785798194878E-01   0.129629E-01   0.126627E+00   0.214432E+03  -0.604004E-15
   LPB:    3  -0.756862759465879E+00   0.901805723175639E-02   0.188338E-01   0.101252E+00   0.197847E+03  -0.719445E-15
   LPB:    4  -0.756851858456975E+00   0.112720449416949E-01   0.305570E-01   0.226247E+00   0.144862E+03  -0.725835E-15
   LPB:    5  -0.756843554639151E+00   0.146916024887390E-01   0.337337E-01   0.690013E+00   0.112211E+03  -0.692977E-15
   LPB:    6  -0.756835115192297E+00   0.885263913785046E-02   0.324630E-01   0.105612E+01   0.688605E+02  -0.739482E-15
  Finished solving LPB equations
  A_corr:   -0.676841802547814     
 End minimization
 Ecorr=   1395.57863745002     
 A_corr= -0.676841802547814     
 Ecorr_band=  -1396.25547925257     
 End Solvation calculations
RMM:  24    -0.132500443022E+03    0.23128E-03   -0.73284E-05  3119   0.215E-02    0.619E-02
 Begin Solvation calculations
  rms_SCF =   8.956298271985919E-002 tol =   8.956298271985918E-003
 Begin minimization
 Creating dielectric and ionic cavities
  area:      152.296788035621     
  volume:    677.888904819675     
  Acav:     7.995581371870127E-002
  Solving linear dielectric/ionic screening model
        iter                  A_solv                     rms
   LPB:       -0.777242456079510E+00   0.217564906094199E+01
   LPB:    0  -0.776965695376246E+00   0.214792984219715E+01  -0.410089E-02   0.000000E+00   0.329139E+02  -0.134976E+00
   LPB:    1  -0.760139477461109E+00   0.282558429148480E+00   0.101801E-01   0.000000E+00   0.697672E+02  -0.428458E-17
   LPB:    2  -0.758526809560757E+00   0.706438666693949E-01   0.125798E-01   0.775598E-01   0.234545E+03  -0.600003E-15
   LPB:    3  -0.758345699255377E+00   0.147890934255294E-01   0.187305E-01   0.754263E-01   0.157102E+03  -0.627159E-15
   LPB:    4  -0.758309352411204E+00   0.132078115188843E-01   0.260175E-01   0.144480E+00   0.220174E+03  -0.739754E-15
   LPB:    5  -0.758293628380193E+00   0.149263589002722E-01   0.297991E-01   0.377711E+00   0.185051E+03  -0.825753E-15
   LPB:    6  -0.758283874707027E+00   0.128826113593987E-01   0.291656E-01   0.633776E+00   0.925121E+02  -0.881951E-15
   LPB:    7  -0.758275688933672E+00   0.648390436620889E-02   0.296331E-01   0.826010E+00   0.168116E+03  -0.724712E-15
  Finished solving LPB equations
  A_corr:   -0.678319875214971     
 End minimization
 Ecorr=   1394.51904034607     
 A_corr= -0.678319875214971     
 Ecorr_band=  -1395.19736022128     
 End Solvation calculations
RMM:  25    -0.132501433035E+03   -0.99001E-03   -0.89561E-04  4108   0.629E-02    0.934E-02
 Begin Solvation calculations
  rms_SCF =   8.956298271985919E-002 tol =   8.956298271985918E-003
 Begin minimization
 Creating dielectric and ionic cavities
  area:      152.246687999157     
  volume:    677.862228966427     
  Acav:     7.992951119955764E-002
  Solving linear dielectric/ionic screening model
        iter                  A_solv                     rms
   LPB:       -0.755296996980489E+00   0.246951610382762E+00
   LPB:    0  -0.755288949824046E+00   0.235745518505700E+00   0.699260E-03   0.000000E+00   0.329151E+02   0.230162E-01
   LPB:    1  -0.754842603005348E+00   0.705623585084628E-01   0.149575E-01   0.000000E+00   0.689173E+02   0.743399E-18
   LPB:    2  -0.754777361778479E+00   0.212472404059225E-01   0.125770E-01   0.173832E+00   0.247924E+03   0.318094E-16
   LPB:    3  -0.754758275342429E+00   0.101176823031522E-01   0.225851E-01   0.162914E+00   0.193198E+03   0.213828E-16
   LPB:    4  -0.754750380826414E+00   0.837536368476192E-02   0.247647E-01   0.377216E+00   0.379251E+03   0.109001E-16
  Finished solving LPB equations
  A_corr:   -0.674820869626856     
 End minimization
 Ecorr=   1395.11294590964     
 A_corr= -0.674820869626856     
 Ecorr_band=  -1395.78776677927     
 End Solvation calculations
RMM:  26    -0.132501305998E+03    0.12704E-03   -0.12065E-04  3619   0.294E-02    0.606E-02
 Begin Solvation calculations
  rms_SCF =   8.956298271985919E-002 tol =   8.956298271985918E-003
 Begin minimization
 Creating dielectric and ionic cavities
  area:      152.231576190127     
  volume:    677.842669912680     
  Acav:     7.992157749981682E-002
  Solving linear dielectric/ionic screening model
        iter                  A_solv                     rms
   LPB:       -0.752995065668467E+00   0.352962119207120E+00
   LPB:    0  -0.752992982267689E+00   0.350892033182445E+00   0.355793E-03   0.000000E+00   0.329160E+02   0.117113E-01
   LPB:    1  -0.752493294297043E+00   0.714269388266184E-01   0.116470E-01   0.000000E+00   0.594710E+02   0.860342E-18
   LPB:    2  -0.752398411935790E+00   0.118553835917977E-01   0.138894E-01   0.159227E+00   0.198625E+03  -0.652886E-16
   LPB:    3  -0.752379503051571E+00   0.510052026972036E-02   0.261620E-01   0.105801E+00   0.233659E+03  -0.498458E-16
   LPB:    4  -0.752370263295696E+00   0.375051831485167E-02   0.329452E-01   0.388038E+00   0.327697E+03   0.114270E-16
  Finished solving LPB equations
  A_corr:   -0.672448685795879     
 End minimization
 Ecorr=   1395.55847579176     
 A_corr= -0.672448685795879     
 Ecorr_band=  -1396.23092447756     
 End Solvation calculations
RMM:  27    -0.132501178037E+03    0.12796E-03   -0.10411E-04  3881   0.248E-02    0.212E-02
 Begin Solvation calculations
  rms_SCF =   4.151509380482160E-002 tol =   4.151509380482160E-003
 Begin minimization
 Creating dielectric and ionic cavities
  area:      152.251663003488     
  volume:    677.806351284327     
  Acav:     7.993212307683117E-002
  Solving linear dielectric/ionic screening model
        iter                  A_solv                     rms
   LPB:       -0.753179392885279E+00   0.104589071037391E+00
   LPB:    0  -0.753171602118671E+00   0.797296057181421E-01  -0.688002E-03   0.000000E+00   0.329178E+02  -0.226475E-01
   LPB:    1  -0.753119684341205E+00   0.142661996740761E-01   0.116539E-01   0.000000E+00   0.915634E+02  -0.116757E-17
   LPB:    2  -0.753114384171414E+00   0.915691663077390E-02   0.149672E-01   0.794886E-01   0.359782E+03  -0.285139E-15
   LPB:    3  -0.753111362529864E+00   0.989189449223907E-02   0.282476E-01   0.302073E+00   0.116006E+03  -0.300868E-15
   LPB:    4  -0.753108615003215E+00   0.741346619497673E-02   0.286565E-01   0.896309E+00   0.181474E+03  -0.306301E-15
   LPB:    5  -0.753106620644441E+00   0.334835381323422E-02   0.265944E-01   0.782158E+00   0.223698E+03  -0.342754E-15
  Finished solving LPB equations
  A_corr:   -0.673174497567610     
 End minimization
 Ecorr=   1395.33432430605     
 A_corr= -0.673174497567610     
 Ecorr_band=  -1396.00749880362     
 End Solvation calculations
RMM:  28    -0.132501220489E+03   -0.42452E-04   -0.26145E-05  2489   0.165E-02    0.136E-02
 Begin Solvation calculations
  rms_SCF =   1.783018590804265E-002 tol =   1.783018590804265E-003
 Begin minimization
 Creating dielectric and ionic cavities
  area:      152.274277750064     
  volume:    677.766337928656     
  Acav:     7.994399581878375E-002
  Solving linear dielectric/ionic screening model
        iter                  A_solv                     rms
   LPB:       -0.754246969058610E+00   0.125430730161275E+00
   LPB:    0  -0.754233947614473E+00   0.874264349582047E-01  -0.889441E-03   0.000000E+00   0.329196E+02  -0.292801E-01
   LPB:    1  -0.754160443351399E+00   0.128899272439198E-01   0.119773E-01   0.000000E+00   0.881879E+02   0.607699E-18
   LPB:    2  -0.754155267422205E+00   0.628470776028396E-02   0.150858E-01   0.559070E-01   0.380722E+03   0.160109E-15
   LPB:    3  -0.754153936664622E+00   0.450258278972984E-02   0.221600E-01   0.175029E+00   0.119898E+03   0.174317E-15
   LPB:    4  -0.754153138841773E+00   0.560778118197164E-02   0.286037E-01   0.464467E+00   0.181313E+03   0.143808E-15
   LPB:    5  -0.754152403144523E+00   0.396058059077334E-02   0.262524E-01   0.100472E+01   0.144145E+03   0.125137E-15
   LPB:    6  -0.754151601879754E+00   0.176683631579218E-02   0.320451E-01   0.892247E+00   0.128365E+03   0.103404E-15
  Finished solving LPB equations
  A_corr:   -0.674207606060971     
 End minimization
 Ecorr=   1394.88127616580     
 A_corr= -0.674207606060971     
 Ecorr_band=  -1395.55548377186     
 End Solvation calculations
RMM:  29    -0.132501301985E+03   -0.81495E-04   -0.35775E-05  2665   0.165E-02    0.111E-02
 Begin Solvation calculations
  rms_SCF =   1.783018590804265E-002 tol =   1.783018590804265E-003
 Begin minimization
 Creating dielectric and ionic cavities
  area:      152.273484307741     
  volume:    677.770357230295     
  Acav:     7.994357926156422E-002
  Solving linear dielectric/ionic screening model
        iter                  A_solv                     rms
   LPB:       -0.754341730341464E+00   0.167622631271499E+00
   LPB:    0  -0.754334833748771E+00   0.156113489898488E+00  -0.647301E-03   0.000000E+00   0.329194E+02  -0.213088E-01
   LPB:    1  -0.754236512755085E+00   0.169820140858872E-01   0.936511E-02   0.000000E+00   0.860287E+02   0.734994E-18
   LPB:    2  -0.754231715995838E+00   0.327989463919541E-02   0.115303E-01   0.396255E-01   0.226609E+03  -0.548367E-17
   LPB:    3  -0.754231221538512E+00   0.212782747027851E-02   0.210144E-01   0.565592E-01   0.166131E+03  -0.808662E-17
   LPB:    4  -0.754230995699722E+00   0.274056628197239E-02   0.324094E-01   0.296153E+00   0.582308E+02  -0.115259E-16
   LPB:    5  -0.754230680309906E+00   0.175105529664818E-02   0.374971E-01   0.120704E+01   0.303837E+03   0.680661E-17
  Finished solving LPB equations
  A_corr:   -0.674287101048342     
 End minimization
 Ecorr=   1394.66039354617     
 A_corr= -0.674287101048342     
 Ecorr_band=  -1395.33468064722     
 End Solvation calculations
RMM:  30    -0.132501335251E+03   -0.33266E-04   -0.14251E-05  2421   0.139E-02    0.552E-03
 Begin Solvation calculations
  rms_SCF =   5.997742019043914E-003 tol =   5.997742019043914E-004
 Begin minimization
 Creating dielectric and ionic cavities
  area:      152.272809037963     
  volume:    677.764313774409     
  Acav:     7.994322474493065E-002
  Solving linear dielectric/ionic screening model
        iter                  A_solv                     rms
   LPB:       -0.754178706081285E+00   0.493624266303553E-01
   LPB:    0  -0.754177200603383E+00   0.377031181035721E-01  -0.302429E-03   0.000000E+00   0.329197E+02  -0.995589E-02
   LPB:    1  -0.754158057242889E+00   0.206358249738635E-01   0.116799E-01   0.000000E+00   0.137114E+03  -0.394089E-19
   LPB:    2  -0.754155573036660E+00   0.451678615347326E-02   0.140957E-01   0.107528E+00   0.629198E+02   0.265312E-16
   LPB:    3  -0.754154933648249E+00   0.288575920546695E-02   0.197354E-01   0.183831E+00   0.194466E+03   0.127369E-16
   LPB:    4  -0.754154639156903E+00   0.175216479005710E-02   0.247114E-01   0.367838E+00   0.139317E+03  -0.248089E-17
   LPB:    5  -0.754154409546809E+00   0.138900172033958E-02   0.300111E-01   0.641997E+00   0.388031E+03  -0.697779E-17
   LPB:    6  -0.754154184917347E+00   0.118744560068716E-02   0.390393E-01   0.752065E+00   0.113613E+03  -0.178145E-16
   LPB:    7  -0.754153968996123E+00   0.759563340879068E-03   0.396712E-01   0.945923E+00   0.305098E+03  -0.355536E-16
   LPB:    8  -0.754153793218487E+00   0.557037193100935E-03   0.398899E-01   0.809620E+00   0.176001E+03  -0.526158E-16
  Finished solving LPB equations
  A_corr:   -0.674210568473556     
 End minimization
 Ecorr=   1394.45873779858     
 A_corr= -0.674210568473556     
 Ecorr_band=  -1395.13294836705     
 End Solvation calculations
RMM:  31    -0.132501364390E+03   -0.29139E-04   -0.91604E-06  2402   0.822E-03    0.422E-03
 Begin Solvation calculations
  rms_SCF =   4.622714513101527E-003 tol =   4.622714513101527E-004
 Begin minimization
 Creating dielectric and ionic cavities
  area:      152.279064190231     
  volume:    677.754387440432     
  Acav:     7.994650869987106E-002
  Solving linear dielectric/ionic screening model
        iter                  A_solv                     rms
   LPB:       -0.754733849301047E+00   0.845882672545202E-01
   LPB:    0  -0.754729847956263E+00   0.676849287139660E-01  -0.493045E-03   0.000000E+00   0.329202E+02  -0.162311E-01
   LPB:    1  -0.754708924687006E+00   0.109469831198712E-01   0.954594E-02   0.000000E+00   0.771999E+02  -0.213978E-18
   LPB:    2  -0.754707486801174E+00   0.311576890516487E-02   0.135668E-01   0.483544E-01   0.953611E+02  -0.920827E-16
   LPB:    3  -0.754707232376893E+00   0.172637880326726E-02   0.181649E-01   0.132154E+00   0.216331E+03  -0.789507E-16
   LPB:    4  -0.754707125946808E+00   0.815832738147879E-03   0.239726E-01   0.316974E+00   0.931005E+02  -0.762861E-16
   LPB:    5  -0.754707050620720E+00   0.611140465160753E-03   0.316798E-01   0.535567E+00   0.247078E+03  -0.653026E-16
   LPB:    6  -0.754706978330243E+00   0.607600209385298E-03   0.419609E-01   0.724557E+00   0.838774E+02  -0.583475E-16
   LPB:    7  -0.754706905436542E+00   0.509928280571285E-03   0.452704E-01   0.934631E+00   0.865340E+02  -0.580995E-16
   LPB:    8  -0.754706835766994E+00   0.376239085537257E-03   0.455530E-01   0.949839E+00   0.902459E+02  -0.630537E-16
  Finished solving LPB equations
  A_corr:   -0.674760327067123     
 End minimization
 Ecorr=   1394.15702538144     
 A_corr= -0.674760327067123     
 Ecorr_band=  -1394.83178570851     
 End Solvation calculations
RMM:  32    -0.132501403773E+03   -0.39383E-04   -0.72397E-06  2396   0.761E-03    0.996E-03
 Begin Solvation calculations
  rms_SCF =   4.622714513101527E-003 tol =   4.622714513101527E-004
 Begin minimization
 Creating dielectric and ionic cavities
  area:      152.285940821987     
  volume:    677.754660482682     
  Acav:     7.995011893154316E-002
  Solving linear dielectric/ionic screening model
        iter                  A_solv                     rms
   LPB:       -0.755910816347185E+00   0.254004099445277E+00
   LPB:    0  -0.755898504458166E+00   0.239844044715379E+00  -0.864861E-03   0.000000E+00   0.329202E+02  -0.284714E-01
   LPB:    1  -0.755712732740413E+00   0.307263445246786E-01   0.968160E-02   0.000000E+00   0.653897E+02  -0.453602E-18
   LPB:    2  -0.755691202029418E+00   0.738813604405533E-02   0.146739E-01   0.764684E-01   0.138538E+03  -0.107066E-15
   LPB:    3  -0.755688701957218E+00   0.420747589618223E-02   0.180166E-01   0.945727E-01   0.209286E+03  -0.128026E-15
   LPB:    4  -0.755688027743826E+00   0.301593386359821E-02   0.224152E-01   0.216758E+00   0.108969E+03  -0.125035E-15
   LPB:    5  -0.755687743523682E+00   0.155823014586804E-02   0.229277E-01   0.412135E+00   0.196470E+03  -0.143445E-15
   LPB:    6  -0.755687567601405E+00   0.540878738088412E-03   0.309790E-01   0.458099E+00   0.148131E+03  -0.150032E-15
   LPB:    7  -0.755687445329737E+00   0.373882814942411E-03   0.374440E-01   0.575029E+00   0.209682E+03  -0.162499E-15
  Finished solving LPB equations
  A_corr:   -0.675737326398194     
 End minimization
 Ecorr=   1393.80311130793     
 A_corr= -0.675737326398194     
 Ecorr_band=  -1394.47884863432     
 End Solvation calculations
RMM:  33    -0.132501402065E+03    0.17077E-05   -0.75639E-06  2365   0.849E-03
 Begin Solvation calculations
  rms_SCF =   4.622714513101527E-003 tol =   4.622714513101527E-004
 Begin minimization
 Creating dielectric and ionic cavities
  area:      152.287514672376     
  volume:    677.747773523385     
  Acav:     7.995094520299739E-002
  Solving linear dielectric/ionic screening model
        iter                  A_solv                     rms
   LPB:       -0.755824405466048E+00   0.470883205936825E-01
   LPB:    0  -0.755822889965145E+00   0.350034151497390E-01  -0.303431E-03   0.000000E+00   0.329205E+02  -0.998910E-02
   LPB:    1  -0.755813680463942E+00   0.114393227906596E-01   0.101400E-01   0.000000E+00   0.100904E+03   0.573219E-18
   LPB:    2  -0.755812928670325E+00   0.216454753949408E-02   0.134472E-01   0.615558E-01   0.645736E+02  -0.588032E-16
   LPB:    3  -0.755812779454610E+00   0.161170383171199E-02   0.195189E-01   0.136739E+00   0.258230E+03  -0.640350E-16
   LPB:    4  -0.755812702827344E+00   0.659840638811206E-03   0.232010E-01   0.432034E+00   0.125914E+03  -0.634541E-16
   LPB:    5  -0.755812651248121E+00   0.337681589728743E-03   0.320720E-01   0.486936E+00   0.289288E+03  -0.603920E-16
  Finished solving LPB equations
  A_corr:   -0.675861706045124     
 End minimization
 Ecorr=   1393.67730735901     
 A_corr= -0.675861706045124     
 Ecorr_band=  -1394.35316906506     
 End Solvation calculations
   1 F= -.13250140E+03 E0= -.13249610E+03  d E =-.132501E+03
quench:  g(F)=  0.000E+00 g(S)=  0.000E+00 dE (1.order)= 0.000E+00
 bond charge predicted
       N       E                     dE             d eps       ncg     rms          rms(c)
 Begin Solvation calculations
  rms_SCF =   4.622714513101527E-003 tol =   4.622714513101527E-004
 Begin minimization
 Creating dielectric and ionic cavities
  area:      152.505779640975     
  volume:    677.754684304884     
  Acav:     8.006553431151174E-002
  Solving linear dielectric/ionic screening model
        iter                  A_solv                     rms
   LPB:       -0.775409617340498E+00   0.135133978723544E-01
   LPB:    0  -0.775409617339825E+00   0.135134753437096E-01   0.202216E-06   0.000000E+00   0.329202E+02   0.665697E-05
   LPB:    1  -0.759407775495891E+00   0.571538186269586E-02   0.159042E-01   0.000000E+00   0.692186E+06   0.241654E-21
   LPB:    2  -0.757563189061879E+00   0.673952339120617E-02   0.278601E-01   0.658047E-01   0.134040E+06  -0.223833E-17
   LPB:    3  -0.756959132647518E+00   0.118931394942817E-01   0.329579E-01   0.276823E+00   0.234122E+05  -0.350911E-17
   LPB:    4  -0.756705609667592E+00   0.311941739331558E-01   0.346789E-01   0.398873E+00   0.382949E+04  -0.203715E-16
   LPB:    5  -0.756596825563291E+00   0.603227486614852E-01   0.296058E-01   0.502616E+00   0.310909E+03  -0.805744E-17
   LPB:    6  -0.756539602241940E+00   0.344685031701355E-01   0.192153E-01   0.810469E+00   0.190908E+03   0.228399E-15
   LPB:    7  -0.756491100687438E+00   0.206119390940716E-01   0.294996E-01   0.552096E+00   0.564249E+03   0.391888E-15
   LPB:    8  -0.756463524574699E+00   0.255753509153730E-01   0.288122E-01   0.582125E+00   0.221413E+03   0.483828E-15
   LPB:    9  -0.756445892822549E+00   0.129420503856603E-01   0.239761E-01   0.768352E+00   0.220916E+03   0.308547E-15
   LPB:   10  -0.756431313226055E+00   0.389226293695356E-02   0.351579E-01   0.563906E+00   0.606786E+03   0.592241E-15
   LPB:   11  -0.756421857978828E+00   0.221406832433901E-02   0.390504E-01   0.583881E+00   0.467982E+04   0.897651E-15
   LPB:   12  -0.756415827973743E+00   0.261379216203088E-02   0.393986E-01   0.632105E+00   0.226305E+04   0.104490E-14
   LPB:   13  -0.756411929055197E+00   0.291221596384141E-02   0.366354E-01   0.695354E+00   0.172078E+04   0.113927E-14
   LPB:   14  -0.756409209421621E+00   0.227627882845631E-02   0.349197E-01   0.731807E+00   0.118909E+04   0.120266E-14
   LPB:   15  -0.756407206452960E+00   0.132851431459496E-02   0.360928E-01   0.712548E+00   0.206128E+04   0.124820E-14
   LPB:   16  -0.756405712096376E+00   0.106237014488684E-02   0.406037E-01   0.663185E+00   0.234802E+04   0.128398E-14
   LPB:   17  -0.756404670367247E+00   0.123812680899942E-02   0.391967E-01   0.722132E+00   0.263239E+04   0.131175E-14
   LPB:   18  -0.756403892023416E+00   0.127854004648731E-02   0.381885E-01   0.766891E+00   0.141381E+04   0.133154E-14
   LPB:   19  -0.756403294138326E+00   0.948655952300601E-03   0.368903E-01   0.795184E+00   0.168408E+04   0.134634E-14
   LPB:   20  -0.756402800391383E+00   0.553226835227650E-03   0.399427E-01   0.762713E+00   0.251877E+04   0.135810E-14
   LPB:   21  -0.756402388483027E+00   0.396018114125967E-03   0.440601E-01   0.756290E+00   0.425398E+04   0.136816E-14
  Finished solving LPB equations
  A_corr:   -0.676336854171515     
 End minimization
 Ecorr=   1393.35626177796     
 A_corr= -0.676336854171515     
 Ecorr_band=  -1394.03259863213     
 End Solvation calculations
DAV:   1    -0.132508890276E+03   -0.74865E-02   -0.13723E+00  4230   0.179E+00    0.384E-01
 Begin Solvation calculations
  rms_SCF =   4.622714513101527E-003 tol =   4.622714513101527E-004
 Begin minimization
 Creating dielectric and ionic cavities
  area:      152.342526546513     
  volume:    677.548427560733     
  Acav:     7.997982643691920E-002
  Solving linear dielectric/ionic screening model
        iter                  A_solv                     rms
   LPB:       -0.764982648211521E+00   0.601720319863962E+00
   LPB:    0  -0.764688058942888E+00   0.496483955399873E+00  -0.422989E-02   0.000000E+00   0.329298E+02  -0.139289E+00
   LPB:    1  -0.762737385293763E+00   0.163858130395684E+00   0.122727E-01   0.000000E+00   0.970751E+02  -0.336703E-17
   LPB:    2  -0.762446539611384E+00   0.306151746720861E-01   0.133337E-01   0.137237E+00   0.215111E+03  -0.788899E-16
   LPB:    3  -0.762355015189169E+00   0.220747236642165E-01   0.243004E-01   0.172668E+00   0.596017E+03   0.366858E-16
   LPB:    4  -0.762325857848488E+00   0.224722408652331E-01   0.236849E-01   0.326854E+00   0.186340E+03   0.105878E-15
   LPB:    5  -0.762310593391687E+00   0.117602278650524E-01   0.230329E-01   0.538339E+00   0.223994E+03   0.866782E-16
   LPB:    6  -0.762301620749243E+00   0.502004416397652E-02   0.309244E-01   0.437810E+00   0.262160E+03   0.349300E-16
   LPB:    7  -0.762296757114204E+00   0.275789902018345E-02   0.328301E-01   0.510588E+00   0.837160E+03   0.373682E-16
   LPB:    8  -0.762293901571682E+00   0.172867295612107E-02   0.337870E-01   0.570492E+00   0.758262E+03   0.517179E-16
   LPB:    9  -0.762292128239174E+00   0.122296706098577E-02   0.358200E-01   0.585768E+00   0.994626E+03   0.622843E-16
   LPB:   10  -0.762291017452701E+00   0.962499179836216E-03   0.368346E-01   0.609130E+00   0.110367E+04   0.696091E-16
   LPB:   11  -0.762290317709236E+00   0.854879136374890E-03   0.369595E-01   0.627825E+00   0.104414E+04   0.722334E-16
   LPB:   12  -0.762289866016520E+00   0.812676500200614E-03   0.362286E-01   0.658534E+00   0.109205E+04   0.764167E-16
   LPB:   13  -0.762289559215007E+00   0.708454304025303E-03   0.359182E-01   0.685096E+00   0.104711E+04   0.777699E-16
   LPB:   14  -0.762289342883842E+00   0.559238207661833E-03   0.362272E-01   0.699103E+00   0.105049E+04   0.786903E-16
   LPB:   15  -0.762289183692425E+00   0.428571823240782E-03   0.377939E-01   0.705365E+00   0.127900E+04   0.792647E-16
  Finished solving LPB equations
  A_corr:   -0.682309357255506     
 End minimization
 Ecorr=   1392.77851905260     
 A_corr= -0.682309357255506     
 Ecorr_band=  -1393.46082840986     
 End Solvation calculations
RMM:   2    -0.132517088829E+03   -0.81986E-02   -0.10393E-01  5774   0.546E-01    0.322E-01
 Begin Solvation calculations
  rms_SCF =   4.622714513101527E-003 tol =   4.622714513101527E-004
 Begin minimization
 Creating dielectric and ionic cavities
  area:      152.343605026220     
  volume:    677.561937097930     
  Acav:     7.998039263876563E-002
  Solving linear dielectric/ionic screening model
        iter                  A_solv                     rms
   LPB:       -0.764650785553835E+00   0.126852566240234E+00
   LPB:    0  -0.764624938143306E+00   0.754301398057477E-01  -0.125295E-02   0.000000E+00   0.329292E+02  -0.412586E-01
   LPB:    1  -0.764491522047217E+00   0.211965571682868E-01   0.156101E-01   0.000000E+00   0.141346E+03   0.315587E-17
   LPB:    2  -0.764479144836725E+00   0.173678619518514E-01   0.151486E-01   0.955978E-01   0.283954E+03   0.332666E-15
   LPB:    3  -0.764474866709811E+00   0.866414822112185E-02   0.182012E-01   0.287677E+00   0.104553E+03   0.388782E-15
   LPB:    4  -0.764473100281887E+00   0.554913174423320E-02   0.242346E-01   0.310103E+00   0.165192E+03   0.393554E-15
   LPB:    5  -0.764472212309273E+00   0.334838355413584E-02   0.221464E-01   0.550093E+00   0.294667E+03   0.402510E-15
   LPB:    6  -0.764471561365568E+00   0.148684843368551E-02   0.306729E-01   0.529289E+00   0.184330E+03   0.429993E-15
   LPB:    7  -0.764471141715727E+00   0.929373238850709E-03   0.354367E-01   0.558014E+00   0.891590E+03   0.460071E-15
   LPB:    8  -0.764470869591521E+00   0.624518713335160E-03   0.351423E-01   0.653888E+00   0.532723E+03   0.474039E-15
   LPB:    9  -0.764470678256747E+00   0.478567637328353E-03   0.375176E-01   0.658600E+00   0.118920E+04   0.478375E-15
   LPB:   10  -0.764470539479525E+00   0.419845633980146E-03   0.382171E-01   0.712036E+00   0.981984E+03   0.477694E-15
  Finished solving LPB equations
  A_corr:   -0.684490146840760     
 End minimization
 Ecorr=   1392.48543193301     
 A_corr= -0.684490146840760     
 Ecorr_band=  -1393.16992207985     
 End Solvation calculations
RMM:   3    -0.132514488025E+03    0.26008E-02   -0.58285E-03  5837   0.138E-01    0.173E-01
 Begin Solvation calculations
  rms_SCF =   4.622714513101527E-003 tol =   4.622714513101527E-004
 Begin minimization
 Creating dielectric and ionic cavities
  area:      152.311851620121     
  volume:    677.529169854737     
  Acav:     7.996372210056359E-002
  Solving linear dielectric/ionic screening model
        iter                  A_solv                     rms
   LPB:       -0.772544829931110E+00   0.616695628225827E+00
   LPB:    0  -0.772328818008990E+00   0.540201468695927E+00  -0.362204E-02   0.000000E+00   0.329307E+02  -0.119276E+00
   LPB:    1  -0.770673787742869E+00   0.130699340086806E+00   0.109583E-01   0.000000E+00   0.890363E+02   0.301894E-17
   LPB:    2  -0.770453980623816E+00   0.195861602551576E-01   0.132477E-01   0.109860E+00   0.215816E+03   0.108854E-15
   LPB:    3  -0.770405969283284E+00   0.158106713400187E-01   0.240560E-01   0.120287E+00   0.521310E+03  -0.209729E-15
   LPB:    4  -0.770392657123936E+00   0.137399206198055E-01   0.228208E-01   0.292279E+00   0.149449E+03  -0.230493E-15
   LPB:    5  -0.770386437366106E+00   0.773532959447018E-02   0.225371E-01   0.473107E+00   0.285417E+03  -0.208224E-15
   LPB:    6  -0.770383180263667E+00   0.290311642031628E-02   0.287165E-01   0.410983E+00   0.174150E+03  -0.654763E-16
   LPB:    7  -0.770381456842243E+00   0.170905619415035E-02   0.313831E-01   0.484168E+00   0.683912E+03   0.203183E-17
   LPB:    8  -0.770380461428786E+00   0.950055278330584E-03   0.337013E-01   0.537850E+00   0.358138E+03   0.519807E-16
   LPB:    9  -0.770379865493479E+00   0.766210893997605E-03   0.358735E-01   0.562430E+00   0.433177E+03   0.773321E-16
   LPB:   10  -0.770379499799703E+00   0.629627284012440E-03   0.364191E-01   0.604453E+00   0.360118E+03   0.925910E-16
   LPB:   11  -0.770379269204442E+00   0.587385347477188E-03   0.359309E-01   0.639137E+00   0.386444E+03   0.102202E-15
   LPB:   12  -0.770379116600262E+00   0.495450150896739E-03   0.355396E-01   0.669072E+00   0.334253E+03   0.106132E-15
   LPB:   13  -0.770379008121925E+00   0.399926143761147E-03   0.365952E-01   0.690342E+00   0.401905E+03   0.109083E-15
  Finished solving LPB equations
  A_corr:   -0.690415286021362     
 End minimization
 Ecorr=   1391.63392335647     
 A_corr= -0.690415286021362     
 Ecorr_band=  -1392.32433864249     
 End Solvation calculations
RMM:   4    -0.132514388383E+03    0.99643E-04   -0.19371E-03  4210   0.148E-01    0.176E-01
 Begin Solvation calculations
  rms_SCF =   4.622714513101527E-003 tol =   4.622714513101527E-004
 Begin minimization
 Creating dielectric and ionic cavities
  area:      152.291206115833     
  volume:    677.540140143639     
  Acav:     7.995288321081216E-002
  Solving linear dielectric/ionic screening model
        iter                  A_solv                     rms
   LPB:       -0.775236477952290E+00   0.307099748786061E+00
   LPB:    0  -0.775131516459185E+00   0.222269774550336E+00  -0.252483E-02   0.000000E+00   0.329302E+02  -0.831433E-01
   LPB:    1  -0.774564214761395E+00   0.840186284668770E-01   0.142206E-01   0.000000E+00   0.937023E+02   0.366076E-17
   LPB:    2  -0.774478658376116E+00   0.286588670420863E-01   0.125409E-01   0.171013E+00   0.212659E+03   0.223182E-15
   LPB:    3  -0.774456844602578E+00   0.151087571718189E-01   0.221763E-01   0.144184E+00   0.146716E+03   0.230516E-15
   LPB:    4  -0.774450122629215E+00   0.964912142023801E-02   0.230721E-01   0.296189E+00   0.134803E+03   0.237997E-15
   LPB:    5  -0.774447153596347E+00   0.517646479564558E-02   0.217651E-01   0.468214E+00   0.319103E+03   0.227905E-15
   LPB:    6  -0.774445488827747E+00   0.174768569384492E-02   0.293023E-01   0.416484E+00   0.177096E+03   0.253989E-15
   LPB:    7  -0.774444664981875E+00   0.116508745867242E-02   0.330010E-01   0.439406E+00   0.663425E+03   0.276052E-15
   LPB:    8  -0.774444210962760E+00   0.805750096865272E-03   0.337592E-01   0.538719E+00   0.327990E+03   0.276185E-15
   LPB:    9  -0.774443925875513E+00   0.614607766965985E-03   0.354070E-01   0.598697E+00   0.421824E+03   0.279334E-15
   LPB:   10  -0.774443739516259E+00   0.484578473744297E-03   0.365367E-01   0.633480E+00   0.345277E+03   0.283134E-15
   LPB:   11  -0.774443615724799E+00   0.426342621766992E-03   0.362421E-01   0.669663E+00   0.379253E+03   0.287181E-15
  Finished solving LPB equations
  A_corr:   -0.694490732513987     
 End minimization
 Ecorr=   1390.88065378667     
 A_corr= -0.694490732513987     
 Ecorr_band=  -1391.57514451918     
 End Solvation calculations
RMM:   5    -0.132513801555E+03    0.58683E-03   -0.11232E-03  4096   0.146E-01    0.629E-02
 Begin Solvation calculations
  rms_SCF =   4.622714513101527E-003 tol =   4.622714513101527E-004
 Begin minimization
 Creating dielectric and ionic cavities
  area:      152.324923121002     
  volume:    677.582468371640     
  Acav:     7.997058463852583E-002
  Solving linear dielectric/ionic screening model
        iter                  A_solv                     rms
   LPB:       -0.779986136726512E+00   0.346247283099844E+00
   LPB:    0  -0.779868193821898E+00   0.259226544920623E+00  -0.267650E-02   0.000000E+00   0.329282E+02  -0.881323E-01
   LPB:    1  -0.779269903232483E+00   0.999928094299948E-01   0.123754E-01   0.000000E+00   0.967966E+02   0.993330E-19
   LPB:    2  -0.779194133532982E+00   0.154586836223369E-01   0.126280E-01   0.124110E+00   0.122138E+03   0.565831E-15
   LPB:    3  -0.779176435824046E+00   0.108771889060734E-01   0.213207E-01   0.138342E+00   0.326234E+03   0.624531E-15
   LPB:    4  -0.779171392752448E+00   0.846038200051326E-02   0.222810E-01   0.272674E+00   0.109824E+03   0.653393E-15
   LPB:    5  -0.779169059985921E+00   0.493471045144083E-02   0.224081E-01   0.459945E+00   0.317603E+03   0.715943E-15
   LPB:    6  -0.779167808372154E+00   0.155401242280166E-02   0.295427E-01   0.406963E+00   0.124005E+03   0.720930E-15
   LPB:    7  -0.779167115136395E+00   0.110667934679850E-02   0.328021E-01   0.498837E+00   0.277872E+03   0.711768E-15
   LPB:    8  -0.779166659820588E+00   0.695905129018954E-03   0.359536E-01   0.599228E+00   0.172066E+03   0.713015E-15
   LPB:    9  -0.779166354829452E+00   0.634252046846418E-03   0.376416E-01   0.639805E+00   0.177551E+03   0.716294E-15
   LPB:   10  -0.779166151506450E+00   0.537012601253404E-03   0.369896E-01   0.678404E+00   0.150279E+03   0.719027E-15
   LPB:   11  -0.779166015059842E+00   0.479678484762952E-03   0.358228E-01   0.692940E+00   0.208852E+03   0.721426E-15
   LPB:   12  -0.779165922204382E+00   0.363729615316639E-03   0.356702E-01   0.683437E+00   0.185121E+03   0.722949E-15
  Finished solving LPB equations
  A_corr:   -0.699195337565856     
 End minimization
 Ecorr=   1389.90078311444     
 A_corr= -0.699195337565856     
 Ecorr_band=  -1390.59997845200     
 End Solvation calculations
RMM:   6    -0.132513726853E+03    0.74701E-04   -0.32657E-04  4168   0.688E-02    0.380E-02
 Begin Solvation calculations
  rms_SCF =   4.622714513101527E-003 tol =   4.622714513101527E-004
 Begin minimization
 Creating dielectric and ionic cavities
  area:      152.352600128203     
  volume:    677.614274396301     
  Acav:     7.998511506730682E-002
  Solving linear dielectric/ionic screening model
        iter                  A_solv                     rms
   LPB:       -0.780876466224437E+00   0.109910070353447E+00
   LPB:    0  -0.780864219080008E+00   0.787654909333743E-01  -0.862498E-03   0.000000E+00   0.329268E+02  -0.283993E-01
   LPB:    1  -0.780801856434488E+00   0.343735764476345E-01   0.126538E-01   0.000000E+00   0.973151E+02   0.501785E-18
   LPB:    2  -0.780794242360540E+00   0.527910003054686E-02   0.125356E-01   0.123245E+00   0.938527E+02  -0.863895E-16
   LPB:    3  -0.780792538186534E+00   0.353318039823625E-02   0.202361E-01   0.138648E+00   0.264083E+03  -0.727519E-16
   LPB:    4  -0.780792003694391E+00   0.261191227546723E-02   0.234930E-01   0.270158E+00   0.868767E+02  -0.701226E-16
   LPB:    5  -0.780791740318360E+00   0.186459801725222E-02   0.234689E-01   0.493266E+00   0.326119E+03  -0.592305E-16
   LPB:    6  -0.780791568139438E+00   0.644448471979473E-03   0.309829E-01   0.495193E+00   0.827857E+02  -0.571117E-16
   LPB:    7  -0.780791449602379E+00   0.523754779715150E-03   0.360744E-01   0.591284E+00   0.149382E+03  -0.529103E-16
   LPB:    8  -0.780791344349455E+00   0.386877214431241E-03   0.415825E-01   0.770317E+00   0.925590E+02  -0.526393E-16
  Finished solving LPB equations
  A_corr:   -0.700806229282148     
 End minimization
 Ecorr=   1389.48903031494     
 A_corr= -0.700806229282148     
 Ecorr_band=  -1390.18983654423     
 End Solvation calculations
RMM:   7    -0.132513743146E+03   -0.16293E-04   -0.12011E-04  3773   0.452E-02    0.197E-02
 Begin Solvation calculations
  rms_SCF =   4.622714513101527E-003 tol =   4.622714513101527E-004
 Begin minimization
 Creating dielectric and ionic cavities
  area:      152.411050916419     
  volume:    677.678407291614     
  Acav:     8.001580173111986E-002
  Solving linear dielectric/ionic screening model
        iter                  A_solv                     rms
   LPB:       -0.784428433903083E+00   0.210336924953393E+00
   LPB:    0  -0.784378000889089E+00   0.139437044575352E+00  -0.175032E-02   0.000000E+00   0.329238E+02  -0.576271E-01
   LPB:    1  -0.784144404355557E+00   0.635339782047635E-01   0.136652E-01   0.000000E+00   0.909357E+02   0.254965E-17
   LPB:    2  -0.784118284776557E+00   0.123734966436960E-01   0.128074E-01   0.119304E+00   0.869615E+02  -0.153045E-15
   LPB:    3  -0.784111878717579E+00   0.756967863150838E-02   0.189080E-01   0.166127E+00   0.284952E+03  -0.172033E-15
   LPB:    4  -0.784109719055617E+00   0.534636616403505E-02   0.227365E-01   0.280361E+00   0.853745E+02  -0.175445E-15
   LPB:    5  -0.784108623305879E+00   0.384467458881971E-02   0.238280E-01   0.484130E+00   0.304349E+03  -0.225879E-15
   LPB:    6  -0.784107825171366E+00   0.134928328530306E-02   0.326266E-01   0.531961E+00   0.813352E+02  -0.236035E-15
   LPB:    7  -0.784107255195521E+00   0.103863148435089E-02   0.361924E-01   0.643777E+00   0.140463E+03  -0.223756E-15
   LPB:    8  -0.784106850431366E+00   0.725985289893156E-03   0.371552E-01   0.691740E+00   0.116526E+03  -0.215313E-15
   LPB:    9  -0.784106578702221E+00   0.629780826913176E-03   0.371578E-01   0.671280E+00   0.165360E+03  -0.206426E-15
   LPB:   10  -0.784106399927526E+00   0.566276686226239E-03   0.357923E-01   0.683015E+00   0.161122E+03  -0.199957E-15
   LPB:   11  -0.784106279095921E+00   0.449019646890631E-03   0.349978E-01   0.691231E+00   0.287508E+03  -0.194372E-15
  Finished solving LPB equations
  A_corr:   -0.704090477364801     
 End minimization
 Ecorr=   1388.55324580501     
 A_corr= -0.704090477364801     
 Ecorr_band=  -1389.25733628238     
 End Solvation calculations
RMM:   8    -0.132513810293E+03   -0.67147E-04   -0.47592E-05  2854   0.195E-02    0.157E-02
 Begin Solvation calculations
  rms_SCF =   4.622714513101527E-003 tol =   4.622714513101527E-004
 Begin minimization
 Creating dielectric and ionic cavities
  area:      152.464231048449     
  volume:    677.728819654967     
  Acav:     8.004372130043597E-002
  Solving linear dielectric/ionic screening model
        iter                  A_solv                     rms
   LPB:       -0.787389506005133E+00   0.191416226075099E+00
   LPB:    0  -0.787345452205016E+00   0.121660724069913E+00  -0.163594E-02   0.000000E+00   0.329214E+02  -0.538574E-01
   LPB:    1  -0.787153520887102E+00   0.484153400454419E-01   0.146632E-01   0.000000E+00   0.808450E+02  -0.164692E-17
   LPB:    2  -0.787134204752377E+00   0.130112403483475E-01   0.137949E-01   0.106976E+00   0.913058E+02   0.389762E-15
   LPB:    3  -0.787129381516162E+00   0.744943524697349E-02   0.180814E-01   0.190505E+00   0.264074E+03   0.399541E-15
   LPB:    4  -0.787127538849236E+00   0.546280830841460E-02   0.217747E-01   0.317241E+00   0.892379E+02   0.432880E-15
   LPB:    5  -0.787126607770167E+00   0.354321313753734E-02   0.226574E-01   0.485602E+00   0.284857E+03   0.376866E-15
   LPB:    6  -0.787125993158366E+00   0.110086089367707E-02   0.303113E-01   0.493424E+00   0.964025E+02   0.304079E-15
   LPB:    7  -0.787125566757781E+00   0.877367570736451E-03   0.371729E-01   0.565713E+00   0.160158E+03   0.245629E-15
   LPB:    8  -0.787125239129919E+00   0.699474628833834E-03   0.392955E-01   0.726852E+00   0.112809E+03   0.206434E-15
   LPB:    9  -0.787125000461020E+00   0.599602993484229E-03   0.382974E-01   0.747461E+00   0.134193E+03   0.170272E-15
   LPB:   10  -0.787124839392267E+00   0.537857968850181E-03   0.360643E-01   0.716651E+00   0.132678E+03   0.145429E-15
   LPB:   11  -0.787124732349424E+00   0.421491330894158E-03   0.346247E-01   0.692209E+00   0.239620E+03   0.128240E-15
  Finished solving LPB equations
  A_corr:   -0.707081011048988     
 End minimization
 Ecorr=   1387.69730722317     
 A_corr= -0.707081011048988     
 Ecorr_band=  -1388.40438823422     
 End Solvation calculations
RMM:   9    -0.132513876535E+03   -0.66242E-04   -0.34348E-05  2660   0.215E-02    0.163E-02
 Begin Solvation calculations
  rms_SCF =   4.622714513101527E-003 tol =   4.622714513101527E-004
 Begin minimization
 Creating dielectric and ionic cavities
  area:      152.526469409299     
  volume:    677.779248967110     
  Acav:     8.007639643988221E-002
  Solving linear dielectric/ionic screening model
        iter                  A_solv                     rms
   LPB:       -0.790990564903961E+00   0.227213957251910E+00
   LPB:    0  -0.790929325289743E+00   0.144841085980039E+00  -0.192889E-02   0.000000E+00   0.329190E+02  -0.634972E-01
   LPB:    1  -0.790675171849496E+00   0.577482477925426E-01   0.144596E-01   0.000000E+00   0.773819E+02  -0.160286E-17
   LPB:    2  -0.790648296205176E+00   0.146298992428337E-01   0.136898E-01   0.111692E+00   0.896326E+02   0.568914E-15
   LPB:    3  -0.790641906679192E+00   0.899914903333345E-02   0.181474E-01   0.179346E+00   0.279593E+03   0.641435E-15
   LPB:    4  -0.790639436048697E+00   0.625393067637319E-02   0.216255E-01   0.324480E+00   0.856121E+02   0.639835E-15
   LPB:    5  -0.790638158498610E+00   0.392043654801912E-02   0.230269E-01   0.485625E+00   0.284249E+03   0.612541E-15
   LPB:    6  -0.790637306639552E+00   0.123241079787089E-02   0.307699E-01   0.498998E+00   0.100969E+03   0.592896E-15
   LPB:    7  -0.790636721615321E+00   0.995944051732453E-03   0.372522E-01   0.567257E+00   0.161462E+03   0.563077E-15
   LPB:    8  -0.790636289061856E+00   0.805087682072888E-03   0.388246E-01   0.709432E+00   0.118862E+03   0.543573E-15
   LPB:    9  -0.790635984721164E+00   0.686376439629968E-03   0.376738E-01   0.725084E+00   0.147631E+03   0.531338E-15
   LPB:   10  -0.790635782721108E+00   0.599267443527394E-03   0.357595E-01   0.699261E+00   0.143015E+03   0.523259E-15
   LPB:   11  -0.790635648663182E+00   0.475001865768702E-03   0.346577E-01   0.684751E+00   0.251134E+03   0.521281E-15
   LPB:   12  -0.790635560052507E+00   0.316258704991446E-03   0.354987E-01   0.645328E+00   0.232179E+03   0.520305E-15
  Finished solving LPB equations
  A_corr:   -0.710559163612625     
 End minimization
 Ecorr=   1386.68915847751     
 A_corr= -0.710559163612625     
 Ecorr_band=  -1387.39971764113     
 End Solvation calculations
RMM:  10    -0.132513953884E+03   -0.77349E-04   -0.36235E-05  2717   0.218E-02    0.123E-02
 Begin Solvation calculations
  rms_SCF =   4.622714513101527E-003 tol =   4.622714513101527E-004
 Begin minimization
 Creating dielectric and ionic cavities
  area:      152.559744291872     
  volume:    677.798148292666     
  Acav:     8.009386575323273E-002
  Solving linear dielectric/ionic screening model
        iter                  A_solv                     rms
   LPB:       -0.792742208907945E+00   0.137879769728374E+00
   LPB:    0  -0.792721863801945E+00   0.922466837728651E-01  -0.111180E-02   0.000000E+00   0.329181E+02  -0.365984E-01
   LPB:    1  -0.792633701528835E+00   0.245419707617967E-01   0.150233E-01   0.000000E+00   0.633165E+02  -0.313033E-18
   LPB:    2  -0.792624575757894E+00   0.735027430376842E-02   0.150326E-01   0.103447E+00   0.131859E+03  -0.329996E-15
   LPB:    3  -0.792622510113994E+00   0.290976083116126E-02   0.211358E-01   0.160991E+00   0.155025E+03  -0.381107E-15
   LPB:    4  -0.792621676550753E+00   0.311180870335542E-02   0.253297E-01   0.336721E+00   0.173734E+03  -0.385660E-15
   LPB:    5  -0.792621304878407E+00   0.405173474017794E-02   0.231308E-01   0.488273E+00   0.178599E+03  -0.389225E-15
   LPB:    6  -0.792621047877489E+00   0.144151798252690E-02   0.216307E-01   0.739424E+00   0.870110E+02  -0.391323E-15
   LPB:    7  -0.792620839959560E+00   0.633935616789693E-03   0.347057E-01   0.504229E+00   0.192223E+03  -0.392187E-15
   LPB:    8  -0.792620675362172E+00   0.481557365448968E-03   0.404171E-01   0.679778E+00   0.112360E+03  -0.394077E-15
   LPB:    9  -0.792620549943376E+00   0.472095931618467E-03   0.384292E-01   0.801387E+00   0.145973E+03  -0.390152E-15
   LPB:   10  -0.792620461555387E+00   0.383539521043824E-03   0.363757E-01   0.744529E+00   0.125571E+03  -0.388445E-15
  Finished solving LPB equations
  A_corr:   -0.712526595802154     
 End minimization
 Ecorr=   1386.10774190826     
 A_corr= -0.712526595802154     
 Ecorr_band=  -1386.82026850406     
 End Solvation calculations
RMM:  11    -0.132514004488E+03   -0.50604E-04   -0.20775E-05  2420   0.139E-02    0.876E-03
 Begin Solvation calculations
  rms_SCF =   4.622714513101527E-003 tol =   4.622714513101527E-004
 Begin minimization
 Creating dielectric and ionic cavities
  area:      152.624959527335     
  volume:    677.825109085414     
  Acav:     8.012810375185071E-002
  Solving linear dielectric/ionic screening model
        iter                  A_solv                     rms
   LPB:       -0.797274880670699E+00   0.300488159607946E+00
   LPB:    0  -0.797187989080254E+00   0.209954205133507E+00  -0.229771E-02   0.000000E+00   0.329169E+02  -0.756333E-01
   LPB:    1  -0.796776572661245E+00   0.495899036247799E-01   0.148808E-01   0.000000E+00   0.599969E+02   0.149623E-17
   LPB:    2  -0.796733049286777E+00   0.154177834931025E-01   0.150402E-01   0.104668E+00   0.151471E+03  -0.244062E-14
   LPB:    3  -0.796723517197045E+00   0.516833951010504E-02   0.214905E-01   0.153276E+00   0.138333E+03  -0.253634E-14
   LPB:    4  -0.796719531305996E+00   0.400271575910623E-02   0.270712E-01   0.331953E+00   0.267192E+03  -0.252877E-14
   LPB:    5  -0.796717510051601E+00   0.537622161222609E-02   0.322050E-01   0.426265E+00   0.130407E+03  -0.252661E-14
   LPB:    6  -0.796716500457710E+00   0.669151083123517E-02   0.238133E-01   0.675506E+00   0.152175E+03  -0.252732E-14
   LPB:    7  -0.796715625506657E+00   0.264723420184624E-02   0.236870E-01   0.871259E+00   0.104839E+03  -0.252650E-14
   LPB:    8  -0.796714897609116E+00   0.119353302223931E-02   0.351724E-01   0.560266E+00   0.144424E+03  -0.252192E-14
   LPB:    9  -0.796714404756618E+00   0.919035038822905E-03   0.362989E-01   0.656076E+00   0.192525E+03  -0.251325E-14
   LPB:   10  -0.796714080195995E+00   0.723739081619888E-03   0.356788E-01   0.669981E+00   0.171235E+03  -0.250629E-14
   LPB:   11  -0.796713867643504E+00   0.582090930300227E-03   0.351560E-01   0.664633E+00   0.293841E+03  -0.250671E-14
   LPB:   12  -0.796713729874891E+00   0.423052582509528E-03   0.351924E-01   0.647491E+00   0.272398E+03  -0.251088E-14
  Finished solving LPB equations
  A_corr:   -0.716585626123041     
 End minimization
 Ecorr=   1384.84943163758     
 A_corr= -0.716585626123041     
 Ecorr_band=  -1385.56601726371     
 End Solvation calculations
RMM:  12    -0.132514111854E+03   -0.10737E-03   -0.45649E-05  2792   0.190E-02    0.954E-03
 Begin Solvation calculations
  rms_SCF =   4.622714513101527E-003 tol =   4.622714513101527E-004
 Begin minimization
 Creating dielectric and ionic cavities
  area:      152.662618836788     
  volume:    677.837324468005     
  Acav:     8.014787488931349E-002
  Solving linear dielectric/ionic screening model
        iter                  A_solv                     rms
   LPB:       -0.799399770801505E+00   0.187471062827799E+00
   LPB:    0  -0.799367663355893E+00   0.133567231054160E+00  -0.139673E-02   0.000000E+00   0.329163E+02  -0.459752E-01
   LPB:    1  -0.799210889796771E+00   0.300134758259563E-01   0.147342E-01   0.000000E+00   0.585501E+02  -0.316845E-17
   LPB:    2  -0.799193995214894E+00   0.953898569851695E-02   0.149311E-01   0.106343E+00   0.164136E+03  -0.551239E-15
   LPB:    3  -0.799190393789527E+00   0.416487463126353E-02   0.213214E-01   0.149281E+00   0.134130E+03  -0.507468E-15
   LPB:    4  -0.799188921990387E+00   0.492001810243439E-02   0.255239E-01   0.341384E+00   0.231835E+03  -0.507813E-15
   LPB:    5  -0.799188249918209E+00   0.496231131689022E-02   0.233552E-01   0.499034E+00   0.102558E+03  -0.507606E-15
   LPB:    6  -0.799187773365593E+00   0.195400618456797E-02   0.218028E-01   0.759568E+00   0.149180E+03  -0.504022E-15
   LPB:    7  -0.799187380744256E+00   0.815135277224058E-03   0.352717E-01   0.509271E+00   0.152299E+03  -0.497328E-15
   LPB:    8  -0.799187071347072E+00   0.613253447651135E-03   0.407065E-01   0.682819E+00   0.124739E+03  -0.491808E-15
   LPB:    9  -0.799186839652685E+00   0.600119639697353E-03   0.384553E-01   0.792695E+00   0.158452E+03  -0.483460E-15
   LPB:   10  -0.799186680303274E+00   0.503135904038062E-03   0.365372E-01   0.723862E+00   0.137049E+03  -0.477114E-15
   LPB:   11  -0.799186576414110E+00   0.408629882305379E-03   0.351314E-01   0.678048E+00   0.241926E+03  -0.475793E-15
  Finished solving LPB equations
  A_corr:   -0.719038701524796     
 End minimization
 Ecorr=   1384.07084968274     
 A_corr= -0.719038701524796     
[...]
  area:      153.114286401565     
  volume:    676.757500455203     
  Acav:     8.038500036082144E-002
  Solving linear dielectric/ionic screening model
        iter                  A_solv                     rms
   LPB:       -0.882859369750410E+00   0.276375992935052E-01
   LPB:    0  -0.882859365040701E+00   0.276070767854234E-01   0.169034E-04   0.000000E+00   0.329669E+02   0.557251E-03
   LPB:    1  -0.882857143202887E+00   0.283521754027716E-02   0.891515E-02   0.000000E+00   0.733220E+02   0.477925E-19
   LPB:    2  -0.882856912131922E+00   0.526532998682476E-03   0.173394E-01   0.534720E-01   0.125610E+03   0.316171E-17
   LPB:    3  -0.882856882850330E+00   0.307995490622772E-03   0.228990E-01   0.959548E-01   0.229903E+03   0.472971E-17
   LPB:    4  -0.882856872736932E+00   0.209252256867861E-03   0.287288E-01   0.275298E+00   0.278308E+03   0.303939E-17
   LPB:    5  -0.882856868629710E+00   0.208561543682715E-03   0.269840E-01   0.432377E+00   0.277077E+03   0.311537E-17
   LPB:    6  -0.882856866513966E+00   0.155486342683347E-03   0.252041E-01   0.551505E+00   0.213765E+03   0.304485E-17
   LPB:    7  -0.882856865165207E+00   0.927654559503939E-04   0.281753E-01   0.570261E+00   0.295920E+03   0.409450E-17
   LPB:    8  -0.882856864157788E+00   0.462069325026884E-04   0.346213E-01   0.607857E+00   0.414537E+03   0.548718E-17
  Finished solving LPB equations
  A_corr:   -0.802471863796967     
 End minimization
 Ecorr=   1371.82589020229     
 A_corr= -0.802471863796967     
 Ecorr_band=  -1372.62836206609     
 End Solvation calculations
RMM:   3    -0.132451244593E+03    0.39300E-05   -0.18830E-05  2298   0.188E-02
 Begin Solvation calculations
  rms_SCF =   6.926688700436342E-004 tol =   6.926688700436342E-005
 Begin minimization
 Creating dielectric and ionic cavities
  area:      153.114113589062     
  volume:    676.758870203412     
  Acav:     8.038490963425740E-002
  Solving linear dielectric/ionic screening model
        iter                  A_solv                     rms
   LPB:       -0.882773542630826E+00   0.131039429786398E-01
   LPB:    0  -0.882773510647600E+00   0.126545326968616E-01   0.440491E-04   0.000000E+00   0.329669E+02   0.145216E-02
   LPB:    1  -0.882772924480378E+00   0.148378827530423E-02   0.957255E-02   0.000000E+00   0.790864E+02  -0.100221E-18
   LPB:    2  -0.882772857410414E+00   0.278785270919706E-03   0.147110E-01   0.744549E-01   0.288156E+03   0.609943E-17
   LPB:    3  -0.882772845133899E+00   0.248008911291979E-03   0.250466E-01   0.107508E+00   0.570327E+03   0.406977E-17
   LPB:    4  -0.882772841271020E+00   0.227440140896273E-03   0.252191E-01   0.312503E+00   0.166933E+03   0.404744E-17
   LPB:    5  -0.882772839306832E+00   0.137821951258240E-03   0.236022E-01   0.543313E+00   0.303280E+03   0.343787E-17
   LPB:    6  -0.882772838078507E+00   0.725204252905134E-04   0.298741E-01   0.494069E+00   0.218810E+03   0.231583E-17
   LPB:    7  -0.882772837278898E+00   0.466844683281463E-04   0.336312E-01   0.578252E+00   0.726782E+03   0.152070E-17
  Finished solving LPB equations
  A_corr:   -0.802387927644640     
 End minimization
 Ecorr=   1371.82929289609     
 A_corr= -0.802387927644640     
 Ecorr_band=  -1372.63168082374     
 End Solvation calculations
 176 F= -.13245124E+03 E0= -.13244719E+03  d E =-.214341E-03
quench:  g(F)=  0.000E+00 g(S)=  0.000E+00 dE (1.order)= 0.000E+00
 bond charge predicted
       N       E                     dE             d eps       ncg     rms          rms(c)
 Begin Solvation calculations
  rms_SCF =   6.926688700436342E-004 tol =   6.926688700436342E-005
 Begin minimization
 Creating dielectric and ionic cavities
  area:      153.117590264479     
  volume:    676.761625723811     
  Acav:     8.038673488885162E-002
  Solving linear dielectric/ionic screening model
        iter                  A_solv                     rms
   LPB:       -0.882841700911803E+00   0.822107947042472E-03
   LPB:    0  -0.882841700910964E+00   0.822932316458000E-03   0.225565E-06   0.000000E+00   0.329667E+02   0.743614E-05
   LPB:    1  -0.882780839006675E+00   0.313500602796168E-03   0.155808E-01   0.000000E+00   0.732928E+06   0.505464E-22
   LPB:    2  -0.882774799975924E+00   0.179742303867174E-03   0.268402E-01   0.576003E-01   0.150843E+06  -0.166899E-19
   LPB:    3  -0.882772881363437E+00   0.247730524781355E-03   0.327954E-01   0.260012E+00   0.774998E+05  -0.784563E-18
   LPB:    4  -0.882772036095006E+00   0.497074298292438E-03   0.359827E-01   0.401538E+00   0.172210E+05  -0.207104E-17
   LPB:    5  -0.882771609384023E+00   0.111664371637170E-02   0.370179E-01   0.490706E+00   0.265965E+04  -0.938960E-18
   LPB:    6  -0.882771395995043E+00   0.204192410561431E-02   0.325361E-01   0.568964E+00   0.360489E+03  -0.510346E-17
   LPB:    7  -0.882771281784516E+00   0.154211594257992E-02   0.229110E-01   0.760073E+00   0.173428E+03  -0.207137E-16
   LPB:    8  -0.882771192794437E+00   0.112656877143713E-02   0.278015E-01   0.642113E+00   0.398080E+03  -0.346607E-16
   LPB:    9  -0.882771143637138E+00   0.139483610181151E-02   0.255856E-01   0.600231E+00   0.219565E+03  -0.462477E-16
   LPB:   10  -0.882771107378077E+00   0.542496142530201E-03   0.223985E-01   0.842569E+00   0.231915E+03  -0.531356E-16
   LPB:   11  -0.882771077493876E+00   0.154285221309191E-03   0.358730E-01   0.514608E+00   0.125500E+04  -0.578062E-16
   LPB:   12  -0.882771058241574E+00   0.124401545685589E-03   0.390948E-01   0.591138E+00   0.418733E+04  -0.611455E-16
   LPB:   13  -0.882771046290026E+00   0.149530294659957E-03   0.369129E-01   0.657480E+00   0.228893E+04  -0.648953E-16
   LPB:   14  -0.882771038735150E+00   0.128000347196756E-03   0.335925E-01   0.694607E+00   0.145578E+04  -0.671615E-16
   LPB:   15  -0.882771033477069E+00   0.761683256052773E-04   0.344697E-01   0.678274E+00   0.186515E+04  -0.684897E-16
   LPB:   16  -0.882771029755378E+00   0.483828682915917E-04   0.381630E-01   0.639304E+00   0.334873E+04  -0.693853E-16
  Finished solving LPB equations
  A_corr:   -0.802384294866526     
 End minimization
 Ecorr=   1371.83093329173     
 A_corr= -0.802384294866526     
 Ecorr_band=  -1372.63331758659     
 End Solvation calculations
DAV:   1    -0.132451432444E+03   -0.18392E-03   -0.37610E-03  4446   0.116E-01    0.171E-02
 Begin Solvation calculations
  rms_SCF =   6.926688700436342E-004 tol =   6.926688700436342E-005
 Begin minimization
 Creating dielectric and ionic cavities
  area:      153.115396608674     
  volume:    676.757651738376     
  Acav:     8.038558321955382E-002
  Solving linear dielectric/ionic screening model
        iter                  A_solv                     rms
   LPB:       -0.882808609357019E+00   0.997128076567976E-02
   LPB:    0  -0.882808586649020E+00   0.959022576822433E-02  -0.371164E-04   0.000000E+00   0.329669E+02  -0.122361E-02
   LPB:    1  -0.882807979993374E+00   0.287706835554565E-02   0.118826E-01   0.000000E+00   0.927729E+02  -0.107072E-18
   LPB:    2  -0.882807857678634E+00   0.475221948317292E-03   0.144003E-01   0.166371E+00   0.348200E+03   0.246420E-17
   LPB:    3  -0.882807824722956E+00   0.310760508438942E-03   0.251133E-01   0.154496E+00   0.733144E+03   0.255619E-17
   LPB:    4  -0.882807813097358E+00   0.341104631910509E-03   0.281215E-01   0.315029E+00   0.351283E+03   0.697082E-18
   LPB:    5  -0.882807807904809E+00   0.278323943077136E-03   0.238779E-01   0.526027E+00   0.222271E+03   0.972586E-18
   LPB:    6  -0.882807804377298E+00   0.148174638812481E-03   0.281154E-01   0.576952E+00   0.253127E+03   0.766320E-18
   LPB:    7  -0.882807802079885E+00   0.892064864885638E-04   0.334144E-01   0.548001E+00   0.473937E+03   0.943129E-18
   LPB:    8  -0.882807800517125E+00   0.528538506711038E-04   0.348774E-01   0.651694E+00   0.684488E+03   0.223247E-17
  Finished solving LPB equations
  A_corr:   -0.802422217297571     
 End minimization
 Ecorr=   1371.83384405148     
 A_corr= -0.802422217297571     
 Ecorr_band=  -1372.63626626878     
 End Solvation calculations
RMM:   2    -0.132451450617E+03   -0.18173E-04   -0.21357E-04  3490   0.272E-02    0.118E-02
 Begin Solvation calculations
  rms_SCF =   6.926688700436342E-004 tol =   6.926688700436342E-005
 Begin minimization
 Creating dielectric and ionic cavities
  area:      153.116213910717     
  volume:    676.757573241936     
  Acav:     8.038601230312628E-002
  Solving linear dielectric/ionic screening model
        iter                  A_solv                     rms
   LPB:       -0.882817174280168E+00   0.326450973263035E-02
   LPB:    0  -0.882817174024341E+00   0.326401060284411E-02  -0.393957E-05   0.000000E+00   0.329669E+02  -0.129876E-03
   LPB:    1  -0.882817075164366E+00   0.134562944065770E-02   0.125590E-01   0.000000E+00   0.117525E+03  -0.117225E-19
   LPB:    2  -0.882817052602025E+00   0.211752180702264E-03   0.142805E-01   0.200712E+00   0.285041E+03  -0.335176E-18
   LPB:    3  -0.882817047009454E+00   0.128265938769055E-03   0.262470E-01   0.134863E+00   0.638682E+03  -0.459665E-18
   LPB:    4  -0.882817044695075E+00   0.102658520803747E-03   0.287480E-01   0.377830E+00   0.354201E+03  -0.604097E-18
   LPB:    5  -0.882817043323491E+00   0.119927386664986E-03   0.335889E-01   0.507224E+00   0.425185E+03  -0.108533E-18
   LPB:    6  -0.882817042427401E+00   0.115481377433814E-03   0.293663E-01   0.747266E+00   0.211980E+03   0.186317E-17
   LPB:    7  -0.882817041731744E+00   0.714466163133047E-04   0.291207E-01   0.782872E+00   0.338826E+03   0.457760E-17
   LPB:    8  -0.882817041172158E+00   0.440512146943076E-04   0.344438E-01   0.680083E+00   0.453222E+03   0.699696E-17
  Finished solving LPB equations
  A_corr:   -0.802431028869032     
 End minimization
 Ecorr=   1371.83729613784     
 A_corr= -0.802431028869032     
 Ecorr_band=  -1372.63972716671     
 End Solvation calculations
RMM:   3    -0.132451446716E+03    0.39008E-05   -0.11736E-05  2312   0.125E-02
 Begin Solvation calculations
  rms_SCF =   6.926688700436342E-004 tol =   6.926688700436342E-005
 Begin minimization
 Creating dielectric and ionic cavities
  area:      153.115503656059     
  volume:    676.755911863835     
  Acav:     8.038563941943108E-002
  Solving linear dielectric/ionic screening model
        iter                  A_solv                     rms
   LPB:       -0.882876866240780E+00   0.733869765336644E-02
   LPB:    0  -0.882876845370316E+00   0.673804041260657E-02  -0.355829E-04   0.000000E+00   0.329670E+02  -0.117306E-02
   LPB:    1  -0.882876521742573E+00   0.213009432985876E-02   0.119026E-01   0.000000E+00   0.973126E+02   0.513035E-19
   LPB:    2  -0.882876464122133E+00   0.372887570460046E-03   0.138625E-01   0.152873E+00   0.272243E+03   0.268282E-17
   LPB:    3  -0.882876449783568E+00   0.260532570993920E-03   0.236635E-01   0.145778E+00   0.548982E+03   0.327138E-17
   LPB:    4  -0.882876445210422E+00   0.245796289764124E-03   0.247592E-01   0.304825E+00   0.223096E+03   0.489946E-17
   LPB:    5  -0.882876443078693E+00   0.152949978539490E-03   0.230973E-01   0.499680E+00   0.215516E+03   0.619585E-17
   LPB:    6  -0.882876441698115E+00   0.756774281774263E-04   0.298427E-01   0.501247E+00   0.283023E+03   0.582831E-17
   LPB:    7  -0.882876440856406E+00   0.460397687340787E-04   0.331228E-01   0.549305E+00   0.611008E+03   0.510660E-17
  Finished solving LPB equations
  A_corr:   -0.802490801436974     
 End minimization
 Ecorr=   1371.83365041229     
 A_corr= -0.802490801436974     
 Ecorr_band=  -1372.63614121372     
 End Solvation calculations
 177 F= -.13245145E+03 E0= -.13244740E+03  d E =-.202123E-03
quench:  g(F)=  0.000E+00 g(S)=  0.000E+00 dE (1.order)= 0.000E+00
 bond charge predicted
       N       E                     dE             d eps       ncg     rms          rms(c)
 Begin Solvation calculations
  rms_SCF =   6.926688700436342E-004 tol =   6.926688700436342E-005
 Begin minimization
 Creating dielectric and ionic cavities
  area:      153.112997244074     
  volume:    676.753216802355     
  Acav:     8.038432355313903E-002
  Solving linear dielectric/ionic screening model
        iter                  A_solv                     rms
   LPB:       -0.882983044349076E+00   0.896458068292729E-03
   LPB:    0  -0.882983044347626E+00   0.897355747078030E-03  -0.296562E-06   0.000000E+00   0.329671E+02  -0.977680E-05
   LPB:    1  -0.882913809367642E+00   0.375126201335616E-03   0.160204E-01   0.000000E+00   0.663911E+06   0.826488E-22
   LPB:    2  -0.882905558035129E+00   0.243149101619073E-03   0.276922E-01   0.689471E-01   0.136065E+06  -0.273989E-18
   LPB:    3  -0.882902796128796E+00   0.350777773975868E-03   0.332440E-01   0.278823E+00   0.603099E+05   0.834092E-18
   LPB:    4  -0.882901566045020E+00   0.824169590019524E-03   0.358986E-01   0.412441E+00   0.154409E+05   0.191304E-17
   LPB:    5  -0.882900959169782E+00   0.200228601391775E-02   0.360377E-01   0.491457E+00   0.151238E+04   0.232724E-17
   LPB:    6  -0.882900681861750E+00   0.322881141043043E-02   0.275005E-01   0.598798E+00   0.243393E+03   0.341220E-17
   LPB:    7  -0.882900507132204E+00   0.162353274325253E-02   0.205253E-01   0.844217E+00   0.208041E+03   0.321344E-17
   LPB:    8  -0.882900375500945E+00   0.148466433723623E-02   0.297463E-01   0.519817E+00   0.455718E+03   0.392798E-17
   LPB:    9  -0.882900302570822E+00   0.132459075097019E-02   0.245741E-01   0.670660E+00   0.179990E+03   0.353709E-17
   LPB:   10  -0.882900244749014E+00   0.460900255962932E-03   0.271611E-01   0.717324E+00   0.313092E+03  -0.120370E-17
   LPB:   11  -0.882900203154306E+00   0.173981373806793E-03   0.375671E-01   0.520099E+00   0.174931E+04   0.459349E-17
   LPB:   12  -0.882900176327773E+00   0.173619650815293E-03   0.390870E-01   0.619872E+00   0.313691E+04   0.629720E-17
   LPB:   13  -0.882900159695377E+00   0.189210544552162E-03   0.356026E-01   0.680677E+00   0.186564E+04   0.901843E-17
   LPB:   14  -0.882900148847198E+00   0.141180556768025E-03   0.334258E-01   0.694706E+00   0.144021E+04   0.105536E-16
   LPB:   15  -0.882900141162192E+00   0.812345042141454E-04   0.356937E-01   0.663403E+00   0.226437E+04   0.116889E-16
   LPB:   16  -0.882900135814078E+00   0.599126155119192E-04   0.388408E-01   0.639528E+00   0.351269E+04   0.124264E-16
  Finished solving LPB equations
  A_corr:   -0.802515812260938     
 End minimization
 Ecorr=   1371.83492012667     
 A_corr= -0.802515812260938     
 Ecorr_band=  -1372.63743593893     
 End Solvation calculations
DAV:   1    -0.132451646434E+03   -0.19582E-03   -0.42320E-03  4167   0.118E-01    0.166E-02
 Begin Solvation calculations
  rms_SCF =   6.926688700436342E-004 tol =   6.926688700436342E-005
 Begin minimization
 Creating dielectric and ionic cavities
  area:      153.112505467568     
  volume:    676.756421242064     
  Acav:     8.038406537047331E-002
  Solving linear dielectric/ionic screening model
        iter                  A_solv                     rms
   LPB:       -0.882813166474207E+00   0.164312018997354E-01
   LPB:    0  -0.882813118797617E+00   0.159327495792597E-01   0.537809E-04   0.000000E+00   0.329670E+02   0.177299E-02
   LPB:    1  -0.882812067890150E+00   0.249347582537322E-02   0.101258E-01   0.000000E+00   0.801610E+02   0.695174E-19
   LPB:    2  -0.882811876037684E+00   0.601879113899204E-03   0.163993E-01   0.112721E+00   0.358272E+03   0.594445E-17
   LPB:    3  -0.882811829165957E+00   0.493862556641927E-03   0.253389E-01   0.158118E+00   0.468667E+03   0.521799E-17
   LPB:    4  -0.882811812763072E+00   0.476944128897570E-03   0.265670E-01   0.333776E+00   0.202238E+03   0.107050E-16
   LPB:    5  -0.882811804604697E+00   0.289110788965152E-03   0.235079E-01   0.562097E+00   0.244853E+03   0.228351E-16
   LPB:    6  -0.882811798954157E+00   0.148951055699777E-03   0.306709E-01   0.530852E+00   0.312829E+03   0.258092E-16
   LPB:    7  -0.882811795340694E+00   0.998631650385128E-04   0.338378E-01   0.579639E+00   0.648492E+03   0.284394E-16
   LPB:    8  -0.882811792802176E+00   0.576825930798832E-04   0.357228E-01   0.665447E+00   0.653755E+03   0.303988E-16
  Finished solving LPB equations
  A_corr:   -0.802427727431702     
 End minimization
 Ecorr=   1371.83399048929     
 A_corr= -0.802427727431702     
 Ecorr_band=  -1372.63641821672     
 End Solvation calculations
RMM:   2    -0.132451665499E+03   -0.19065E-04   -0.18082E-04  3409   0.311E-02    0.160E-02
 Begin Solvation calculations
  rms_SCF =   6.926688700436342E-004 tol =   6.926688700436342E-005
 Begin minimization
 Creating dielectric and ionic cavities
  area:      153.112776732897     
  volume:    676.755866979443     
  Acav:     8.038420778477105E-002
  Solving linear dielectric/ionic screening model
        iter                  A_solv                     rms
   LPB:       -0.882797023206373E+00   0.151174048632967E-01
   LPB:    0  -0.882797022501952E+00   0.151090212945003E-01   0.653719E-05   0.000000E+00   0.329670E+02   0.215512E-03
   LPB:    1  -0.882796327954800E+00   0.160959061992293E-02   0.905054E-02   0.000000E+00   0.742692E+02   0.824868E-20
   LPB:    2  -0.882796240157787E+00   0.344118657901121E-03   0.179722E-01   0.636578E-01   0.141280E+03   0.866989E-18
   LPB:    3  -0.882796227233707E+00   0.262309355594730E-03   0.243133E-01   0.108812E+00   0.232194E+03  -0.426267E-18
   LPB:    4  -0.882796222234818E+00   0.202962859048229E-03   0.280091E-01   0.335753E+00   0.230954E+03  -0.129159E-17
   LPB:    5  -0.882796219981253E+00   0.171232242400243E-03   0.262120E-01   0.481720E+00   0.218205E+03  -0.241871E-17
   LPB:    6  -0.882796218600527E+00   0.975420713076184E-04   0.261729E-01   0.613601E+00   0.282148E+03  -0.472318E-17
   LPB:    7  -0.882796217631495E+00   0.571986053128078E-04   0.320758E-01   0.572670E+00   0.483355E+03  -0.568051E-17
  Finished solving LPB equations
  A_corr:   -0.802412009846724     
 End minimization
 Ecorr=   1371.83964119543     
 A_corr= -0.802412009846724     
 Ecorr_band=  -1372.64205320528     
 End Solvation calculations
RMM:   3    -0.132451662558E+03    0.29409E-05   -0.19219E-05  2298   0.191E-02
 Begin Solvation calculations
  rms_SCF =   6.926688700436342E-004 tol =   6.926688700436342E-005
 Begin minimization
 Creating dielectric and ionic cavities
  area:      153.112534444393     
  volume:    676.757137366939     
  Acav:     8.038408058330651E-002
  Solving linear dielectric/ionic screening model
        iter                  A_solv                     rms
   LPB:       -0.882719121405452E+00   0.136281220971800E-01
   LPB:    0  -0.882719095381361E+00   0.132865604992540E-01   0.397341E-04   0.000000E+00   0.329669E+02   0.130991E-02
   LPB:    1  -0.882718474879743E+00   0.145598406870949E-02   0.946241E-02   0.000000E+00   0.779824E+02  -0.343653E-19
   LPB:    2  -0.882718406112345E+00   0.271915383003508E-03   0.148539E-01   0.705993E-01   0.274240E+03  -0.185760E-17
   LPB:    3  -0.882718394204926E+00   0.228796029978793E-03   0.247616E-01   0.103872E+00   0.548335E+03  -0.208084E-17
   LPB:    4  -0.882718390441758E+00   0.206811670292049E-03   0.258916E-01   0.302242E+00   0.182398E+03  -0.212158E-17
   LPB:    5  -0.882718388635562E+00   0.142996180721125E-03   0.237040E-01   0.524263E+00   0.309591E+03  -0.395764E-17
   LPB:    6  -0.882718387493140E+00   0.784098788144522E-04   0.289978E-01   0.517033E+00   0.190067E+03  -0.701693E-17
   LPB:    7  -0.882718386727780E+00   0.490546426239287E-04   0.330485E-01   0.587832E+00   0.666451E+03  -0.852594E-17
  Finished solving LPB equations
  A_corr:   -0.802334306144474     
 End minimization
 Ecorr=   1371.84253981578     
 A_corr= -0.802334306144474     
 Ecorr_band=  -1372.64487412192     
 End Solvation calculations
 178 F= -.13245166E+03 E0= -.13244761E+03  d E =-.215843E-03
quench:  g(F)=  0.000E+00 g(S)=  0.000E+00 dE (1.order)= 0.000E+00
 reached required accuracy - stopping structural energy minimisation
