 vasp.5.4.4.18Apr17-6-g9f103f2a35 (build Feb 06 2024 13:54:16) complex          
  
 POSCAR found type information on POSCAR  Pd N  O 
 05/POSCAR found :  3 types and      40 ions
 scaLAPACK will be used

 ----------------------------------------------------------------------------- 
|                                                                             |
|  ADVICE TO THIS USER RUNNING 'VASP/VAMP'   (HEAR YOUR MASTER'S VOICE ...):  |
|                                                                             |
|      You enforced a specific xc-type in the INCAR file,                     |
|      a different type was found on the POTCAR file                          |
|          I HOPE YOU KNOW, WHAT YOU ARE  DOING                               |
|                                                                             |
 ----------------------------------------------------------------------------- 

 LDA part: xc-table for Pade appr. of Perdew
 POSCAR found type information on POSCAR  Pd N  O 
 00/POSCAR found :  3 types and      40 ions
 POSCAR found type information on POSCAR  Pd N  O 
 06/POSCAR found :  3 types and      40 ions
 Jacobian:    21.0960049830057     
 POSCAR, INCAR and KPOINTS ok, starting setup
 FFT: planning ...
 WAVECAR not read
 entering main loop
       N       E                     dE             d eps       ncg     rms          rms(c)
  Solvation turned off during non-self-consistent phase (first NELMDL steps)
DAV:   1     0.267312543256E+04    0.26731E+04   -0.17934E+05 11097   0.149E+03
DAV:   2    -0.896582852014E+01   -0.26821E+04   -0.25139E+04 12291   0.322E+02
DAV:   3    -0.184354782132E+03   -0.17539E+03   -0.15804E+03 13023   0.730E+01
DAV:   4    -0.191570590769E+03   -0.72158E+01   -0.69063E+01 12834   0.146E+01
DAV:   5    -0.191793566827E+03   -0.22298E+00   -0.22039E+00 13050   0.274E+00    0.379E+01
 Begin Solvation calculations
  rms_SCF =    4.79716690128473      tol =   0.479716690128473     
 Begin minimization
 Creating dielectric and ionic cavities
  area:      158.877609558266     
  volume:    795.217325460520     
  Acav:     8.341074501808961E-002
  Solving linear dielectric/ionic screening model
        iter                  A_solv                     rms
   LPB:       -0.601038892446782E+03   0.341137667385394E+03
   LPB:    0  -0.259368809229466E+01   0.199261483627198E+02  -0.608608E+01   0.000000E+00   0.323132E+02  -0.196660E+03
   LPB:    1  -0.725958613147100E+00   0.448494343760534E+01   0.101634E-01   0.000000E+00   0.879704E+02   0.952542E-14
   LPB:    2  -0.335145308256642E+00   0.950685587285019E+00   0.166267E-01   0.127906E+00   0.134281E+03   0.154191E-13
   LPB:    3  -0.216996182428716E+00   0.402417710250718E+00   0.276566E-01   0.181748E+00   0.934314E+02   0.511018E-14
   LPB:    4  -0.169905858170750E+00   0.675774693261184E+00   0.302721E-01   0.364131E+00   0.254275E+03  -0.235650E-14
   LPB:    5  -0.148649763789876E+00   0.505051422350511E+00   0.262937E-01   0.519686E+00   0.524676E+02  -0.380947E-14
   LPB:    6  -0.135491956079591E+00   0.366172752366723E+00   0.261341E-01   0.622795E+00   0.329772E+03  -0.850470E-14
  Finished solving LPB equations
  A_corr:   -5.208121106150103E-002
 End minimization
 Ecorr=   2212.59232561820     
 A_corr= -5.208121106150103E-002
 Ecorr_band=  -2212.64440682926     
 End Solvation calculations
RMM:   6    -0.194635521822E+03   -0.28420E+01   -0.50812E+01 11088   0.144E+01    0.379E+01
 Begin Solvation calculations
  rms_SCF =    4.79716690128473      tol =   0.479716690128473     
 Begin minimization
 Creating dielectric and ionic cavities
  area:      162.039537113716     
  volume:    795.578714260054     
  Acav:     8.507075698470089E-002
  Solving linear dielectric/ionic screening model
        iter                  A_solv                     rms
   LPB:       -0.249531885947900E+02   0.916214304997850E+02
   LPB:    0  -0.249246926295053E+02   0.915843782059698E+02   0.420079E-01   0.000000E+00   0.322962E+02   0.135670E+01
   LPB:    1  -0.237095215394545E+01   0.842366197338612E+01   0.870451E-02   0.000000E+00   0.709753E+02  -0.782187E-17
   LPB:    2  -0.633030514814784E+00   0.133150008385701E+01   0.153685E-01   0.436439E-01   0.137494E+03  -0.125313E-14
   LPB:    3  -0.412863079429268E+00   0.551143095076705E+00   0.226958E-01   0.857847E-01   0.252675E+03  -0.904044E-15
   LPB:    4  -0.354608378606699E+00   0.260880694240770E+00   0.268658E-01   0.223524E+00   0.285303E+03   0.599139E-14
  Finished solving LPB equations
  A_corr:   -0.269537621621998     
 End minimization
 Ecorr=   2210.68806499951     
 A_corr= -0.269537621621998     
 Ecorr_band=  -2210.95760262113     
 End Solvation calculations
RMM:   7    -0.222266273264E+03   -0.27631E+02   -0.20400E+01 11103   0.785E+00    0.463E+01
 Begin Solvation calculations
  rms_SCF =    4.79716690128473      tol =   0.479716690128473     
 Begin minimization
 Creating dielectric and ionic cavities
  area:      157.446335519479     
  volume:    799.759789020687     
  Acav:     8.265932614772628E-002
  Solving linear dielectric/ionic screening model
        iter                  A_solv                     rms
   LPB:       -0.160928779695314E+02   0.729644273455959E+02
   LPB:    0  -0.158832465704537E+02   0.726679873793137E+02   0.114285E+00   0.000000E+00   0.321002E+02   0.366857E+01
   LPB:    1  -0.155060710827689E+01   0.683691426481920E+01   0.878143E-02   0.000000E+00   0.703946E+02  -0.158957E-15
   LPB:    2  -0.351898967920677E+00   0.130669001755350E+01   0.157985E-01   0.464876E-01   0.134570E+03   0.142144E-14
   LPB:    3  -0.190273144906017E+00   0.419348474859438E+00   0.218642E-01   0.974271E-01   0.201417E+03   0.262108E-14
   LPB:    4  -0.153848188635424E+00   0.447232072782427E+00   0.249252E-01   0.197689E+00   0.424322E+03   0.782065E-14
  Finished solving LPB equations
  A_corr:   -7.118886248769743E-002
 End minimization
 Ecorr=   2142.39498623126     
 A_corr= -7.118886248769743E-002
 Ecorr_band=  -2142.46617509375     
 End Solvation calculations
RMM:   8    -0.193298777051E+03    0.28967E+02   -0.25372E+01 11088   0.890E+00    0.286E+01
 Begin Solvation calculations
  rms_SCF =    4.79716690128473      tol =   0.479716690128473     
 Begin minimization
 Creating dielectric and ionic cavities
  area:      147.799467164454     
  volume:    792.091505664775     
  Acav:     7.759472026133848E-002
  Solving linear dielectric/ionic screening model
        iter                  A_solv                     rms
   LPB:       -0.961916443049584E+00   0.161442685192444E+02
   LPB:    0  -0.434432055671463E+00   0.672022421533790E+01  -0.180280E+00   0.000000E+00   0.324597E+02  -0.585184E+01
   LPB:    1  -0.214921838235336E+00   0.810108390433948E+00   0.105251E-01   0.000000E+00   0.519983E+02  -0.408516E-15
   LPB:    2  -0.190920124279890E+00   0.752893383034840E+00   0.190573E-01   0.603879E-01   0.971427E+02   0.233516E-14
   LPB:    3  -0.178669989390055E+00   0.681343561894159E+00   0.234632E-01   0.414547E+00   0.713226E+02   0.149126E-14
   LPB:    4  -0.169287673026326E+00   0.235331923363552E+00   0.231171E-01   0.777360E+00   0.800064E+02   0.118189E-14
  Finished solving LPB equations
  A_corr:   -9.169295276498715E-002
 End minimization
 Ecorr=   2145.89963847509     
 A_corr= -9.169295276498715E-002
 Ecorr_band=  -2145.99133142785     
 End Solvation calculations
RMM:   9    -0.189555357383E+03    0.37434E+01   -0.19797E+01 11095   0.839E+00    0.248E+01
 Begin Solvation calculations
  rms_SCF =    4.79716690128473      tol =   0.479716690128473     
 Begin minimization
 Creating dielectric and ionic cavities
  area:      144.532079409582     
  volume:    797.027578355737     
  Acav:     7.587934169003072E-002
  Solving linear dielectric/ionic screening model
        iter                  A_solv                     rms
   LPB:       -0.190913971386062E+01   0.229060980403891E+02
   LPB:    0  -0.956770267329413E+00   0.156343310713749E+02   0.243108E+00   0.000000E+00   0.322283E+02   0.783496E+01
   LPB:    1  -0.244666223112304E+00   0.150265529343316E+01   0.893510E-02   0.000000E+00   0.694686E+02  -0.324018E-15
   LPB:    2  -0.185332551352892E+00   0.591652379518495E+00   0.154873E-01   0.480708E-01   0.141468E+03   0.978650E-14
   LPB:    3  -0.173881598254205E+00   0.361799757893701E+00   0.199881E-01   0.149536E+00   0.110948E+03   0.103929E-13
   LPB:    4  -0.169217814040495E+00   0.267283439367287E+00   0.229424E-01   0.354838E+00   0.306509E+03   0.782029E-14
  Finished solving LPB equations
  A_corr:   -9.333847235046402E-002
 End minimization
 Ecorr=   2078.73052753719     
 A_corr= -9.333847235046402E-002
 Ecorr_band=  -2078.82386600954     
 End Solvation calculations
RMM:  10    -0.186689580598E+03    0.28658E+01   -0.87873E+00 11088   0.559E+00    0.189E+01
 Begin Solvation calculations
  rms_SCF =    4.79716690128473      tol =   0.479716690128473     
 Begin minimization
 Creating dielectric and ionic cavities
  area:      145.864917623917     
  volume:    790.874206603995     
  Acav:     7.657908175255662E-002
  Solving linear dielectric/ionic screening model
        iter                  A_solv                     rms
   LPB:       -0.393970640673153E+00   0.794982137969759E+01
   LPB:    0  -0.279081308228841E+00   0.351832334098595E+01  -0.840622E-01   0.000000E+00   0.325168E+02  -0.273343E+01
   LPB:    1  -0.206786351923864E+00   0.452350420929930E+00   0.112185E-01   0.000000E+00   0.542955E+02  -0.706123E-16
   LPB:    2  -0.195502348182664E+00   0.349699764304093E+00   0.202640E-01   0.864101E-01   0.181437E+03   0.693860E-15
   LPB:    3  -0.191443117831700E+00   0.482910208093763E+00   0.247594E-01   0.294419E+00   0.884349E+02   0.853308E-15
   LPB:    4  -0.187774566711414E+00   0.259275460948460E+00   0.258712E-01   0.864915E+00   0.668722E+02   0.131523E-14
  Finished solving LPB equations
  A_corr:   -0.111195484958858     
 End minimization
 Ecorr=   2075.15373929779     
 A_corr= -0.111195484958858     
 Ecorr_band=  -2075.26493478275     
 End Solvation calculations
RMM:  11    -0.183403702745E+03    0.32859E+01   -0.58756E+00 11094   0.458E+00    0.122E+01
 Begin Solvation calculations
  rms_SCF =    4.79716690128473      tol =   0.479716690128473     
 Begin minimization
 Creating dielectric and ionic cavities
  area:      141.749523131310     
  volume:    788.243197320471     
  Acav:     7.441849964393792E-002
  Solving linear dielectric/ionic screening model
        iter                  A_solv                     rms
   LPB:       -0.249800578225130E+00   0.253111456562547E+01
   LPB:    0  -0.237103285724176E+00   0.237696348032635E+01   0.278930E-01   0.000000E+00   0.326401E+02   0.910430E+00
   LPB:    1  -0.210341719505809E+00   0.532089510962924E+00   0.110663E-01   0.000000E+00   0.740760E+02  -0.525150E-16
   LPB:    2  -0.205563812852354E+00   0.130787077910659E+00   0.145616E-01   0.135682E+00   0.209539E+03   0.359941E-14
   LPB:    3  -0.201719682472639E+00   0.148499217254877E+00   0.445389E-01   0.263045E+00   0.172147E+03   0.437476E-14
   LPB:    4  -0.197943466488492E+00   0.133712253100194E+00   0.420471E-01   0.104055E+01   0.508355E+02   0.537758E-14
  Finished solving LPB equations
  A_corr:   -0.123524966844554     
 End minimization
 Ecorr=   2048.66764382531     
 A_corr= -0.123524966844554     
 Ecorr_band=  -2048.79116879215     
 End Solvation calculations
RMM:  12    -0.182705290755E+03    0.69841E+00   -0.19371E+00 11096   0.268E+00    0.842E+00
 Begin Solvation calculations
  rms_SCF =    4.79716690128473      tol =   0.479716690128473     
 Begin minimization
 Creating dielectric and ionic cavities
  area:      141.827969090391     
  volume:    785.956969257244     
  Acav:     7.445968377245517E-002
  Solving linear dielectric/ionic screening model
        iter                  A_solv                     rms
   LPB:       -0.212613700525181E+00   0.563456070233041E+00
   LPB:    0  -0.209891089525951E+00   0.495662349902744E+00   0.128950E-01   0.000000E+00   0.327473E+02   0.422275E+00
   LPB:    1  -0.203315151957817E+00   0.270256602011719E+00   0.172562E-01   0.000000E+00   0.138017E+03  -0.110026E-16
   LPB:    2  -0.201668286849715E+00   0.250291225220379E+00   0.178924E-01   0.241533E+00   0.227975E+03   0.265683E-14
   LPB:    3  -0.200360025313808E+00   0.158727695156461E+00   0.250685E-01   0.566991E+00   0.118319E+03   0.363499E-14
   LPB:    4  -0.199216162415694E+00   0.148581327643501E+00   0.372764E-01   0.587995E+00   0.631798E+02   0.441853E-14
  Finished solving LPB equations
  A_corr:   -0.124756478643239     
 End minimization
 Ecorr=   2035.79182686770     
 A_corr= -0.124756478643239     
 Ecorr_band=  -2035.91658334634     
 End Solvation calculations
RMM:  13    -0.182274709206E+03    0.43058E+00   -0.72703E-01 11099   0.164E+00    0.603E+00
 Begin Solvation calculations
  rms_SCF =    2.16453458386075      tol =   0.216453458386075     
 Begin minimization
 Creating dielectric and ionic cavities
  area:      142.071305720585     
  volume:    783.796209781716     
  Acav:     7.458743550330720E-002
  Solving linear dielectric/ionic screening model
        iter                  A_solv                     rms
   LPB:       -0.210823665416435E+00   0.152648786036802E+01
   LPB:    0  -0.207102393647425E+00   0.133361460550241E+01   0.150523E-01   0.000000E+00   0.328486E+02   0.494446E+00
   LPB:    1  -0.200226831212211E+00   0.244070931836797E+00   0.101549E-01   0.000000E+00   0.748031E+02   0.283043E-16
   LPB:    2  -0.198427747127767E+00   0.485471048143053E-01   0.178184E-01   0.149125E+00   0.224360E+03  -0.107391E-15
   LPB:    3  -0.197601495062570E+00   0.363382869430470E-01   0.432157E-01   0.189360E+00   0.210649E+03  -0.559352E-16
   LPB:    4  -0.196740937212084E+00   0.480948589474909E-01   0.478716E-01   0.940223E+00   0.128517E+03  -0.322389E-15
  Finished solving LPB equations
  A_corr:   -0.122153501708777     
 End minimization
 Ecorr=   2025.82285570530     
 A_corr= -0.122153501708777     
 Ecorr_band=  -2025.94500920700     
 End Solvation calculations
RMM:  14    -0.182092909230E+03    0.18180E+00   -0.29862E-01 11091   0.104E+00    0.386E+00
 Begin Solvation calculations
  rms_SCF =    1.98216005071096      tol =   0.198216005071096     
 Begin minimization
 Creating dielectric and ionic cavities
  area:      142.445700067988     
  volume:    780.855044489225     
  Acav:     7.478399253569394E-002
  Solving linear dielectric/ionic screening model
        iter                  A_solv                     rms
   LPB:       -0.218650025473305E+00   0.186615662141579E+01
   LPB:    0  -0.214230964887091E+00   0.178448368245907E+01   0.163686E-01   0.000000E+00   0.329865E+02   0.539943E+00
   LPB:    1  -0.201998850236932E+00   0.215702272793319E+00   0.906582E-02   0.000000E+00   0.920692E+02  -0.224400E-16
   LPB:    2  -0.200726820408200E+00   0.581489046837164E-01   0.150047E-01   0.628314E-01   0.441263E+03   0.381288E-15
   LPB:    3  -0.200279518892867E+00   0.894898691510083E-01   0.314883E-01   0.167564E+00   0.320520E+03   0.239872E-15
   LPB:    4  -0.199880921272644E+00   0.895040352259746E-01   0.336769E-01   0.833205E+00   0.738716E+02   0.178182E-15
  Finished solving LPB equations
  A_corr:   -0.125096928736950     
 End minimization
 Ecorr=   2016.25227017218     
 A_corr= -0.125096928736950     
 Ecorr_band=  -2016.37736710091     
 End Solvation calculations
RMM:  15    -0.182062354293E+03    0.30555E-01   -0.16665E-01 11094   0.796E-01    0.345E+00
 Begin Solvation calculations
  rms_SCF =    1.98216005071096      tol =   0.198216005071096     
 Begin minimization
 Creating dielectric and ionic cavities
  area:      142.943654347306     
  volume:    778.152666070420     
  Acav:     7.504541853233540E-002
  Solving linear dielectric/ionic screening model
        iter                  A_solv                     rms
   LPB:       -0.212065081304061E+00   0.983604823771627E+00
   LPB:    0  -0.208100230668161E+00   0.698665890956579E+00   0.154749E-01   0.000000E+00   0.331132E+02   0.512423E+00
   LPB:    1  -0.203480453967005E+00   0.299118325422688E+00   0.110310E-01   0.000000E+00   0.152844E+03  -0.209689E-16
   LPB:    2  -0.202713580049586E+00   0.582839756525482E-01   0.141874E-01   0.129067E+00   0.146346E+03  -0.513526E-15
   LPB:    3  -0.202297185184618E+00   0.734652394131348E-01   0.322843E-01   0.238612E+00   0.196377E+03  -0.491139E-15
   LPB:    4  -0.201935218295427E+00   0.924830431099324E-01   0.349146E-01   0.803801E+00   0.805390E+02  -0.486695E-15
  Finished solving LPB equations
  A_corr:   -0.126889799763092     
 End minimization
 Ecorr=   2008.23816053242     
 A_corr= -0.126889799763092     
 Ecorr_band=  -2008.36505033219     
 End Solvation calculations
RMM:  16    -0.182030700178E+03    0.31654E-01   -0.99860E-02 11098   0.607E-01    0.280E+00
 Begin Solvation calculations
  rms_SCF =    1.98216005071096      tol =   0.198216005071096     
 Begin minimization
 Creating dielectric and ionic cavities
  area:      143.413136993822     
  volume:    775.447183785354     
  Acav:     7.529189692175653E-002
  Solving linear dielectric/ionic screening model
        iter                  A_solv                     rms
   LPB:       -0.214517488282430E+00   0.691135751965293E+00
   LPB:    0  -0.211099416179281E+00   0.459408784233207E+00   0.143408E-01   0.000000E+00   0.332400E+02   0.476690E+00
   LPB:    1  -0.205404926653578E+00   0.170424305197838E+00   0.149224E-01   0.000000E+00   0.216696E+03   0.172507E-16
   LPB:    2  -0.204738902759467E+00   0.965136191598499E-01   0.168034E-01   0.103866E+00   0.137910E+03   0.471991E-15
   LPB:    3  -0.204385509435398E+00   0.747852178179109E-01   0.285411E-01   0.312390E+00   0.873699E+02   0.473599E-15
   LPB:    4  -0.204040161957478E+00   0.103564573584786E+00   0.379286E-01   0.735362E+00   0.271961E+03   0.824886E-15
  Finished solving LPB equations
  A_corr:   -0.128748265035722     
 End minimization
 Ecorr=   2000.54738455977     
 A_corr= -0.128748265035722     
 Ecorr_band=  -2000.67613282481     
 End Solvation calculations
RMM:  17    -0.181981789158E+03    0.48911E-01   -0.58055E-02 11099   0.454E-01    0.161E+00
 Begin Solvation calculations
  rms_SCF =    1.36240603868185      tol =   0.136240603868185     
 Begin minimization
 Creating dielectric and ionic cavities
  area:      143.800888951339     
  volume:    773.507904395763     
  Acav:     7.549546669945272E-002
  Solving linear dielectric/ionic screening model
        iter                  A_solv                     rms
   LPB:       -0.211440937446481E+00   0.363480646239846E+00
   LPB:    0  -0.210217426847747E+00   0.395859768823919E+00   0.856831E-02   0.000000E+00   0.333310E+02   0.285590E+00
   LPB:    1  -0.206674419912814E+00   0.193553038186396E+00   0.136126E-01   0.000000E+00   0.196189E+03  -0.192695E-16
   LPB:    2  -0.206236701126536E+00   0.604205855434489E-01   0.151345E-01   0.111121E+00   0.998254E+02   0.711157E-15
   LPB:    3  -0.206023886925644E+00   0.702668376765246E-01   0.312157E-01   0.235723E+00   0.187681E+03   0.152903E-14
   LPB:    4  -0.205795619295724E+00   0.115228294824951E+00   0.297996E-01   0.112358E+01   0.830580E+02   0.192205E-14
  Finished solving LPB equations
  A_corr:   -0.130300152596271     
 End minimization
 Ecorr=   1994.79220678977     
 A_corr= -0.130300152596271     
 Ecorr_band=  -1994.92250694237     
 End Solvation calculations
RMM:  18    -0.181964560932E+03    0.17228E-01   -0.26888E-02 11094   0.305E-01    0.902E-01
 Begin Solvation calculations
  rms_SCF =   0.547994690893785      tol =   5.479946908937848E-002
 Begin minimization
 Creating dielectric and ionic cavities
  area:      144.166305019162     
  volume:    771.814479887961     
  Acav:     7.568731013505980E-002
  Solving linear dielectric/ionic screening model
        iter                  A_solv                     rms
   LPB:       -0.212831118528766E+00   0.454052680429689E+00
   LPB:    0  -0.211762894186173E+00   0.384821917864375E+00   0.799661E-02   0.000000E+00   0.334103E+02   0.267169E+00
   LPB:    1  -0.207993285099336E+00   0.285950335223544E+00   0.126013E-01   0.000000E+00   0.304098E+03   0.962658E-18
   LPB:    2  -0.207496904370645E+00   0.649608156941369E-01   0.131882E-01   0.125820E+00   0.763768E+02  -0.750184E-15
   LPB:    3  -0.207301691308389E+00   0.578735485100650E-01   0.241584E-01   0.214690E+00   0.263160E+03  -0.762686E-15
   LPB:    4  -0.207118258849424E+00   0.714787742185103E-01   0.314286E-01   0.722286E+00   0.880921E+02  -0.912356E-15
   LPB:    5  -0.206913424918801E+00   0.543671008522207E-01   0.327285E-01   0.107232E+01   0.238167E+03  -0.102781E-14
  Finished solving LPB equations
  A_corr:   -0.131226114783741     
 End minimization
 Ecorr=   1990.72401650168     
 A_corr= -0.131226114783741     
 Ecorr_band=  -1990.85524261646     
 End Solvation calculations
RMM:  19    -0.181958063554E+03    0.64974E-02   -0.10740E-02 11098   0.191E-01    0.681E-01
 Begin Solvation calculations
  rms_SCF =   0.364953030267356      tol =   3.649530302673565E-002
 Begin minimization
 Creating dielectric and ionic cavities
  area:      144.374250079075     
  volume:    770.932372472408     
  Acav:     7.579648129151412E-002
  Solving linear dielectric/ionic screening model
        iter                  A_solv                     rms
   LPB:       -0.209691387072389E+00   0.307818406317465E+00
   LPB:    0  -0.209293182112276E+00   0.296703844442886E+00   0.487932E-02   0.000000E+00   0.334517E+02   0.163222E+00
   LPB:    1  -0.207464220264964E+00   0.126431733701278E+00   0.140975E-01   0.000000E+00   0.195710E+03  -0.920008E-17
   LPB:    2  -0.207267152642472E+00   0.393978333562078E-01   0.143657E-01   0.105737E+00   0.957178E+02  -0.637697E-15
   LPB:    3  -0.207201272023776E+00   0.356877510576469E-01   0.283971E-01   0.169120E+00   0.136419E+03  -0.117475E-14
   LPB:    4  -0.207116814438465E+00   0.751562521722308E-01   0.397566E-01   0.915682E+00   0.860583E+02  -0.126132E-14
   LPB:    5  -0.207004267436954E+00   0.524413571383338E-01   0.269494E-01   0.196588E+01   0.172928E+03  -0.140365E-14
   LPB:    6  -0.206903130296086E+00   0.167433861780657E-01   0.294292E-01   0.822900E+00   0.591027E+02  -0.163164E-14
  Finished solving LPB equations
  A_corr:   -0.131106649004572     
 End minimization
 Ecorr=   1986.90533569847     
 A_corr= -0.131106649004572     
 Ecorr_band=  -1987.03644234748     
 End Solvation calculations
RMM:  20    -0.181953682684E+03    0.43809E-02   -0.49599E-03 11044   0.130E-01    0.403E-01
 Begin Solvation calculations
  rms_SCF =   0.364953030267356      tol =   3.649530302673565E-002
 Begin minimization
 Creating dielectric and ionic cavities
  area:      144.555755287662     
  volume:    770.206440224330     
  Acav:     7.589177152602278E-002
  Solving linear dielectric/ionic screening model
        iter                  A_solv                     rms
   LPB:       -0.209654401072540E+00   0.395253666457480E+00
   LPB:    0  -0.209405250773346E+00   0.357002666442882E+00   0.385759E-02   0.000000E+00   0.334857E+02   0.129174E+00
   LPB:    1  -0.207058740498775E+00   0.959710395035544E-01   0.143809E-01   0.000000E+00   0.178017E+03   0.498405E-17
   LPB:    2  -0.206843121447017E+00   0.445272175129816E-01   0.154179E-01   0.857088E-01   0.133815E+03  -0.358897E-16
   LPB:    3  -0.206802104976981E+00   0.183008943800201E-01   0.179891E-01   0.163037E+00   0.112961E+03   0.160054E-15
   LPB:    4  -0.206784867634689E+00   0.200256255670587E-01   0.283565E-01   0.266605E+00   0.248764E+03   0.407018E-15
  Finished solving LPB equations
  A_corr:   -0.130893096108666     
 End minimization
 Ecorr=   1985.76388891772     
 A_corr= -0.130893096108666     
 Ecorr_band=  -1985.89478201383     
 End Solvation calculations
RMM:  21    -0.181952757950E+03    0.92473E-03   -0.23524E-03 11007   0.886E-02    0.379E-01
 Begin Solvation calculations
  rms_SCF =   0.205060733458963      tol =   2.050607334589629E-002
 Begin minimization
 Creating dielectric and ionic cavities
  area:      144.656508770512     
  volume:    769.824027627159     
  Acav:     7.594466710451857E-002
  Solving linear dielectric/ionic screening model
        iter                  A_solv                     rms
   LPB:       -0.207881591751668E+00   0.275471831326173E+00
   LPB:    0  -0.207796063942910E+00   0.252564229839521E+00   0.225955E-02   0.000000E+00   0.335037E+02   0.757033E-01
   LPB:    1  -0.206723606948267E+00   0.642547273689150E-01   0.145305E-01   0.000000E+00   0.158758E+03  -0.252856E-17
   LPB:    2  -0.206622161805370E+00   0.339143044494797E-01   0.164135E-01   0.837394E-01   0.117575E+03  -0.344218E-16
   LPB:    3  -0.206586595781403E+00   0.225139801099688E-01   0.228393E-01   0.251955E+00   0.114433E+03  -0.666229E-17
   LPB:    4  -0.206563635165140E+00   0.217112693841670E-01   0.307096E-01   0.480128E+00   0.152289E+03   0.197316E-15
   LPB:    5  -0.206549924798520E+00   0.281393951276162E-01   0.256465E-01   0.715010E+00   0.926111E+02   0.557135E-15
   LPB:    6  -0.206536376847060E+00   0.123002506633213E-01   0.242727E-01   0.104408E+01   0.173972E+03   0.765085E-15
  Finished solving LPB equations
  A_corr:   -0.130591709742541     
 End minimization
 Ecorr=   1985.29454154975     
 A_corr= -0.130591709742541     
 Ecorr_band=  -1985.42513325950     
 End Solvation calculations
RMM:  22    -0.181952012506E+03    0.74544E-03   -0.96078E-04 10882   0.593E-02    0.272E-01
 Begin Solvation calculations
  rms_SCF =   0.205060733458963      tol =   2.050607334589629E-002
 Begin minimization
 Creating dielectric and ionic cavities
  area:      144.848566438588     
  volume:    769.187853294101     
  Acav:     7.604549738025852E-002
  Solving linear dielectric/ionic screening model
        iter                  A_solv                     rms
   LPB:       -0.210710390184015E+00   0.492913672415063E+00
   LPB:    0  -0.210473398406295E+00   0.457831360599166E+00   0.375961E-02   0.000000E+00   0.335335E+02   0.126073E+00
   LPB:    1  -0.206856890115622E+00   0.116522061442845E+00   0.143955E-01   0.000000E+00   0.165883E+03   0.445899E-17
   LPB:    2  -0.206532062948763E+00   0.551028070166007E-01   0.160266E-01   0.806765E-01   0.121446E+03   0.795672E-16
   LPB:    3  -0.206458210650996E+00   0.281275211066030E-01   0.190710E-01   0.191065E+00   0.127413E+03   0.436924E-15
   LPB:    4  -0.206424334013402E+00   0.141120482169791E-01   0.289436E-01   0.302243E+00   0.124569E+03   0.452308E-15
  Finished solving LPB equations
  A_corr:   -0.130378836633143     
 End minimization
 Ecorr=   1984.68021511688     
 A_corr= -0.130378836633143     
 Ecorr_band=  -1984.81059395351     
 End Solvation calculations
RMM:  23    -0.181952000701E+03    0.11805E-04   -0.83476E-04 10524   0.538E-02
 Begin Solvation calculations
  rms_SCF =   0.205060733458963      tol =   2.050607334589629E-002
 Begin minimization
 Creating dielectric and ionic cavities
  area:      145.020309902275     
  volume:    768.698947063138     
  Acav:     7.613566269869418E-002
  Solving linear dielectric/ionic screening model
        iter                  A_solv                     rms
   LPB:       -0.210649623541295E+00   0.517644842101874E+00
   LPB:    0  -0.210455252811347E+00   0.490886145337006E+00   0.340363E-02   0.000000E+00   0.335564E+02   0.114214E+00
   LPB:    1  -0.206878904374837E+00   0.107965654977902E+00   0.144186E-01   0.000000E+00   0.142346E+03   0.420137E-17
   LPB:    2  -0.206569942519412E+00   0.585880268465139E-01   0.161128E-01   0.773069E-01   0.131738E+03  -0.916744E-16
   LPB:    3  -0.206475034005402E+00   0.404489121689594E-01   0.211931E-01   0.233548E+00   0.111961E+03   0.364078E-15
   LPB:    4  -0.206420580200942E+00   0.408776152667623E-01   0.272363E-01   0.446446E+00   0.141821E+03   0.104382E-14
   LPB:    5  -0.206391930147664E+00   0.336367937407663E-01   0.208601E-01   0.686957E+00   0.723831E+02   0.164083E-14
   LPB:    6  -0.206366662431011E+00   0.122137574941020E-01   0.253734E-01   0.725066E+00   0.258571E+03   0.193907E-14
  Finished solving LPB equations
  A_corr:   -0.130230999732317     
 End minimization
 Ecorr=   1984.35854443643     
 A_corr= -0.130230999732317     
 Ecorr_band=  -1984.48877543617     
 End Solvation calculations
   1 F= -.18195200E+03 E0= -.18194867E+03  d E =-.181952E+03
quench:  g(F)=  0.000E+00 g(S)=  0.000E+00 dE (1.order)= 0.000E+00
 bond charge predicted
       N       E                     dE             d eps       ncg     rms          rms(c)
 Begin Solvation calculations
  rms_SCF =   0.205060733458963      tol =   2.050607334589629E-002
 Begin minimization
 Creating dielectric and ionic cavities
  area:      145.063758078075     
  volume:    768.718107267434     
  Acav:     7.615847299098935E-002
  Solving linear dielectric/ionic screening model
        iter                  A_solv                     rms
   LPB:       -0.208165813733243E+00   0.127424310193371E-01
   LPB:    0  -0.208165813698304E+00   0.127090657362136E-01   0.144306E-05   0.000000E+00   0.335555E+02   0.484226E-04
   LPB:    1  -0.206683885298230E+00   0.113935440714819E-01   0.163419E-01   0.000000E+00   0.604475E+05   0.149011E-21
   LPB:    2  -0.206480041239400E+00   0.267744457882349E-01   0.281431E-01   0.798734E-01   0.407202E+04  -0.194942E-16
   LPB:    3  -0.206414337566092E+00   0.507173793502656E-01   0.269296E-01   0.336848E+00   0.319231E+03  -0.697119E-16
   LPB:    4  -0.206384501740297E+00   0.260369022116856E-01   0.168345E-01   0.726405E+00   0.180031E+03  -0.877861E-16
   LPB:    5  -0.206358716514262E+00   0.103494055157312E-01   0.297403E-01   0.489201E+00   0.455395E+03  -0.101406E-15
  Finished solving LPB equations
  A_corr:   -0.130200243523272     
 End minimization
 Ecorr=   1984.29649881826     
 A_corr= -0.130200243523272     
 Ecorr_band=  -1984.42669906179     
 End Solvation calculations
DAV:   1    -0.181953424260E+03   -0.14118E-02   -0.17441E-01 11592   0.715E-01    0.342E-01
 Begin Solvation calculations
  rms_SCF =   0.205060733458963      tol =   2.050607334589629E-002
 Begin minimization
 Creating dielectric and ionic cavities
  area:      145.047107057028     
  volume:    768.535122752866     
  Acav:     7.614973120493948E-002
  Solving linear dielectric/ionic screening model
        iter                  A_solv                     rms
   LPB:       -0.241363443400822E+00   0.322621297283674E+01
   LPB:    0  -0.241362234634408E+00   0.322644433408286E+01   0.268379E-03   0.000000E+00   0.335641E+02   0.900790E-02
   LPB:    1  -0.211926391036873E+00   0.398605113757291E+00   0.925841E-02   0.000000E+00   0.659725E+02   0.588477E-18
   LPB:    2  -0.207868464433977E+00   0.738093473621300E-01   0.147822E-01   0.863428E-01   0.166049E+03  -0.563236E-16
   LPB:    3  -0.207346853957354E+00   0.262550619836004E-01   0.216238E-01   0.878715E-01   0.242283E+03  -0.433678E-16
   LPB:    4  -0.207193062764663E+00   0.245254137549697E-01   0.272745E-01   0.233755E+00   0.347160E+03  -0.442473E-15
   LPB:    5  -0.207130650936074E+00   0.280107297174755E-01   0.278063E-01   0.398060E+00   0.158885E+03  -0.532725E-15
   LPB:    6  -0.207098110515306E+00   0.244731938434437E-01   0.264579E-01   0.547955E+00   0.132697E+03  -0.623665E-15
   LPB:    7  -0.207076470241486E+00   0.113648084797007E-01   0.266768E-01   0.659570E+00   0.137800E+03  -0.761090E-15
  Finished solving LPB equations
  A_corr:   -0.130926739036547     
 End minimization
 Ecorr=   1983.62679456687     
 A_corr= -0.130926739036547     
 Ecorr_band=  -1983.75772130590     
 End Solvation calculations
RMM:   2    -0.182065483586E+03   -0.11206E+00   -0.32427E-02 11091   0.327E-01    0.380E+00
 Begin Solvation calculations
  rms_SCF =   0.205060733458963      tol =   2.050607334589629E-002
 Begin minimization
 Creating dielectric and ionic cavities
  area:      145.192223638607     
  volume:    768.525249428632     
  Acav:     7.622591741026892E-002
  Solving linear dielectric/ionic screening model
        iter                  A_solv                     rms
   LPB:       -0.232844601170304E+00   0.301097122227599E+01
   LPB:    0  -0.232828796661780E+00   0.300962612967341E+01   0.970432E-03   0.000000E+00   0.335646E+02   0.325721E-01
   LPB:    1  -0.209472564687038E+00   0.279564155634184E+00   0.845119E-02   0.000000E+00   0.721821E+02  -0.176638E-17
   LPB:    2  -0.207589441513740E+00   0.452976150018827E-01   0.154781E-01   0.440227E-01   0.133764E+03  -0.151141E-15
   LPB:    3  -0.207378395003423E+00   0.162242614979988E-01   0.217965E-01   0.795847E-01   0.232653E+03  -0.114877E-15
   LPB:    4  -0.207318703150430E+00   0.953131692623424E-02   0.270146E-01   0.228205E+00   0.477085E+03  -0.187750E-15
  Finished solving LPB equations
  A_corr:   -0.131092785740161     
 End minimization
 Ecorr=   1984.27602237108     
 A_corr= -0.131092785740161     
 Ecorr_band=  -1984.40711515682     
 End Solvation calculations
RMM:   3    -0.181963185332E+03    0.10230E+00   -0.16474E-02 11097   0.235E-01    0.102E+00
 Begin Solvation calculations
  rms_SCF =   0.205060733458963      tol =   2.050607334589629E-002
 Begin minimization
 Creating dielectric and ionic cavities
  area:      145.148250599731     
  volume:    768.452530627900     
  Acav:     7.620283156485855E-002
  Solving linear dielectric/ionic screening model
        iter                  A_solv                     rms
   LPB:       -0.207621837203459E+00   0.241471914866720E+00
   LPB:    0  -0.207581805633753E+00   0.212416398686035E+00  -0.154438E-02   0.000000E+00   0.335680E+02  -0.518416E-01
   LPB:    1  -0.207386589029512E+00   0.429086284957574E-01   0.112088E-01   0.000000E+00   0.678629E+02   0.985159E-18
   LPB:    2  -0.207352040741447E+00   0.109136478167687E-01   0.136924E-01   0.144874E+00   0.277961E+03   0.521607E-16
   LPB:    3  -0.207344433356883E+00   0.757834384769756E-02   0.199095E-01   0.151435E+00   0.389676E+03   0.350709E-16
   LPB:    4  -0.207339984653941E+00   0.113275738069411E-01   0.328606E-01   0.354310E+00   0.262532E+03   0.320873E-16
  Finished solving LPB equations
  A_corr:   -0.131137153089082     
 End minimization
 Ecorr=   1984.59618707726     
 A_corr= -0.131137153089082     
 Ecorr_band=  -1984.72732423035     
 End Solvation calculations
RMM:   4    -0.181955388860E+03    0.77965E-02   -0.34136E-03 11007   0.121E-01    0.483E-01
 Begin Solvation calculations
  rms_SCF =   0.205060733458963      tol =   2.050607334589629E-002
 Begin minimization
 Creating dielectric and ionic cavities
  area:      145.178630625762     
  volume:    768.451190404141     
  Acav:     7.621878107852501E-002
  Solving linear dielectric/ionic screening model
        iter                  A_solv                     rms
   LPB:       -0.208114682919203E+00   0.291423733867958E+00
   LPB:    0  -0.208081444031981E+00   0.272597345225750E+00   0.140726E-02   0.000000E+00   0.335680E+02   0.472390E-01
   LPB:    1  -0.207550579218172E+00   0.615485941196152E-01   0.135647E-01   0.000000E+00   0.760719E+02  -0.353555E-17
   LPB:    2  -0.207503688319094E+00   0.271185157742337E-01   0.117476E-01   0.101991E+00   0.261057E+03   0.872552E-16
   LPB:    3  -0.207490451167924E+00   0.647092064420952E-02   0.182213E-01   0.182002E+00   0.123602E+03   0.919436E-16
   LPB:    4  -0.207484540893334E+00   0.424728516909739E-02   0.315190E-01   0.258120E+00   0.297343E+03   0.134984E-15
  Finished solving LPB equations
  A_corr:   -0.131265759814809     
 End minimization
 Ecorr=   1984.38075351858     
 A_corr= -0.131265759814809     
 Ecorr_band=  -1984.51201927839     
 End Solvation calculations
RMM:   5    -0.181955067844E+03    0.32102E-03   -0.70199E-04 10313   0.500E-02    0.453E-01
 Begin Solvation calculations
  rms_SCF =   0.205060733458963      tol =   2.050607334589629E-002
 Begin minimization
 Creating dielectric and ionic cavities
  area:      145.234277616945     
  volume:    768.362185017405     
  Acav:     7.624799574889593E-002
  Solving linear dielectric/ionic screening model
        iter                  A_solv                     rms
   LPB:       -0.209367227321295E+00   0.338315566970814E+00
   LPB:    0  -0.209357648921105E+00   0.331207773094639E+00  -0.755391E-03   0.000000E+00   0.335722E+02  -0.253601E-01
   LPB:    1  -0.208325870190863E+00   0.664773243541512E-01   0.142351E-01   0.000000E+00   0.926943E+02   0.161073E-17
   LPB:    2  -0.208234569930869E+00   0.422958051752095E-01   0.135716E-01   0.928145E-01   0.241626E+03  -0.530536E-16
   LPB:    3  -0.208208209501540E+00   0.177523399237301E-01   0.172687E-01   0.226909E+00   0.104672E+03  -0.307996E-16
   LPB:    4  -0.208195065549114E+00   0.189729095826686E-01   0.243559E-01   0.353533E+00   0.259835E+03  -0.212807E-15
  Finished solving LPB equations
  A_corr:   -0.131947069800218     
 End minimization
 Ecorr=   1984.48250945322     
 A_corr= -0.131947069800218     
 Ecorr_band=  -1984.61445652302     
 End Solvation calculations
RMM:   6    -0.181954875933E+03    0.19191E-03   -0.41406E-04  7996   0.392E-02    0.395E-01
 Begin Solvation calculations
  rms_SCF =   0.205060733458963      tol =   2.050607334589629E-002
 Begin minimization
 Creating dielectric and ionic cavities
  area:      145.283629182674     
  volume:    768.339876650532     
  Acav:     7.627390532090395E-002
  Solving linear dielectric/ionic screening model
        iter                  A_solv                     rms
   LPB:       -0.209816441062351E+00   0.299011149071016E+00
   LPB:    0  -0.209807317424279E+00   0.294957895797880E+00   0.737229E-03   0.000000E+00   0.335732E+02   0.247512E-01
   LPB:    1  -0.208897024062783E+00   0.456483237487216E-01   0.145550E-01   0.000000E+00   0.979837E+02   0.177782E-17
   LPB:    2  -0.208827057605179E+00   0.431552320788522E-01   0.154525E-01   0.723972E-01   0.291133E+03   0.863825E-16
   LPB:    3  -0.208804014811783E+00   0.200536077323763E-01   0.169580E-01   0.300103E+00   0.847284E+02   0.909510E-16
   LPB:    4  -0.208786793728738E+00   0.149583435347083E-01   0.287088E-01   0.441453E+00   0.264531E+03   0.127094E-15
  Finished solving LPB equations
  A_corr:   -0.132512888407834     
 End minimization
 Ecorr=   1984.35353914269     
 A_corr= -0.132512888407834     
 Ecorr_band=  -1984.48605203110     
 End Solvation calculations
RMM:   7    -0.181955360217E+03   -0.48428E-03   -0.31144E-04  7100   0.361E-02    0.409E-01
 Begin Solvation calculations
  rms_SCF =   0.205060733458963      tol =   2.050607334589629E-002
 Begin minimization
 Creating dielectric and ionic cavities
  area:      145.349586064776     
  volume:    768.291297560645     
  Acav:     7.630853268400763E-002
  Solving linear dielectric/ionic screening model
        iter                  A_solv                     rms
   LPB:       -0.211246662498360E+00   0.419660585204443E+00
   LPB:    0  -0.211246280770663E+00   0.419210625647963E+00  -0.150793E-03   0.000000E+00   0.335755E+02  -0.506295E-02
   LPB:    1  -0.209769885210816E+00   0.849410602745173E-01   0.141333E-01   0.000000E+00   0.841059E+02   0.600810E-19
   LPB:    2  -0.209647167790401E+00   0.513352044993108E-01   0.128299E-01   0.915640E-01   0.261014E+03   0.346112E-16
   LPB:    3  -0.209607847771327E+00   0.172314991636514E-01   0.179429E-01   0.229107E+00   0.103991E+03   0.333108E-16
   LPB:    4  -0.209584424613964E+00   0.208838982861115E-01   0.295866E-01   0.361267E+00   0.239217E+03   0.300748E-16
   LPB:    5  -0.209569526752753E+00   0.187057404764719E-01   0.269864E-01   0.697316E+00   0.691265E+02   0.425842E-16
  Finished solving LPB equations
  A_corr:   -0.133260994068745     
 End minimization
 Ecorr=   1984.55510395239     
 A_corr= -0.133260994068745     
 Ecorr_band=  -1984.68836494645     
 End Solvation calculations
RMM:   8    -0.181955586494E+03   -0.22628E-03   -0.18141E-04  6320   0.279E-02    0.396E-01
 Begin Solvation calculations
  rms_SCF =   0.205060733458963      tol =   2.050607334589629E-002
 Begin minimization
 Creating dielectric and ionic cavities
  area:      145.391703732214     
  volume:    768.283366329226     
  Acav:     7.633064445941228E-002
  Solving linear dielectric/ionic screening model
        iter                  A_solv                     rms
   LPB:       -0.210761599330995E+00   0.297719354796896E+00
   LPB:    0  -0.210761094062741E+00   0.298400248239320E+00   0.173485E-03   0.000000E+00   0.335759E+02   0.582492E-02
   LPB:    1  -0.210137629744229E+00   0.658985478220018E-01   0.135887E-01   0.000000E+00   0.757339E+02   0.319806E-18
   LPB:    2  -0.210078920563518E+00   0.289748275773366E-01   0.119340E-01   0.107222E+00   0.254747E+03  -0.201304E-17
   LPB:    3  -0.210062895511521E+00   0.102984956689111E-01   0.188207E-01   0.173080E+00   0.118828E+03   0.413816E-17
   LPB:    4  -0.210051121621290E+00   0.178555859882159E-01   0.350841E-01   0.394135E+00   0.153086E+03  -0.253005E-16
  Finished solving LPB equations
  A_corr:   -0.133720477161877     
 End minimization
 Ecorr=   1984.28215721306     
 A_corr= -0.133720477161877     
 Ecorr_band=  -1984.41587769022     
 End Solvation calculations
RMM:   9    -0.181955503793E+03    0.82701E-04   -0.86370E-05  6174   0.179E-02
 Begin Solvation calculations
  rms_SCF =   0.205060733458963      tol =   2.050607334589629E-002
 Begin minimization
 Creating dielectric and ionic cavities
  area:      145.444972657509     
  volume:    768.282469646539     
  Acav:     7.635861064519207E-002
  Solving linear dielectric/ionic screening model
        iter                  A_solv                     rms
   LPB:       -0.211767186532305E+00   0.368355099154306E+00
   LPB:    0  -0.211766916175110E+00   0.368291910728944E+00   0.126902E-03   0.000000E+00   0.335759E+02   0.426087E-02
   LPB:    1  -0.210832977772829E+00   0.784989933791089E-01   0.136027E-01   0.000000E+00   0.743199E+02  -0.256892E-18
   LPB:    2  -0.210752020562392E+00   0.373974452848303E-01   0.119214E-01   0.989091E-01   0.256682E+03   0.260700E-16
   LPB:    3  -0.210725980657520E+00   0.104287392246884E-01   0.194096E-01   0.197558E+00   0.110000E+03   0.272937E-16
   LPB:    4  -0.210709422037386E+00   0.125700600571362E-01   0.344920E-01   0.357835E+00   0.198360E+03   0.161130E-16
  Finished solving LPB equations
  A_corr:   -0.134350811392194     
 End minimization
 Ecorr=   1984.22270725142     
 A_corr= -0.134350811392194     
 Ecorr_band=  -1984.35705806281     
 End Solvation calculations
   2 F= -.18195550E+03 E0= -.18195224E+03  d E =-.350309E-02
quench:  g(F)=  0.000E+00 g(S)=  0.000E+00 dE (1.order)= 0.000E+00
 bond charge predicted
       N       E                     dE             d eps       ncg     rms          rms(c)
 Begin Solvation calculations
  rms_SCF =   0.205060733458963      tol =   2.050607334589629E-002
 Begin minimization
 Creating dielectric and ionic cavities
  area:      145.443129762047     
  volume:    768.275344429624     
  Acav:     7.635764312507462E-002
  Solving linear dielectric/ionic screening model
        iter                  A_solv                     rms
   LPB:       -0.210993881986867E+00   0.128457028249910E-01
   LPB:    0  -0.210993881967625E+00   0.128894428217738E-01  -0.107059E-05   0.000000E+00   0.335763E+02  -0.359463E-04
   LPB:    1  -0.210758682813908E+00   0.889948681852928E-02   0.167634E-01   0.000000E+00   0.709643E+04   0.221448E-20
   LPB:    2  -0.210721547762710E+00   0.172359749927356E-01   0.278255E-01   0.951191E-01   0.121268E+04   0.404853E-16
   LPB:    3  -0.210707518346150E+00   0.202005455602551E-01   0.252209E-01   0.416811E+00   0.161878E+03   0.330002E-16
   LPB:    4  -0.210697470452486E+00   0.154439721528793E-01   0.233264E-01   0.774370E+00   0.252238E+03  -0.125613E-16
  Finished solving LPB equations
  A_corr:   -0.134339827327411     
 End minimization
 Ecorr=   1984.31021831047     
 A_corr= -0.134339827327411     
 Ecorr_band=  -1984.44455813780     
 End Solvation calculations
DAV:   1    -0.181955940537E+03   -0.35404E-03   -0.22579E-02 11601   0.298E-01    0.317E-01
 Begin Solvation calculations
  rms_SCF =   0.205060733458963      tol =   2.050607334589629E-002
 Begin minimization
 Creating dielectric and ionic cavities
  area:      145.427182352670     
  volume:    768.251136411608     
  Acav:     7.634927073515199E-002
  Solving linear dielectric/ionic screening model
        iter                  A_solv                     rms
   LPB:       -0.253405323118936E+00   0.373767627535457E+01
   LPB:    0  -0.253325059905105E+00   0.373244457953398E+01  -0.218650E-02   0.000000E+00   0.335774E+02  -0.734170E-01
   LPB:    1  -0.216608186217118E+00   0.391759622105473E+00   0.875532E-02   0.000000E+00   0.687236E+02  -0.698103E-17
   LPB:    2  -0.212811543727610E+00   0.667923293112078E-01   0.150295E-01   0.602368E-01   0.144532E+03  -0.455688E-15
   LPB:    3  -0.212381084060868E+00   0.227701857466567E-01   0.214588E-01   0.794092E-01   0.231799E+03  -0.497378E-15
   LPB:    4  -0.212261791004776E+00   0.148600136898636E-01   0.273412E-01   0.217506E+00   0.321570E+03  -0.524766E-15
  Finished solving LPB equations
  A_corr:   -0.135912520269624     
 End minimization
 Ecorr=   1983.60513696873     
 A_corr= -0.135912520269624     
 Ecorr_band=  -1983.74104948900     
 End Solvation calculations
RMM:   2    -0.182129532501E+03   -0.17359E+00   -0.26134E-02 11088   0.277E-01    0.482E+00
 Begin Solvation calculations
  rms_SCF =   0.205060733458963      tol =   2.050607334589629E-002
 Begin minimization
 Creating dielectric and ionic cavities
  area:      145.584294260695     
  volume:    768.288845724430     
  Acav:     7.643175448686469E-002
  Solving linear dielectric/ionic screening model
        iter                  A_solv                     rms
   LPB:       -0.242969508302422E+00   0.334474491650500E+01
   LPB:    0  -0.242890604661655E+00   0.333913212641293E+01   0.216796E-02   0.000000E+00   0.335756E+02   0.727907E-01
   LPB:    1  -0.214056791462266E+00   0.311586649855296E+00   0.847576E-02   0.000000E+00   0.719356E+02  -0.322232E-17
   LPB:    2  -0.211643232550492E+00   0.467090290114215E-01   0.155031E-01   0.457631E-01   0.136635E+03  -0.167622E-16
   LPB:    3  -0.211403449850005E+00   0.122969895317481E-01   0.200939E-01   0.766506E-01   0.312478E+03   0.151814E-16
   LPB:    4  -0.211359808734522E+00   0.589828147925281E-02   0.235914E-01   0.155020E+00   0.829428E+03  -0.140052E-15
  Finished solving LPB equations
  A_corr:   -0.134928054247657     
 End minimization
 Ecorr=   1984.19655985804     
 A_corr= -0.134928054247657     
 Ecorr_band=  -1984.33148791229     
 End Solvation calculations
RMM:   3    -0.181959965149E+03    0.16957E+00   -0.19603E-02 11090   0.255E-01    0.411E-01
 Begin Solvation calculations
  rms_SCF =   0.205060733458963      tol =   2.050607334589629E-002
 Begin minimization
 Creating dielectric and ionic cavities
  area:      145.498894101964     
  volume:    768.290562499975     
  Acav:     7.638691940353096E-002
  Solving linear dielectric/ionic screening model
        iter                  A_solv                     rms
   LPB:       -0.211644934188261E+00   0.138638655162705E+00
   LPB:    0  -0.211644585159683E+00   0.137981920645066E+00  -0.144190E-03   0.000000E+00   0.335756E+02  -0.484125E-02
   LPB:    1  -0.211525075164399E+00   0.313294896438551E-01   0.128888E-01   0.000000E+00   0.755268E+02  -0.292975E-18
   LPB:    2  -0.211510880044380E+00   0.124676982053289E-01   0.126194E-01   0.121313E+00   0.293034E+03   0.555202E-17
   LPB:    3  -0.211506331611799E+00   0.473881400044931E-02   0.193098E-01   0.209403E+00   0.217888E+03   0.650639E-17
   LPB:    4  -0.211502301317079E+00   0.755744232623298E-02   0.475403E-01   0.359908E+00   0.562300E+03   0.419329E-17
  Finished solving LPB equations
  A_corr:   -0.135115381913548     
 End minimization
 Ecorr=   1984.16655239007     
 A_corr= -0.135115381913548     
 Ecorr_band=  -1984.30166777198     
 End Solvation calculations
RMM:   4    -0.181956222754E+03    0.37424E-02   -0.13379E-03 10973   0.831E-02    0.250E-01
 Begin Solvation calculations
  rms_SCF =   0.205060733458963      tol =   2.050607334589629E-002
 Begin minimization
 Creating dielectric and ionic cavities
  area:      145.519872798613     
  volume:    768.305159189095     
  Acav:     7.639793321927192E-002
  Solving linear dielectric/ionic screening model
        iter                  A_solv                     rms
   LPB:       -0.212201999704115E+00   0.278521976409157E+00
   LPB:    0  -0.212201935640300E+00   0.278508952242705E+00   0.617752E-04   0.000000E+00   0.335749E+02   0.207409E-02
   LPB:    1  -0.211863317751598E+00   0.571617890855634E-01   0.118303E-01   0.000000E+00   0.623713E+02   0.168933E-18
   LPB:    2  -0.211821107733945E+00   0.144269712555425E-01   0.115821E-01   0.127325E+00   0.261734E+03   0.167801E-16
   LPB:    3  -0.211812795945401E+00   0.405811269731824E-02   0.214159E-01   0.106495E+00   0.148419E+03   0.235430E-16
   LPB:    4  -0.211808363364606E+00   0.390956195997639E-02   0.358859E-01   0.318255E+00   0.184848E+03   0.917989E-17
  Finished solving LPB equations
  A_corr:   -0.135410430145334     
 End minimization
 Ecorr=   1984.07987828989     
 A_corr= -0.135410430145334     
 Ecorr_band=  -1984.21528872003     
 End Solvation calculations
RMM:   5    -0.181955925960E+03    0.29679E-03   -0.19881E-04  6388   0.285E-02    0.175E-01
 Begin Solvation calculations
  rms_SCF =   0.205060733458963      tol =   2.050607334589629E-002
 Begin minimization
 Creating dielectric and ionic cavities
  area:      145.538452078998     
  volume:    768.315312666588     
  Acav:     7.640768734147371E-002
  Solving linear dielectric/ionic screening model
        iter                  A_solv                     rms
   LPB:       -0.212214226784096E+00   0.139157804364277E+00
   LPB:    0  -0.212214045782384E+00   0.139080402137142E+00   0.103837E-03   0.000000E+00   0.335744E+02   0.348627E-02
   LPB:    1  -0.212084563599059E+00   0.273729031036162E-01   0.135258E-01   0.000000E+00   0.731483E+02  -0.459614E-19
   LPB:    2  -0.212074501240962E+00   0.142219317669903E-01   0.119870E-01   0.876885E-01   0.254163E+03  -0.781507E-17
   LPB:    3  -0.212070543010674E+00   0.469921062279970E-02   0.213763E-01   0.220587E+00   0.949346E+02  -0.480000E-17
   LPB:    4  -0.212066395420317E+00   0.525674798387035E-02   0.441826E-01   0.506963E+00   0.124385E+03  -0.482319E-16
  Finished solving LPB equations
  A_corr:   -0.135658708078843     
 End minimization
 Ecorr=   1983.99007547528     
 A_corr= -0.135658708078843     
 Ecorr_band=  -1984.12573418336     
 End Solvation calculations
RMM:   6    -0.181956144294E+03   -0.21833E-03   -0.73529E-05  6027   0.178E-02    0.205E-01
 Begin Solvation calculations
  rms_SCF =   0.205060733458963      tol =   2.050607334589629E-002
 Begin minimization
 Creating dielectric and ionic cavities
  area:      145.557347773472     
  volume:    768.316022743304     
  Acav:     7.641760758107302E-002
  Solving linear dielectric/ionic screening model
        iter                  A_solv                     rms
   LPB:       -0.212444638872835E+00   0.131456241579960E+00
   LPB:    0  -0.212444256928920E+00   0.130909047332817E+00  -0.150838E-03   0.000000E+00   0.335744E+02  -0.506429E-02
   LPB:    1  -0.212334819732474E+00   0.261478430166849E-01   0.132799E-01   0.000000E+00   0.724190E+02  -0.186848E-18
   LPB:    2  -0.212326367301653E+00   0.117277496892281E-01   0.115004E-01   0.891863E-01   0.258813E+03   0.289098E-16
   LPB:    3  -0.212323490597539E+00   0.376592121382333E-02   0.213665E-01   0.183186E+00   0.101340E+03   0.267396E-16
   LPB:    4  -0.212320283770404E+00   0.600576026895508E-02   0.474868E-01   0.501581E+00   0.105398E+03   0.261034E-16
  Finished solving LPB equations
  A_corr:   -0.135902676189331     
 End minimization
 Ecorr=   1983.96678211458     
 A_corr= -0.135902676189331     
 Ecorr_band=  -1984.10268479077     
 End Solvation calculations
RMM:   7    -0.181956288089E+03   -0.14380E-03   -0.33497E-05  5968   0.124E-02    0.212E-01
 Begin Solvation calculations
  rms_SCF =   0.205060733458963      tol =   2.050607334589629E-002
 Begin minimization
 Creating dielectric and ionic cavities
  area:      145.569490475499     
  volume:    768.324589324766     
  Acav:     7.642398249963694E-002
  Solving linear dielectric/ionic screening model
        iter                  A_solv                     rms
   LPB:       -0.212594215951800E+00   0.129140592920575E+00
   LPB:    0  -0.212593970386751E+00   0.128781163626009E+00   0.120948E-03   0.000000E+00   0.335740E+02   0.406069E-02
   LPB:    1  -0.212511585626545E+00   0.268057425170949E-01   0.123160E-01   0.000000E+00   0.653797E+02   0.109755E-18
   LPB:    2  -0.212503337849709E+00   0.823789639677252E-02   0.111509E-01   0.110573E+00   0.262421E+03   0.217219E-16
   LPB:    3  -0.212501076395253E+00   0.282918068304455E-02   0.239347E-01   0.127742E+00   0.108026E+03   0.246278E-16
   LPB:    4  -0.212498466972585E+00   0.233811877420129E-02   0.520907E-01   0.530182E+00   0.952029E+02  -0.384084E-16
  Finished solving LPB equations
  A_corr:   -0.136074484472949     
 End minimization
 Ecorr=   1983.91687479912     
 A_corr= -0.136074484472949     
 Ecorr_band=  -1984.05294928359     
 End Solvation calculations
RMM:   8    -0.181956360777E+03   -0.72688E-04   -0.96320E-06  4816   0.644E-03
 Begin Solvation calculations
  rms_SCF =   0.205060733458963      tol =   2.050607334589629E-002
 Begin minimization
 Creating dielectric and ionic cavities
  area:      145.600719778327     
  volume:    768.331396244901     
  Acav:     7.644037788362175E-002
  Solving linear dielectric/ionic screening model
        iter                  A_solv                     rms
   LPB:       -0.213622080335459E+00   0.325312524471795E+00
   LPB:    0  -0.213621648609627E+00   0.324831423174162E+00  -0.160369E-03   0.000000E+00   0.335736E+02  -0.538416E-02
   LPB:    1  -0.213093598965213E+00   0.675108489693504E-01   0.123450E-01   0.000000E+00   0.656549E+02  -0.221295E-18
   LPB:    2  -0.213038729698873E+00   0.202559689567989E-01   0.112755E-01   0.113766E+00   0.267717E+03  -0.303894E-16
   LPB:    3  -0.213027686819112E+00   0.470907716823294E-02   0.190979E-01   0.118823E+00   0.144638E+03  -0.331236E-16
   LPB:    4  -0.213023331327806E+00   0.618860966430726E-02   0.306145E-01   0.246044E+00   0.206354E+03   0.118992E-17
  Finished solving LPB equations
  A_corr:   -0.136582953444184     
 End minimization
 Ecorr=   1983.79621029526     
 A_corr= -0.136582953444184     
 Ecorr_band=  -1983.93279324870     
 End Solvation calculations
   3 F= -.18195636E+03 E0= -.18195307E+03  d E =-.856984E-03
quench:  g(F)=  0.000E+00 g(S)=  0.000E+00 dE (1.order)= 0.000E+00
 bond charge predicted
       N       E                     dE             d eps       ncg     rms          rms(c)
 Begin Solvation calculations
  rms_SCF =   0.205060733458963      tol =   2.050607334589629E-002
 Begin minimization
 Creating dielectric and ionic cavities
  area:      145.615611943686     
  volume:    768.334982216195     
  Acav:     7.644819627043493E-002
  Solving linear dielectric/ionic screening model
        iter                  A_solv                     rms
   LPB:       -0.213557807083623E+00   0.656604739454358E-02
   LPB:    0  -0.213557807079805E+00   0.658491213140295E-02  -0.476899E-06   0.000000E+00   0.335735E+02  -0.160112E-04
   LPB:    1  -0.213096958538197E+00   0.390503478327312E-02   0.164849E-01   0.000000E+00   0.563213E+05   0.132708E-20
   LPB:    2  -0.213036494205941E+00   0.707801557738664E-02   0.273924E-01   0.789581E-01   0.972158E+04  -0.322604E-17
   LPB:    3  -0.213016235666160E+00   0.126021846414728E-01   0.314565E-01   0.291762E+00   0.764089E+03  -0.213484E-16
   LPB:    4  -0.213008111834329E+00   0.163433622663847E-01   0.247634E-01   0.509391E+00   0.195784E+03  -0.359074E-16
  Finished solving LPB equations
  A_corr:   -0.136559915563894     
 End minimization
 Ecorr=   1983.77906557812     
 A_corr= -0.136559915563894     
 Ecorr_band=  -1983.91562549368     
 End Solvation calculations
DAV:   1    -0.181956599903E+03   -0.31181E-03   -0.56125E-02 11448   0.488E-01    0.162E-01
 Begin Solvation calculations
  rms_SCF =   0.205060733458963      tol =   2.050607334589629E-002
 Begin minimization
 Creating dielectric and ionic cavities
  area:      145.595537668368     
  volume:    768.297253507319     
  Acav:     7.643765727589316E-002
  Solving linear dielectric/ionic screening model
        iter                  A_solv                     rms
   LPB:       -0.222498473209305E+00   0.165858893896274E+01
   LPB:    0  -0.222459183218780E+00   0.165361473391350E+01  -0.152984E-02   0.000000E+00   0.335752E+02  -0.513648E-01
   LPB:    1  -0.215207937607770E+00   0.178138202126361E+00   0.880325E-02   0.000000E+00   0.683760E+02   0.209818E-17
   LPB:    2  -0.214423711808446E+00   0.314957125143673E-01   0.150931E-01   0.630800E-01   0.143560E+03   0.147820E-15
   LPB:    3  -0.214332472215773E+00   0.105356182148708E-01   0.212955E-01   0.824583E-01   0.224337E+03   0.189971E-16
   LPB:    4  -0.214305615884582E+00   0.663315640950472E-02   0.280315E-01   0.223617E+00   0.324411E+03  -0.450968E-16
  Finished solving LPB equations
  A_corr:   -0.137867958608689     
 End minimization
 Ecorr=   1983.49440958065     
 A_corr= -0.137867958608689     
 Ecorr_band=  -1983.63227753925     
 End Solvation calculations
RMM:   2    -0.181991564694E+03   -0.34965E-01   -0.70236E-03 11098   0.148E-01    0.217E+00
 Begin Solvation calculations
  rms_SCF =   0.205060733458963      tol =   2.050607334589629E-002
 Begin minimization
 Creating dielectric and ionic cavities
  area:      145.646874104359     
  volume:    768.309656675233     
  Acav:     7.646460890478855E-002
  Solving linear dielectric/ionic screening model
        iter                  A_solv                     rms
   LPB:       -0.220380460517027E+00   0.152791147478281E+01
   LPB:    0  -0.220368092111510E+00   0.152588932468540E+01   0.858353E-03   0.000000E+00   0.335747E+02   0.288189E-01
   LPB:    1  -0.214348156346595E+00   0.142147929836519E+00   0.847193E-02   0.000000E+00   0.719924E+02  -0.103637E-17
   LPB:    2  -0.213844401920344E+00   0.213645395201283E-01   0.155420E-01   0.456145E-01   0.136352E+03   0.754869E-18
   LPB:    3  -0.213793299610574E+00   0.584090990569152E-02   0.202463E-01   0.778722E-01   0.313743E+03  -0.911667E-16
   LPB:    4  -0.213783352344477E+00   0.282356024148399E-02   0.243084E-01   0.162126E+00   0.909728E+03  -0.128542E-15
  Finished solving LPB equations
  A_corr:   -0.137318743439689     
 End minimization
 Ecorr=   1983.79202097310     
 A_corr= -0.137318743439689     
 Ecorr_band=  -1983.92933971654     
 End Solvation calculations
RMM:   3    -0.181957841223E+03    0.33723E-01   -0.42784E-03 11028   0.120E-01    0.259E-01
 Begin Solvation calculations
  rms_SCF =   0.205060733458963      tol =   2.050607334589629E-002
 Begin minimization
 Creating dielectric and ionic cavities
  area:      145.633070357756     
  volume:    768.312320935902     
  Acav:     7.645736193782211E-002
  Solving linear dielectric/ionic screening model
        iter                  A_solv                     rms
   LPB:       -0.213942065767661E+00   0.115591210135531E+00
   LPB:    0  -0.213941892597551E+00   0.115283373095809E+00  -0.101566E-03   0.000000E+00   0.335745E+02  -0.341002E-02
   LPB:    1  -0.213891927667904E+00   0.203933529000869E-01   0.107372E-01   0.000000E+00   0.651965E+02   0.437229E-19
   LPB:    2  -0.213884251668829E+00   0.493936143947929E-02   0.131838E-01   0.125118E+00   0.252196E+03   0.842109E-17
   LPB:    3  -0.213882425551353E+00   0.195794186768688E-02   0.225405E-01   0.139146E+00   0.249159E+03   0.107668E-16
   LPB:    4  -0.213880609532086E+00   0.285619115090790E-02   0.554490E-01   0.404261E+00   0.533419E+03   0.249597E-16
  Finished solving LPB equations
  A_corr:   -0.137423247594264     
 End minimization
 Ecorr=   1983.75401549709     
 A_corr= -0.137423247594264     
 Ecorr_band=  -1983.89143874469     
 End Solvation calculations
RMM:   4    -0.181956917754E+03    0.92347E-03   -0.39094E-04  7888   0.441E-02    0.160E-01
 Begin Solvation calculations
  rms_SCF =   0.205060733458963      tol =   2.050607334589629E-002
 Begin minimization
 Creating dielectric and ionic cavities
  area:      145.640813025295     
  volume:    768.321299868236     
  Acav:     7.646142683827969E-002
  Solving linear dielectric/ionic screening model
        iter                  A_solv                     rms
   LPB:       -0.214231754413985E+00   0.120589189516753E+00
   LPB:    0  -0.214231557234252E+00   0.120154156652667E+00  -0.108379E-03   0.000000E+00   0.335741E+02  -0.363872E-02
   LPB:    1  -0.214163684517153E+00   0.259733506287337E-01   0.121770E-01   0.000000E+00   0.633588E+02   0.766250E-21
   LPB:    2  -0.214155568131023E+00   0.687205714505526E-02   0.114931E-01   0.126699E+00   0.257672E+03   0.273907E-16
   LPB:    3  -0.214153720270310E+00   0.205720436587158E-02   0.220892E-01   0.118458E+00   0.140100E+03   0.328534E-16
   LPB:    4  -0.214152280437016E+00   0.248396063797473E-02   0.423811E-01   0.406116E+00   0.152827E+03   0.713549E-16
  Finished solving LPB equations
  A_corr:   -0.137690853598736     
 End minimization
 Ecorr=   1983.67759787526     
 A_corr= -0.137690853598736     
 Ecorr_band=  -1983.81528872886     
 End Solvation calculations
RMM:   5    -0.181956865817E+03    0.51937E-04   -0.10091E-04  5990   0.222E-02
 Begin Solvation calculations
  rms_SCF =   0.205060733458963      tol =   2.050607334589629E-002
 Begin minimization
 Creating dielectric and ionic cavities
  area:      145.645266170818     
  volume:    768.328828209440     
  Acav:     7.646376473967956E-002
  Solving linear dielectric/ionic screening model
        iter                  A_solv                     rms
   LPB:       -0.214391635883495E+00   0.706353148081468E-01
   LPB:    0  -0.214391635858337E+00   0.706373145357226E-01   0.122421E-05   0.000000E+00   0.335738E+02   0.411014E-04
   LPB:    1  -0.214363870740027E+00   0.158171356700598E-01   0.129064E-01   0.000000E+00   0.668053E+02  -0.292907E-20
   LPB:    2  -0.214361035754851E+00   0.553991474647946E-02   0.115276E-01   0.114319E+00   0.243237E+03   0.193146E-16
   LPB:    3  -0.214360045101150E+00   0.203230911910770E-02   0.240830E-01   0.167263E+00   0.105976E+03   0.282154E-16
   LPB:    4  -0.214358760946490E+00   0.177689143157616E-02   0.526105E-01   0.593381E+00   0.108716E+03   0.233857E-16
  Finished solving LPB equations
  A_corr:   -0.137894996206811     
 End minimization
 Ecorr=   1983.59967288113     
 A_corr= -0.137894996206811     
 Ecorr_band=  -1983.73756787734     
 End Solvation calculations
   4 F= -.18195687E+03 E0= -.18195349E+03  d E =-.505040E-03
quench:  g(F)=  0.000E+00 g(S)=  0.000E+00 dE (1.order)= 0.000E+00
 bond charge predicted
       N       E                     dE             d eps       ncg     rms          rms(c)
 Begin Solvation calculations
  rms_SCF =   0.205060733458963      tol =   2.050607334589629E-002
 Begin minimization
 Creating dielectric and ionic cavities
  area:      145.664643389959     
  volume:    768.339679505799     
  Acav:     7.647393777972848E-002
  Solving linear dielectric/ionic screening model
        iter                  A_solv                     rms
   LPB:       -0.215021717412731E+00   0.299567674468637E-02
   LPB:    0  -0.215021717412363E+00   0.299807335856696E-02  -0.147928E-06   0.000000E+00   0.335733E+02  -0.496644E-05
   LPB:    1  -0.214438963056199E+00   0.136091356929139E-02   0.165968E-01   0.000000E+00   0.448522E+06   0.424253E-21
   LPB:    2  -0.214362168361257E+00   0.177848907049843E-02   0.274098E-01   0.797927E-01   0.110141E+06  -0.647313E-18
   LPB:    3  -0.214336095565203E+00   0.367548633911683E-02   0.329962E-01   0.282032E+00   0.177581E+05  -0.133024E-17
   LPB:    4  -0.214324710500974E+00   0.114346195253456E-01   0.346799E-01   0.415465E+00   0.174110E+04  -0.426149E-17
  Finished solving LPB equations
  A_corr:   -0.137850772721245     
 End minimization
 Ecorr=   1983.60264187773     
 A_corr= -0.137850772721245     
 Ecorr_band=  -1983.74049265045     
 End Solvation calculations
DAV:   1    -0.181956805367E+03    0.11239E-03   -0.83519E-02 11385   0.584E-01    0.146E-01
 Begin Solvation calculations
  rms_SCF =   0.179211562889036      tol =   1.792115628890361E-002
 Begin minimization
 Creating dielectric and ionic cavities
  area:      145.660230606843     
  volume:    768.270812472318     
  Acav:     7.647162106859255E-002
  Solving linear dielectric/ionic screening model
        iter                  A_solv                     rms
   LPB:       -0.219819880822744E+00   0.118619993895423E+01
   LPB:    0  -0.219709559085793E+00   0.116808244177701E+01  -0.256347E-02   0.000000E+00   0.335765E+02  -0.860722E-01
   LPB:    1  -0.216072095051971E+00   0.127942481287751E+00   0.882655E-02   0.000000E+00   0.681866E+02  -0.156817E-18
   LPB:    2  -0.215664085708189E+00   0.214765711746421E-01   0.152458E-01   0.649400E-01   0.140760E+03   0.407659E-16
   LPB:    3  -0.215615180483605E+00   0.870783219437285E-02   0.212059E-01   0.861745E-01   0.269954E+03   0.147016E-17
   LPB:    4  -0.215600411300820E+00   0.102124079464804E-01   0.271699E-01   0.235705E+00   0.258625E+03   0.552647E-16
  Finished solving LPB equations
  A_corr:   -0.139128790232227     
 End minimization
 Ecorr=   1983.60029813683     
 A_corr= -0.139128790232227     
 Ecorr_band=  -1983.73942692707     
 End Solvation calculations
RMM:   2    -0.181976084141E+03   -0.19279E-01   -0.56204E-03 11118   0.139E-01    0.162E+00
 Begin Solvation calculations
  rms_SCF =   0.179211562889036      tol =   1.792115628890361E-002
 Begin minimization
 Creating dielectric and ionic cavities
  area:      145.688446640068     
  volume:    768.296953663694     
  Acav:     7.648643448603556E-002
  Solving linear dielectric/ionic screening model
        iter                  A_solv                     rms
   LPB:       -0.218928350332360E+00   0.115859847851954E+01
   LPB:    0  -0.218906517865054E+00   0.115423093969124E+01   0.114040E-02   0.000000E+00   0.335753E+02   0.382892E-01
   LPB:    1  -0.215462749969666E+00   0.108180088018036E+00   0.847288E-02   0.000000E+00   0.718955E+02  -0.338047E-17
   LPB:    2  -0.215172342657109E+00   0.154034037569531E-01   0.155911E-01   0.458276E-01   0.134334E+03  -0.198534E-15
   LPB:    3  -0.215142625017553E+00   0.465898093543573E-02   0.203567E-01   0.783748E-01   0.350088E+03  -0.254614E-15
   LPB:    4  -0.215136395142032E+00   0.424166051746531E-02   0.248683E-01   0.171604E+00   0.642239E+03  -0.230125E-15
  Finished solving LPB equations
  A_corr:   -0.138649960655996     
 End minimization
 Ecorr=   1983.76459898563     
 A_corr= -0.138649960655996     
 Ecorr_band=  -1983.90324894628     
 End Solvation calculations
RMM:   3    -0.181957956004E+03    0.18128E-01   -0.26144E-03 10997   0.938E-02    0.298E-01
 Begin Solvation calculations
  rms_SCF =   0.179211562889036      tol =   1.792115628890361E-002
 Begin minimization
 Creating dielectric and ionic cavities
  area:      145.676437409082     
  volume:    768.328750346988     
  Acav:     7.648012963976805E-002
  Solving linear dielectric/ionic screening model
        iter                  A_solv                     rms
   LPB:       -0.215179404560553E+00   0.128898675292193E+00
   LPB:    0  -0.215168656166826E+00   0.115875377432647E+00   0.800178E-03   0.000000E+00   0.335738E+02   0.268650E-01
   LPB:    1  -0.215128676205991E+00   0.134645969161652E-01   0.928503E-02   0.000000E+00   0.682785E+02   0.529542E-18
   LPB:    2  -0.215123526565541E+00   0.444384638009353E-02   0.147797E-01   0.809194E-01   0.207520E+03   0.512543E-16
   LPB:    3  -0.215122272304920E+00   0.378406038524956E-02   0.245841E-01   0.146427E+00   0.140051E+03   0.592403E-16
   LPB:    4  -0.215120952237407E+00   0.587492871845524E-02   0.471132E-01   0.549187E+00   0.293389E+03   0.746616E-16
  Finished solving LPB equations
  A_corr:   -0.138640822597639     
 End minimization
 Ecorr=   1983.53172765723     
 A_corr= -0.138640822597639     
 Ecorr_band=  -1983.67036847982     
 End Solvation calculations
RMM:   4    -0.181957121644E+03    0.83436E-03   -0.31608E-04  7238   0.383E-02    0.148E-01
 Begin Solvation calculations
  rms_SCF =   0.179211562889036      tol =   1.792115628890361E-002
 Begin minimization
 Creating dielectric and ionic cavities
  area:      145.683129308937     
  volume:    768.325355050073     
  Acav:     7.648364288719203E-002
  Solving linear dielectric/ionic screening model
        iter                  A_solv                     rms
   LPB:       -0.215518573014023E+00   0.123967573120738E+00
   LPB:    0  -0.215512629866577E+00   0.113234038473289E+00  -0.595007E-03   0.000000E+00   0.335739E+02  -0.199767E-01
   LPB:    1  -0.215454766873005E+00   0.228621892581114E-01   0.118049E-01   0.000000E+00   0.630925E+02  -0.836902E-18
   LPB:    2  -0.215447412724721E+00   0.639187068110596E-02   0.119732E-01   0.125309E+00   0.256483E+03   0.147839E-16
   LPB:    3  -0.215445858224507E+00   0.319437589331046E-02   0.205898E-01   0.122918E+00   0.166751E+03   0.182993E-16
   LPB:    4  -0.215444885025875E+00   0.493555100065439E-02   0.326321E-01   0.395018E+00   0.118440E+03   0.197462E-16
  Finished solving LPB equations
  A_corr:   -0.138961242138683     
 End minimization
 Ecorr=   1983.50931238711     
 A_corr= -0.138961242138683     
 Ecorr_band=  -1983.64827362925     
 End Solvation calculations
RMM:   5    -0.181957083174E+03    0.38470E-04   -0.11199E-04  6011   0.232E-02
 Begin Solvation calculations
  rms_SCF =   0.179211562889036      tol =   1.792115628890361E-002
 Begin minimization
 Creating dielectric and ionic cavities
  area:      145.687439517718     
  volume:    768.338640547189     
  Acav:     7.648590574680184E-002
  Solving linear dielectric/ionic screening model
        iter                  A_solv                     rms
   LPB:       -0.215725956899020E+00   0.483970409237658E-01
   LPB:    0  -0.215725869433326E+00   0.481326838030301E-01   0.721833E-04   0.000000E+00   0.335733E+02   0.242343E-02
   LPB:    1  -0.215706929242537E+00   0.986844123926433E-02   0.140261E-01   0.000000E+00   0.829635E+02  -0.714805E-19
   LPB:    2  -0.215705282987160E+00   0.663558166491274E-02   0.143434E-01   0.849954E-01   0.177617E+03   0.519730E-18
   LPB:    3  -0.215704498083402E+00   0.339400972144499E-02   0.203367E-01   0.336274E+00   0.898645E+02   0.169108E-16
   LPB:    4  -0.215703523026161E+00   0.240166071961677E-02   0.419248E-01   0.602590E+00   0.213109E+03   0.171907E-16
  Finished solving LPB equations
  A_corr:   -0.139217617279360     
 End minimization
 Ecorr=   1983.42449078800     
 A_corr= -0.139217617279360     
 Ecorr_band=  -1983.56370840527     
 End Solvation calculations
   5 F= -.18195708E+03 E0= -.18195365E+03  d E =-.217357E-03
quench:  g(F)=  0.000E+00 g(S)=  0.000E+00 dE (1.order)= 0.000E+00
 bond charge predicted
       N       E                     dE             d eps       ncg     rms          rms(c)
 Begin Solvation calculations
  rms_SCF =   0.179211562889036      tol =   1.792115628890361E-002
 Begin minimization
 Creating dielectric and ionic cavities
  area:      145.720491878907     
  volume:    768.364158201904     
  Acav:     7.650325823642601E-002
  Solving linear dielectric/ionic screening model
        iter                  A_solv                     rms
   LPB:       -0.216237904391103E+00   0.410045195530295E-02
   LPB:    0  -0.216237904345506E+00   0.414238157940998E-02   0.164814E-05   0.000000E+00   0.335721E+02   0.553317E-04
   LPB:    1  -0.215750007897054E+00   0.288447185549858E-02   0.162923E-01   0.000000E+00   0.175185E+06   0.199649E-20
   LPB:    2  -0.215684285402019E+00   0.463702784995276E-02   0.281994E-01   0.778267E-01   0.163826E+05  -0.384797E-18
   LPB:    3  -0.215661753126504E+00   0.961520557845675E-02   0.324939E-01   0.297529E+00   0.203394E+04  -0.650207E-17
   LPB:    4  -0.215652966913778E+00   0.182485493167508E-01   0.276892E-01   0.457602E+00   0.299297E+03   0.254501E-16
   LPB:    5  -0.215648228084319E+00   0.100016561930262E-01   0.188007E-01   0.794338E+00   0.160168E+03   0.409651E-16
  Finished solving LPB equations
  A_corr:   -0.139144969847893     
 End minimization
 Ecorr=   1983.40659985705     
 A_corr= -0.139144969847893     
 Ecorr_band=  -1983.54574482690     
 End Solvation calculations
DAV:   1    -0.181956920400E+03    0.20124E-03   -0.49552E-02 11412   0.432E-01    0.142E-01
 Begin Solvation calculations
  rms_SCF =   0.179211562889036      tol =   1.792115628890361E-002
 Begin minimization
 Creating dielectric and ionic cavities
  area:      145.702834206640     
  volume:    768.324999568893     
  Acav:     7.649398795848589E-002
  Solving linear dielectric/ionic screening model
        iter                  A_solv                     rms
   LPB:       -0.221264592687754E+00   0.124100253291512E+01
   LPB:    0  -0.221208688855969E+00   0.123182229900810E+01  -0.182488E-02   0.000000E+00   0.335739E+02  -0.612685E-01
   LPB:    1  -0.217204922563421E+00   0.131202323613848E+00   0.874965E-02   0.000000E+00   0.687883E+02   0.387449E-18
   LPB:    2  -0.216777290634080E+00   0.216496333780575E-01   0.153102E-01   0.610395E-01   0.138642E+03  -0.276815E-15
   LPB:    3  -0.216728265550418E+00   0.769429023730916E-02   0.212697E-01   0.825215E-01   0.256249E+03  -0.175589E-15
   LPB:    4  -0.216713994828491E+00   0.655101520075781E-02   0.274543E-01   0.225517E+00   0.317778E+03  -0.124853E-15
  Finished solving LPB equations
  A_corr:   -0.140220006870005     
 End minimization
 Ecorr=   1983.26019945504     
 A_corr= -0.140220006870005     
 Ecorr_band=  -1983.40041946191     
 End Solvation calculations
RMM:   2    -0.181977670419E+03   -0.20750E-01   -0.49827E-03 11109   0.131E-01    0.166E+00
 Begin Solvation calculations
  rms_SCF =   0.179211562889036      tol =   1.792115628890361E-002
 Begin minimization
 Creating dielectric and ionic cavities
  area:      145.746332378318     
  volume:    768.341113287479     
  Acav:     7.651682449861703E-002
  Solving linear dielectric/ionic screening model
        iter                  A_solv                     rms
   LPB:       -0.220298602627951E+00   0.119494543083759E+01
   LPB:    0  -0.220286987103689E+00   0.119261034031597E+01   0.831837E-03   0.000000E+00   0.335732E+02   0.279274E-01
   LPB:    1  -0.216610031735191E+00   0.111653921399614E+00   0.847813E-02   0.000000E+00   0.718617E+02  -0.106185E-17
   LPB:    2  -0.216301297007257E+00   0.164502318675958E-01   0.155108E-01   0.458948E-01   0.135886E+03   0.669053E-17
   LPB:    3  -0.216270090220970E+00   0.464560339240060E-02   0.203095E-01   0.771967E-01   0.319046E+03   0.302747E-16
   LPB:    4  -0.216263916556131E+00   0.277856167991858E-02   0.244285E-01   0.164474E+00   0.719551E+03   0.317161E-17
  Finished solving LPB equations
  A_corr:   -0.139747092057514     
 End minimization
 Ecorr=   1983.45868498238     
 A_corr= -0.139747092057514     
 Ecorr_band=  -1983.59843207444     
 End Solvation calculations
RMM:   3    -0.181957887524E+03    0.19783E-01   -0.25837E-03 10994   0.932E-02    0.277E-01
 Begin Solvation calculations
  rms_SCF =   0.179211562889036      tol =   1.792115628890361E-002
 Begin minimization
 Creating dielectric and ionic cavities
  area:      145.724279863343     
  volume:    768.356810334671     
  Acav:     7.650524692825494E-002
  Solving linear dielectric/ionic screening model
        iter                  A_solv                     rms
   LPB:       -0.216405669107698E+00   0.563751650915053E-01
   LPB:    0  -0.216404377773118E+00   0.536013552109758E-01   0.277359E-03   0.000000E+00   0.335725E+02   0.931163E-02
   LPB:    1  -0.216392312153055E+00   0.107278956970070E-01   0.106060E-01   0.000000E+00   0.745271E+02  -0.691026E-18
   LPB:    2  -0.216389866099524E+00   0.340249592528894E-02   0.152897E-01   0.140627E+00   0.276499E+03   0.280610E-17
   LPB:    3  -0.216388912535868E+00   0.303370537408580E-02   0.258628E-01   0.230467E+00   0.198041E+03   0.354644E-17
   LPB:    4  -0.216387700888066E+00   0.424062285162870E-02   0.533866E-01   0.615560E+00   0.311871E+03  -0.360365E-17
  Finished solving LPB equations
  A_corr:   -0.139882453959811     
 End minimization
 Ecorr=   1983.32319705188     
 A_corr= -0.139882453959811     
 Ecorr_band=  -1983.46307950584     
 End Solvation calculations
RMM:   4    -0.181957069100E+03    0.81842E-03   -0.41820E-04  8151   0.427E-02    0.114E-01
 Begin Solvation calculations
  rms_SCF =   0.150681984432942      tol =   1.506819844329423E-002
 Begin minimization
 Creating dielectric and ionic cavities
  area:      145.731119786979     
  volume:    768.347424106165     
  Acav:     7.650883788816375E-002
  Solving linear dielectric/ionic screening model
        iter                  A_solv                     rms
   LPB:       -0.216965031618514E+00   0.105312035792665E+00
   LPB:    0  -0.216953230291841E+00   0.789725169738113E-01  -0.838467E-03   0.000000E+00   0.335729E+02  -0.281498E-01
   LPB:    1  -0.216909260767236E+00   0.195798905035374E-01   0.138330E-01   0.000000E+00   0.672476E+02  -0.397160E-19
   LPB:    2  -0.216904056884522E+00   0.732353821823655E-02   0.123626E-01   0.132429E+00   0.266089E+03  -0.185491E-15
   LPB:    3  -0.216902752336305E+00   0.397561032019759E-02   0.187709E-01   0.165104E+00   0.157587E+03  -0.208934E-15
   LPB:    4  -0.216901968916838E+00   0.410448291489672E-02   0.269004E-01   0.419045E+00   0.127494E+03  -0.219554E-15
  Finished solving LPB equations
  A_corr:   -0.140393131028674     
 End minimization
 Ecorr=   1983.31373322273     
 A_corr= -0.140393131028674     
 Ecorr_band=  -1983.45412635376     
 End Solvation calculations
RMM:   5    -0.181957070439E+03   -0.13393E-05   -0.91730E-05  5994   0.203E-02
 Begin Solvation calculations
  rms_SCF =   0.150681984432942      tol =   1.506819844329423E-002
 Begin minimization
 Creating dielectric and ionic cavities
  area:      145.731636591482     
  volume:    768.361847391483     
  Acav:     7.650910921052792E-002
  Solving linear dielectric/ionic screening model
        iter                  A_solv                     rms
   LPB:       -0.217089830176320E+00   0.494246299028823E-01
   LPB:    0  -0.217089390266180E+00   0.480210266560082E-01   0.161885E-03   0.000000E+00   0.335722E+02   0.543484E-02
   LPB:    1  -0.217077934795767E+00   0.116678611189068E-01   0.121153E-01   0.000000E+00   0.673594E+02  -0.744009E-19
   LPB:    2  -0.217076278148566E+00   0.368752396201019E-02   0.124952E-01   0.140220E+00   0.199582E+03  -0.909897E-17
   LPB:    3  -0.217075689327175E+00   0.274956564691466E-02   0.261802E-01   0.169638E+00   0.816412E+02  -0.249652E-16
   LPB:    4  -0.217075043531767E+00   0.307454515696131E-02   0.403098E-01   0.712318E+00   0.177626E+03  -0.245582E-16
  Finished solving LPB equations
  A_corr:   -0.140565934321239     
 End minimization
 Ecorr=   1983.20853904120     
 A_corr= -0.140565934321239     
 Ecorr_band=  -1983.34910497552     
 End Solvation calculations
   6 F= -.18195707E+03 E0= -.18195366E+03  d E =0.127347E-04
[...]
   LPB:    8  -0.221151961764942E+00   0.799382898657950E-03   0.341485E-01   0.599097E+00   0.422519E+03  -0.121739E-16
   LPB:    9  -0.221151939441847E+00   0.629603172642301E-03   0.244841E-01   0.791688E+00   0.169126E+03  -0.115860E-16
   LPB:   10  -0.221151920968354E+00   0.223866152778050E-03   0.300029E-01   0.675330E+00   0.372700E+03  -0.125906E-16
   LPB:   11  -0.221151907651043E+00   0.105418116396038E-03   0.392016E-01   0.551731E+00   0.160314E+04  -0.170880E-16
  Finished solving LPB equations
  A_corr:   -0.144537739323474     
 End minimization
 Ecorr=   1981.74075178616     
 A_corr= -0.144537739323474     
 Ecorr_band=  -1981.88528952549     
 End Solvation calculations
DAV:   1    -0.181951200367E+03    0.81386E-04   -0.15328E-03 11115   0.901E-02    0.205E-02
 Begin Solvation calculations
  rms_SCF =   2.108268892943513E-003 tol =   2.108268892943513E-004
 Begin minimization
 Creating dielectric and ionic cavities
  area:      145.931353223187     
  volume:    768.563399787731     
  Acav:     7.661396044217338E-002
  Solving linear dielectric/ionic screening model
        iter                  A_solv                     rms
   LPB:       -0.221131103182310E+00   0.503382964271745E-01
   LPB:    0  -0.221128578568398E+00   0.413272889586397E-01   0.387868E-03   0.000000E+00   0.335628E+02   0.130179E-01
   LPB:    1  -0.221123788134020E+00   0.367757315105739E-02   0.865645E-02   0.000000E+00   0.725212E+02  -0.403800E-18
   LPB:    2  -0.221123414815509E+00   0.138973564810565E-02   0.143642E-01   0.469638E-01   0.177394E+03   0.244315E-18
   LPB:    3  -0.221123361032651E+00   0.898561288970849E-03   0.195182E-01   0.106025E+00   0.108577E+03  -0.919261E-17
   LPB:    4  -0.221123341212826E+00   0.337197588943281E-03   0.208971E-01   0.344198E+00   0.211675E+03  -0.952849E-17
   LPB:    5  -0.221123330267769E+00   0.151757492980665E-03   0.291242E-01   0.396233E+00   0.564045E+03  -0.155191E-16
  Finished solving LPB equations
  A_corr:   -0.144509369825596     
 End minimization
 Ecorr=   1981.64798968572     
 A_corr= -0.144509369825596     
 Ecorr_band=  -1981.79249905555     
 End Solvation calculations
RMM:   2    -0.181951275290E+03   -0.74923E-04   -0.98987E-05  5862   0.225E-02
 Begin Solvation calculations
  rms_SCF =   2.108268892943513E-003 tol =   2.108268892943513E-004
 Begin minimization
 Creating dielectric and ionic cavities
  area:      145.933539755775     
  volume:    768.553927262446     
  Acav:     7.661510837178188E-002
  Solving linear dielectric/ionic screening model
        iter                  A_solv                     rms
   LPB:       -0.221136621385467E+00   0.786330702987493E-01
   LPB:    0  -0.221135482698610E+00   0.763629601607631E-01  -0.260487E-03   0.000000E+00   0.335632E+02  -0.874277E-02
   LPB:    1  -0.221120291530697E+00   0.699870446201017E-02   0.849163E-02   0.000000E+00   0.720352E+02  -0.230306E-18
   LPB:    2  -0.221119106000214E+00   0.169181647904736E-02   0.150055E-01   0.441634E-01   0.143920E+03  -0.517249E-19
   LPB:    3  -0.221118974721239E+00   0.929477485347945E-03   0.204900E-01   0.810945E-01   0.128858E+03   0.168695E-17
   LPB:    4  -0.221118942695592E+00   0.597335669595362E-03   0.210814E-01   0.237107E+00   0.194548E+03   0.136946E-16
   LPB:    5  -0.221118929299784E+00   0.276489102278656E-03   0.222859E-01   0.395676E+00   0.209817E+03   0.861143E-17
   LPB:    6  -0.221118922542516E+00   0.149653975976929E-03   0.280596E-01   0.400637E+00   0.329852E+03   0.386949E-17
  Finished solving LPB equations
  A_corr:   -0.144503814170734     
 End minimization
 Ecorr=   1981.72764096015     
 A_corr= -0.144503814170734     
 Ecorr_band=  -1981.87214477432     
 End Solvation calculations
  59 F= -.18195128E+03 E0= -.18194784E+03  d E =0.561312E-04
quench:  g(F)=  0.000E+00 g(S)=  0.000E+00 dE (1.order)= 0.000E+00
 bond charge predicted
       N       E                     dE             d eps       ncg     rms          rms(c)
 Begin Solvation calculations
  rms_SCF =   2.108268892943513E-003 tol =   2.108268892943513E-004
 Begin minimization
 Creating dielectric and ionic cavities
  area:      145.935680006289     
  volume:    768.557494955144     
  Acav:     7.661623200330171E-002
  Solving linear dielectric/ionic screening model
        iter                  A_solv                     rms
   LPB:       -0.221146715696551E+00   0.581999059879404E-03
   LPB:    0  -0.221146715693755E+00   0.585413632530459E-03   0.408192E-06   0.000000E+00   0.335630E+02   0.137002E-04
   LPB:    1  -0.221116232480349E+00   0.200308148791765E-03   0.152555E-01   0.000000E+00   0.728168E+06  -0.335328E-21
   LPB:    2  -0.221113367436095E+00   0.162333740057761E-03   0.268883E-01   0.533252E-01   0.181662E+06   0.367227E-18
   LPB:    3  -0.221112440948597E+00   0.328281343185095E-03   0.330667E-01   0.262954E+00   0.616544E+05   0.548500E-18
   LPB:    4  -0.221112028360890E+00   0.980082922230460E-03   0.360369E-01   0.408621E+00   0.773504E+04   0.546470E-18
   LPB:    5  -0.221111832741693E+00   0.250589280683293E-02   0.330472E-01   0.517020E+00   0.506191E+03   0.112843E-17
   LPB:    6  -0.221111743385932E+00   0.180209846705851E-02   0.181750E-01   0.830563E+00   0.164505E+03   0.157118E-17
   LPB:    7  -0.221111652874562E+00   0.376187538494820E-03   0.279872E-01   0.657802E+00   0.603741E+03   0.184396E-17
   LPB:    8  -0.221111590896790E+00   0.170274508385659E-03   0.391683E-01   0.489280E+00   0.570239E+04   0.237413E-17
  Finished solving LPB equations
  A_corr:   -0.144495358893488     
 End minimization
 Ecorr=   1981.72629446326     
 A_corr= -0.144495358893488     
 Ecorr_band=  -1981.87078982215     
 End Solvation calculations
DAV:   1    -0.181951130345E+03    0.70022E-04   -0.26005E-03 11379   0.116E-01    0.657E-02
 Begin Solvation calculations
  rms_SCF =   2.108268892943513E-003 tol =   2.108268892943513E-004
 Begin minimization
 Creating dielectric and ionic cavities
  area:      145.922866512915     
  volume:    768.542229137864     
  Acav:     7.660950491928045E-002
  Solving linear dielectric/ionic screening model
        iter                  A_solv                     rms
   LPB:       -0.222618536450060E+00   0.623858453896985E+00
   LPB:    0  -0.222612197972896E+00   0.621652399931950E+00  -0.614571E-03   0.000000E+00   0.335638E+02  -0.206273E-01
   LPB:    1  -0.221614445855383E+00   0.598942013538133E-01   0.849554E-02   0.000000E+00   0.714499E+02   0.685984E-18
   LPB:    2  -0.221528062758730E+00   0.924973278232383E-02   0.155999E-01   0.471492E-01   0.130207E+03   0.510172E-16
   LPB:    3  -0.221518696757979E+00   0.321793157306660E-02   0.213956E-01   0.790539E-01   0.257712E+03   0.396084E-16
   LPB:    4  -0.221516213862383E+00   0.200391283954316E-02   0.267775E-01   0.211816E+00   0.363798E+03   0.314773E-16
   LPB:    5  -0.221515297651103E+00   0.174043297618553E-02   0.283185E-01   0.348929E+00   0.319348E+03   0.324262E-16
   LPB:    6  -0.221514887815262E+00   0.192139873077933E-02   0.303153E-01   0.417853E+00   0.229194E+03   0.329892E-16
   LPB:    7  -0.221514706804845E+00   0.180047005877400E-02   0.257445E-01   0.520081E+00   0.152720E+03   0.617309E-16
   LPB:    8  -0.221514595455634E+00   0.792668336522601E-03   0.244304E-01   0.648244E+00   0.188945E+03   0.843177E-16
   LPB:    9  -0.221514522025018E+00   0.293985847503332E-03   0.329179E-01   0.489427E+00   0.320854E+03   0.115577E-15
   LPB:   10  -0.221514478855420E+00   0.167675552697201E-03   0.360856E-01   0.536289E+00   0.460038E+03   0.142162E-15
  Finished solving LPB equations
  A_corr:   -0.144904973936140     
 End minimization
 Ecorr=   1981.63686733536     
 A_corr= -0.144904973936140     
 Ecorr_band=  -1981.78177230930     
 End Solvation calculations
RMM:   2    -0.181957066733E+03   -0.59364E-02   -0.10329E-03 10773   0.617E-02    0.900E-01
 Begin Solvation calculations
  rms_SCF =   2.108268892943513E-003 tol =   2.108268892943513E-004
 Begin minimization
 Creating dielectric and ionic cavities
  area:      145.935801416714     
  volume:    768.547959758326     
  Acav:     7.661629574377510E-002
  Solving linear dielectric/ionic screening model
        iter                  A_solv                     rms
   LPB:       -0.222271390023527E+00   0.610329609382188E+00
   LPB:    0  -0.222268982169328E+00   0.609403520526792E+00   0.378788E-03   0.000000E+00   0.335635E+02   0.127135E-01
   LPB:    1  -0.221310341474868E+00   0.578983560239407E-01   0.848966E-02   0.000000E+00   0.715769E+02   0.600043E-18
   LPB:    2  -0.221229749091158E+00   0.905770574838414E-02   0.154258E-01   0.462681E-01   0.133597E+03   0.108811E-15
   LPB:    3  -0.221221170810044E+00   0.309378366645728E-02   0.213972E-01   0.767354E-01   0.245841E+03   0.994632E-16
   LPB:    4  -0.221218935909417E+00   0.157937198660070E-02   0.268579E-01   0.207560E+00   0.377337E+03   0.280644E-16
   LPB:    5  -0.221218091199708E+00   0.926438249477809E-03   0.288155E-01   0.352287E+00   0.395718E+03   0.231867E-16
   LPB:    6  -0.221217705984320E+00   0.486729785706896E-03   0.320682E-01   0.409777E+00   0.422805E+03   0.233410E-16
   LPB:    7  -0.221217533397930E+00   0.593581019085915E-03   0.336690E-01   0.426724E+00   0.479988E+03   0.248204E-16
   LPB:    8  -0.221217453190958E+00   0.883483800501959E-03   0.319340E-01   0.489984E+00   0.265644E+03   0.253098E-16
   LPB:    9  -0.221217413799194E+00   0.879708515857852E-03   0.259937E-01   0.603362E+00   0.170568E+03   0.245231E-16
   LPB:   10  -0.221217388034294E+00   0.385389301694071E-03   0.255636E-01   0.665073E+00   0.169438E+03   0.150077E-16
   LPB:   11  -0.221217370275364E+00   0.154297824043967E-03   0.327704E-01   0.537687E+00   0.465395E+03   0.108758E-16
  Finished solving LPB equations
  A_corr:   -0.144601074531589     
 End minimization
 Ecorr=   1981.74245878027     
 A_corr= -0.144601074531589     
 Ecorr_band=  -1981.88705985480     
 End Solvation calculations
RMM:   3    -0.181951229590E+03    0.58371E-02   -0.63768E-04 10216   0.469E-02    0.606E-02
 Begin Solvation calculations
  rms_SCF =   2.108268892943513E-003 tol =   2.108268892943513E-004
 Begin minimization
 Creating dielectric and ionic cavities
  area:      145.932919869084     
  volume:    768.554784360074     
  Acav:     7.661478293126915E-002
  Solving linear dielectric/ionic screening model
        iter                  A_solv                     rms
   LPB:       -0.221207195026315E+00   0.254230812401884E-01
   LPB:    0  -0.221206644563623E+00   0.215464253807382E-01   0.181112E-03   0.000000E+00   0.335632E+02   0.607870E-02
   LPB:    1  -0.221205160845821E+00   0.217684931058403E-02   0.903194E-02   0.000000E+00   0.762176E+02  -0.242382E-19
   LPB:    2  -0.221205002751710E+00   0.851618098214245E-03   0.145635E-01   0.660816E-01   0.282772E+03  -0.194948E-16
   LPB:    3  -0.221204966888906E+00   0.779912226949064E-03   0.238758E-01   0.138368E+00   0.125858E+03  -0.221105E-16
   LPB:    4  -0.221204950967953E+00   0.444769162394721E-03   0.236538E-01   0.448106E+00   0.172823E+03  -0.201743E-16
   LPB:    5  -0.221204939204989E+00   0.169732418999461E-03   0.285431E-01   0.612277E+00   0.595752E+03  -0.154175E-16
  Finished solving LPB equations
  A_corr:   -0.144590156273720     
 End minimization
 Ecorr=   1981.69756193425     
 A_corr= -0.144590156273720     
 Ecorr_band=  -1981.84215209053     
 End Solvation calculations
RMM:   4    -0.181951117528E+03    0.11206E-03   -0.54822E-05  5962   0.172E-02    0.325E-02
 Begin Solvation calculations
  rms_SCF =   2.108268892943513E-003 tol =   2.108268892943513E-004
 Begin minimization
 Creating dielectric and ionic cavities
  area:      145.934334926624     
  volume:    768.548786611807     
  Acav:     7.661552583647771E-002
  Solving linear dielectric/ionic screening model
        iter                  A_solv                     rms
   LPB:       -0.221240397167627E+00   0.169400864540569E-01
   LPB:    0  -0.221239635457402E+00   0.551640243168599E-02  -0.213048E-03   0.000000E+00   0.335635E+02  -0.715061E-02
   LPB:    1  -0.221239447229889E+00   0.807989088007439E-03   0.111108E-01   0.000000E+00   0.610224E+02  -0.166764E-18
   LPB:    2  -0.221239424489898E+00   0.167197637768085E-03   0.179000E-01   0.749892E-01   0.266524E+03  -0.199270E-16
   LPB:    3  -0.221239418277058E+00   0.148953091109390E-03   0.287777E-01   0.169940E+00   0.451924E+03  -0.201958E-16
   LPB:    4  -0.221239413600286E+00   0.361362335072790E-03   0.347376E-01   0.623608E+00   0.417260E+03  -0.202744E-16
   LPB:    5  -0.221239410607869E+00   0.431855544209568E-03   0.225037E-01   0.987694E+00   0.151611E+03  -0.208701E-16
   LPB:    6  -0.221239407398759E+00   0.123309565423068E-03   0.265216E-01   0.909949E+00   0.229718E+03  -0.214064E-16
  Finished solving LPB equations
  A_corr:   -0.144623881562282     
 End minimization
 Ecorr=   1981.73869028055     
 A_corr= -0.144623881562282     
 Ecorr_band=  -1981.88331416212     
 End Solvation calculations
RMM:   5    -0.181951112593E+03    0.49346E-05   -0.15275E-05  5719   0.819E-03
 Begin Solvation calculations
  rms_SCF =   2.108268892943513E-003 tol =   2.108268892943513E-004
 Begin minimization
 Creating dielectric and ionic cavities
  area:      145.933822802983     
  volume:    768.552254543207     
  Acav:     7.661525697156597E-002
  Solving linear dielectric/ionic screening model
        iter                  A_solv                     rms
   LPB:       -0.221258485777580E+00   0.535186223633443E-02
   LPB:    0  -0.221258402076737E+00   0.188588871570601E-02   0.706232E-04   0.000000E+00   0.335633E+02   0.237035E-02
   LPB:    1  -0.221258322895241E+00   0.103015911443429E-02   0.136369E-01   0.000000E+00   0.172853E+03  -0.103637E-18
   LPB:    2  -0.221258308061251E+00   0.276957178405815E-03   0.167790E-01   0.152259E+00   0.978132E+02   0.553511E-19
   LPB:    3  -0.221258304245485E+00   0.293850284284564E-03   0.231040E-01   0.186811E+00   0.245563E+03   0.200682E-17
   LPB:    4  -0.221258302360349E+00   0.284005840482137E-03   0.233255E-01   0.489347E+00   0.156706E+03   0.319357E-17
   LPB:    5  -0.221258300764937E+00   0.116018760471459E-03   0.232364E-01   0.849557E+00   0.286464E+03   0.358116E-17
  Finished solving LPB equations
  A_corr:   -0.144643043793371     
 End minimization
 Ecorr=   1981.71469801500     
 A_corr= -0.144643043793371     
 Ecorr_band=  -1981.85934105880     
 End Solvation calculations
  60 F= -.18195111E+03 E0= -.18194765E+03  d E =0.162697E-03
quench:  g(F)=  0.000E+00 g(S)=  0.000E+00 dE (1.order)= 0.000E+00
 bond charge predicted
       N       E                     dE             d eps       ncg     rms          rms(c)
 Begin Solvation calculations
  rms_SCF =   2.108268892943513E-003 tol =   2.108268892943513E-004
 Begin minimization
 Creating dielectric and ionic cavities
  area:      145.931470011833     
  volume:    768.551837138220     
  Acav:     7.661402175621233E-002
  Solving linear dielectric/ionic screening model
        iter                  A_solv                     rms
   LPB:       -0.221291326022000E+00   0.516516079907062E-03
   LPB:    0  -0.221291326021935E+00   0.516693560411888E-03   0.622543E-07   0.000000E+00   0.335633E+02   0.208946E-05
   LPB:    1  -0.221265573826280E+00   0.250351404393244E-03   0.158514E-01   0.000000E+00   0.764879E+06  -0.123259E-21
   LPB:    2  -0.221262529979818E+00   0.378839706541745E-03   0.276436E-01   0.677768E-01   0.119007E+06   0.456661E-18
   LPB:    3  -0.221261531931772E+00   0.100597543123250E-02   0.328070E-01   0.276285E+00   0.158029E+05   0.157585E-17
   LPB:    4  -0.221261113669683E+00   0.273752344458163E-02   0.333258E-01   0.412556E+00   0.962706E+03   0.211987E-17
   LPB:    5  -0.221260951868390E+00   0.286874792491220E-02   0.199292E-01   0.646880E+00   0.170031E+03   0.337987E-17
   LPB:    6  -0.221260810975345E+00   0.735601216768044E-03   0.227238E-01   0.763689E+00   0.369255E+03   0.383674E-17
   LPB:    7  -0.221260715930800E+00   0.629244785461384E-03   0.361488E-01   0.424057E+00   0.141150E+04   0.229345E-17
   LPB:    8  -0.221260665568524E+00   0.103169221481027E-02   0.317099E-01   0.604055E+00   0.289442E+03   0.783568E-19
   LPB:    9  -0.221260635162570E+00   0.617903428969639E-03   0.237560E-01   0.805891E+00   0.170171E+03   0.139508E-17
   LPB:   10  -0.221260610274717E+00   0.189505812837509E-03   0.324159E-01   0.599850E+00   0.568965E+03   0.795568E-17
  Finished solving LPB equations
  A_corr:   -0.144646588518505     
 End minimization
 Ecorr=   1981.71417810846     
 A_corr= -0.144646588518505     
 Ecorr_band=  -1981.85882469698     
 End Solvation calculations
DAV:   1    -0.181951015485E+03    0.10204E-03   -0.20842E-03 11271   0.850E-02    0.143E-02
 Begin Solvation calculations
  rms_SCF =   2.108268892943513E-003 tol =   2.108268892943513E-004
 Begin minimization
 Creating dielectric and ionic cavities
  area:      145.936140240574     
  volume:    768.550658975138     
  Acav:     7.661647362630153E-002
  Solving linear dielectric/ionic screening model
        iter                  A_solv                     rms
   LPB:       -0.221244076882926E+00   0.128303153957279E-01
   LPB:    0  -0.221243894750547E+00   0.102960778996347E-01  -0.104178E-03   0.000000E+00   0.335634E+02  -0.349656E-02
   LPB:    1  -0.221243431217137E+00   0.197816379044774E-02   0.992695E-02   0.000000E+00   0.852978E+02  -0.104555E-18
   LPB:    2  -0.221243327848783E+00   0.774072982784936E-03   0.169654E-01   0.130484E+00   0.385632E+03   0.547831E-17
   LPB:    3  -0.221243304235604E+00   0.703310520110296E-03   0.217829E-01   0.177916E+00   0.114550E+03   0.694210E-17
   LPB:    4  -0.221243291372281E+00   0.356871398281763E-03   0.249096E-01   0.476374E+00   0.180774E+03   0.196051E-16
   LPB:    5  -0.221243283106351E+00   0.180734409576259E-03   0.289222E-01   0.553444E+00   0.575483E+03   0.300319E-16
  Finished solving LPB equations
  A_corr:   -0.144626809480050     
 End minimization
 Ecorr=   1981.74362805436     
 A_corr= -0.144626809480050     
 Ecorr_band=  -1981.88825486384     
 End Solvation calculations
RMM:   2    -0.181951035742E+03   -0.20257E-04   -0.77716E-05  5800   0.172E-02
 Begin Solvation calculations
  rms_SCF =   2.108268892943513E-003 tol =   2.108268892943513E-004
 Begin minimization
 Creating dielectric and ionic cavities
  area:      145.934317362941     
  volume:    768.556073347475     
  Acav:     7.661551661554380E-002
  Solving linear dielectric/ionic screening model
        iter                  A_solv                     rms
   LPB:       -0.221253313168386E+00   0.361415733877106E-01
   LPB:    0  -0.221252964092379E+00   0.346524130498762E-01   0.144226E-03   0.000000E+00   0.335631E+02   0.484068E-02
   LPB:    1  -0.221249820434449E+00   0.320308171712222E-02   0.852067E-02   0.000000E+00   0.718195E+02   0.359799E-18
   LPB:    2  -0.221249566764149E+00   0.838694164871795E-03   0.150615E-01   0.456499E-01   0.145785E+03   0.703012E-17
   LPB:    3  -0.221249535350409E+00   0.499486674936511E-03   0.210881E-01   0.884464E-01   0.118658E+03   0.847855E-17
   LPB:    4  -0.221249526004781E+00   0.336546231568895E-03   0.225217E-01   0.278564E+00   0.195211E+03   0.272856E-17
   LPB:    5  -0.221249520798801E+00   0.184016296135934E-03   0.254889E-01   0.492204E+00   0.236076E+03  -0.485888E-18
  Finished solving LPB equations
  A_corr:   -0.144634004183258     
 End minimization
 Ecorr=   1981.69819831347     
 A_corr= -0.144634004183258     
 Ecorr_band=  -1981.84283231766     
 End Solvation calculations
  61 F= -.18195104E+03 E0= -.18194757E+03  d E =0.768509E-04
quench:  g(F)=  0.000E+00 g(S)=  0.000E+00 dE (1.order)= 0.000E+00
 reached required accuracy - stopping structural energy minimisation
