 vasp.5.4.4.18Apr17-6-g9f103f2a35 (build Feb 06 2024 13:54:16) complex          
  
 POSCAR found type information on POSCAR  Pd N  O 
 05/POSCAR found :  3 types and      40 ions
 scaLAPACK will be used

 ----------------------------------------------------------------------------- 
|                                                                             |
|  ADVICE TO THIS USER RUNNING 'VASP/VAMP'   (HEAR YOUR MASTER'S VOICE ...):  |
|                                                                             |
|      You enforced a specific xc-type in the INCAR file,                     |
|      a different type was found on the POTCAR file                          |
|          I HOPE YOU KNOW, WHAT YOU ARE  DOING                               |
|                                                                             |
 ----------------------------------------------------------------------------- 

 LDA part: xc-table for Pade appr. of Perdew
 POSCAR found type information on POSCAR  Pd N  O 
 00/POSCAR found :  3 types and      40 ions
 POSCAR found type information on POSCAR  Pd N  O 
 06/POSCAR found :  3 types and      40 ions
 Jacobian:    21.0960049830057     
 POSCAR, INCAR and KPOINTS ok, starting setup
 FFT: planning ...
 WAVECAR not read
 entering main loop
       N       E                     dE             d eps       ncg     rms          rms(c)
  Solvation turned off during non-self-consistent phase (first NELMDL steps)
DAV:   1     0.266408838834E+04    0.26641E+04   -0.17928E+05 11097   0.149E+03
DAV:   2    -0.113373842332E+02   -0.26754E+04   -0.25063E+04 12273   0.321E+02
DAV:   3    -0.184329878168E+03   -0.17299E+03   -0.15572E+03 13023   0.727E+01
DAV:   4    -0.191544790282E+03   -0.72149E+01   -0.69156E+01 12924   0.144E+01
DAV:   5    -0.191750124458E+03   -0.20533E+00   -0.20251E+00 12933   0.256E+00    0.378E+01
 Begin Solvation calculations
  rms_SCF =    2.26598140058068      tol =   0.226598140058068     
 Begin minimization
 Creating dielectric and ionic cavities
  area:      176.335508681377     
  volume:    804.553644020777     
  Acav:     9.257614205772308E-002
  Solving linear dielectric/ionic screening model
        iter                  A_solv                     rms
   LPB:       -0.615664089486067E+03   0.347348107150479E+03
   LPB:    0  -0.235857946062168E+01   0.100725184862628E+02  -0.620333E+01   0.000000E+00   0.318755E+02  -0.197734E+03
   LPB:    1  -0.617648417620671E+00   0.469693895903571E+01   0.154543E-01   0.000000E+00   0.967066E+02  -0.393984E-15
   LPB:    2  -0.381157415924122E+00   0.221592239998544E+01   0.147815E-01   0.142025E+00   0.107067E+03  -0.444166E-14
   LPB:    3  -0.254350136570224E+00   0.693426194531803E+00   0.217001E-01   0.365246E+00   0.146722E+03  -0.110295E-13
   LPB:    4  -0.198578002214617E+00   0.647977442905198E+00   0.299966E-01   0.318173E+00   0.727601E+02  -0.154746E-13
   LPB:    5  -0.173562247843847E+00   0.746904849624089E+00   0.249312E-01   0.539666E+00   0.376436E+03  -0.159774E-13
   LPB:    6  -0.157106060157957E+00   0.233844631682693E+00   0.265771E-01   0.617095E+00   0.511652E+02  -0.842702E-14
   LPB:    7  -0.146636279743234E+00   0.115272653799192E+00   0.336822E-01   0.502013E+00   0.150885E+03  -0.165311E-14
  Finished solving LPB equations
  A_corr:   -5.406013768551082E-002
 End minimization
 Ecorr=   2215.43615918393     
 A_corr= -5.406013768551082E-002
 Ecorr_band=  -2215.49021932161     
 End Solvation calculations
RMM:   6    -0.186076203104E+03    0.56739E+01   -0.41570E+01 11089   0.137E+01    0.255E+01
 Begin Solvation calculations
  rms_SCF =    2.26598140058068      tol =   0.226598140058068     
 Begin minimization
 Creating dielectric and ionic cavities
  area:      173.787431463661     
  volume:    815.959393451285     
  Acav:     9.123840151842182E-002
  Solving linear dielectric/ionic screening model
        iter                  A_solv                     rms
   LPB:       -0.557005815903753E+01   0.400673643857422E+02
   LPB:    0  -0.398731007162424E+01   0.334419221030168E+02   0.317809E+00   0.000000E+00   0.313408E+02   0.996037E+01
   LPB:    1  -0.678578505813116E+00   0.365115991941308E+01   0.914208E-02   0.000000E+00   0.692162E+02   0.618596E-15
   LPB:    2  -0.289363361098540E+00   0.816026957399075E+00   0.176018E-01   0.610965E-01   0.118412E+03   0.622370E-14
   LPB:    3  -0.226702243358011E+00   0.541980983582100E+00   0.209603E-01   0.135197E+00   0.294373E+03   0.537439E-14
   LPB:    4  -0.205097916312321E+00   0.601761573043655E+00   0.243927E-01   0.296265E+00   0.181860E+03   0.554149E-14
   LPB:    5  -0.194991944391954E+00   0.262545672502387E+00   0.243365E-01   0.468856E+00   0.100143E+03   0.968319E-14
   LPB:    6  -0.189144701578083E+00   0.137024129224927E+00   0.302258E-01   0.465857E+00   0.517349E+03   0.112199E-13
  Finished solving LPB equations
  A_corr:   -9.790630005966157E-002
 End minimization
 Ecorr=   2141.26069795462     
 A_corr= -9.790630005966157E-002
 Ecorr_band=  -2141.35860425468     
 End Solvation calculations
RMM:   7    -0.203196826239E+03   -0.17121E+02   -0.18108E+01 11104   0.760E+00    0.380E+01
 Begin Solvation calculations
  rms_SCF =    2.26598140058068      tol =   0.226598140058068     
 Begin minimization
 Creating dielectric and ionic cavities
  area:      188.540611757077     
  volume:    816.545849575524     
  Acav:     9.898382117246551E-002
  Solving linear dielectric/ionic screening model
        iter                  A_solv                     rms
   LPB:       -0.156303507303848E+02   0.712564543939057E+02
   LPB:    0  -0.156282349695327E+02   0.712717679773337E+02   0.116248E-01   0.000000E+00   0.313133E+02   0.364009E+00
   LPB:    1  -0.157392998983135E+01   0.681936739502981E+01   0.890128E-02   0.000000E+00   0.697704E+02  -0.188971E-16
   LPB:    2  -0.424109995758508E+00   0.135063682627513E+01   0.163784E-01   0.444633E-01   0.120071E+03  -0.725077E-14
   LPB:    3  -0.248058470841981E+00   0.422346179600991E+00   0.227104E-01   0.110422E+00   0.169730E+03  -0.637033E-14
   LPB:    4  -0.200569019264856E+00   0.224488174664666E+00   0.277353E-01   0.220877E+00   0.258350E+03  -0.510554E-14
  Finished solving LPB equations
  A_corr:   -0.101585198092391     
 End minimization
 Ecorr=   2099.27533065767     
 A_corr= -0.101585198092391     
 Ecorr_band=  -2099.37691585576     
 End Solvation calculations
RMM:   8    -0.200161702515E+03    0.30351E+01   -0.15728E+01 11090   0.689E+00    0.357E+01
 Begin Solvation calculations
  rms_SCF =    2.26598140058068      tol =   0.226598140058068     
 Begin minimization
 Creating dielectric and ionic cavities
  area:      230.317684901083     
  volume:    809.911925812267     
  Acav:     0.120916784573069     
  Solving linear dielectric/ionic screening model
        iter                  A_solv                     rms
   LPB:       -0.115464565706367E+02   0.601378503453253E+02
   LPB:    0  -0.115313601107055E+02   0.600360597941948E+02  -0.308988E-01   0.000000E+00   0.316243E+02  -0.977154E+00
   LPB:    1  -0.119044726790217E+01   0.523313792192714E+01   0.896619E-02   0.000000E+00   0.712727E+02  -0.366254E-16
   LPB:    2  -0.377415124297885E+00   0.886885301093426E+00   0.150307E-01   0.469003E-01   0.174426E+03  -0.851902E-15
   LPB:    3  -0.263171709806471E+00   0.476355905110721E+00   0.227492E-01   0.928408E-01   0.328063E+03   0.646883E-14
   LPB:    4  -0.238321316140100E+00   0.287802023797873E+00   0.247407E-01   0.200012E+00   0.208074E+03   0.579967E-14
   LPB:    5  -0.228595881628150E+00   0.394354470627849E+00   0.261166E-01   0.370741E+00   0.428751E+03   0.242233E-14
   LPB:    6  -0.223262935653580E+00   0.221456286290096E+00   0.265039E-01   0.540337E+00   0.557247E+02   0.900714E-15
  Finished solving LPB equations
  A_corr:   -0.102346151080511     
 End minimization
 Ecorr=   2068.91619158473     
 A_corr= -0.102346151080511     
 Ecorr_band=  -2069.01853773581     
 End Solvation calculations
RMM:   9    -0.193868693577E+03    0.62930E+01   -0.12617E+01 11097   0.628E+00    0.261E+01
 Begin Solvation calculations
  rms_SCF =    2.26598140058068      tol =   0.226598140058068     
 Begin minimization
 Creating dielectric and ionic cavities
  area:      162.444843783466     
  volume:    801.884999070868     
  Acav:     8.528354298631982E-002
  Solving linear dielectric/ionic screening model
        iter                  A_solv                     rms
   LPB:       -0.586102680145188E+00   0.105670615467339E+02
   LPB:    0  -0.434825989117783E+00   0.712998617412792E+01  -0.972349E-01   0.000000E+00   0.320006E+02  -0.311157E+01
   LPB:    1  -0.263154505106328E+00   0.969957472454491E+00   0.946675E-02   0.000000E+00   0.644188E+02  -0.205087E-15
   LPB:    2  -0.240943989410770E+00   0.394314399697696E+00   0.167212E-01   0.732476E-01   0.903998E+02   0.146778E-13
   LPB:    3  -0.235017762257098E+00   0.364171171199559E+00   0.219470E-01   0.203288E+00   0.153485E+03   0.139323E-13
   LPB:    4  -0.230820781887652E+00   0.158820691437836E+00   0.290464E-01   0.535108E+00   0.678260E+02   0.121759E-13
  Finished solving LPB equations
  A_corr:   -0.145537238901332     
 End minimization
 Ecorr=   2071.18603956621     
 A_corr= -0.145537238901332     
 Ecorr_band=  -2071.33157680511     
 End Solvation calculations
RMM:  10    -0.185247228590E+03    0.86215E+01   -0.70051E+00 11097   0.508E+00    0.155E+01
 Begin Solvation calculations
  rms_SCF =    2.26598140058068      tol =   0.226598140058068     
 Begin minimization
 Creating dielectric and ionic cavities
  area:      175.870951693683     
  volume:    801.426070213535     
  Acav:     9.233224963918379E-002
  Solving linear dielectric/ionic screening model
        iter                  A_solv                     rms
   LPB:       -0.329731135666252E+00   0.496522518854731E+01
   LPB:    0  -0.263248750684233E+00   0.290487912695798E+01   0.644382E-01   0.000000E+00   0.320221E+02   0.206345E+01
   LPB:    1  -0.233873674177798E+00   0.316009614449280E+00   0.945541E-02   0.000000E+00   0.759168E+02  -0.146171E-15
   LPB:    2  -0.228867995425111E+00   0.213340575648113E+00   0.194309E-01   0.829226E-01   0.263777E+03   0.216164E-14
   LPB:    3  -0.226011374297441E+00   0.243747951111453E+00   0.314798E-01   0.352248E+00   0.772650E+02   0.220483E-14
   LPB:    4  -0.223471627026506E+00   0.216266028019668E+00   0.292671E-01   0.956293E+00   0.247897E+03   0.330966E-14
  Finished solving LPB equations
  A_corr:   -0.131139377387323     
 End minimization
 Ecorr=   2044.23846667473     
 A_corr= -0.131139377387323     
 Ecorr_band=  -2044.36960605212     
 End Solvation calculations
RMM:  11    -0.183914718013E+03    0.13325E+01   -0.41280E+00 11093   0.382E+00    0.148E+01
 Begin Solvation calculations
  rms_SCF =    2.26598140058068      tol =   0.226598140058068     
 Begin minimization
 Creating dielectric and ionic cavities
  area:      171.984474651126     
  volume:    798.195325936108     
  Acav:     9.029184919184111E-002
  Solving linear dielectric/ionic screening model
        iter                  A_solv                     rms
   LPB:       -0.255713503754946E+00   0.183067702931994E+01
   LPB:    0  -0.248910498708504E+00   0.192461612773481E+01   0.205644E-01   0.000000E+00   0.321736E+02   0.661630E+00
   LPB:    1  -0.228654223598433E+00   0.412369877862683E+00   0.109510E-01   0.000000E+00   0.797156E+02   0.459809E-17
   LPB:    2  -0.224671004238006E+00   0.163542384284532E+00   0.165231E-01   0.130327E+00   0.397109E+03   0.286823E-14
   LPB:    3  -0.222403447946825E+00   0.244394934777427E+00   0.293340E-01   0.320660E+00   0.283207E+03   0.350476E-14
   LPB:    4  -0.220662549734734E+00   0.175514762259849E+00   0.309343E-01   0.728025E+00   0.611366E+02   0.299845E-14
  Finished solving LPB equations
  A_corr:   -0.130370700542893     
 End minimization
 Ecorr=   2027.27066863076     
 A_corr= -0.130370700542893     
 Ecorr_band=  -2027.40103933130     
 End Solvation calculations
RMM:  12    -0.182330981733E+03    0.15837E+01   -0.20001E+00 11095   0.263E+00    0.810E+00
 Begin Solvation calculations
  rms_SCF =    2.26598140058068      tol =   0.226598140058068     
 Begin minimization
 Creating dielectric and ionic cavities
  area:      178.692138142259     
  volume:    796.929286536581     
  Acav:     9.381337252468622E-002
  Solving linear dielectric/ionic screening model
        iter                  A_solv                     rms
   LPB:       -0.232572063206114E+00   0.516449408036904E+00
   LPB:    0  -0.232567735201631E+00   0.503195164828061E+00  -0.518214E-03   0.000000E+00   0.322329E+02  -0.167035E-01
   LPB:    1  -0.225897289299365E+00   0.388695713334667E+00   0.152006E-01   0.000000E+00   0.200193E+03   0.249982E-18
   LPB:    2  -0.224419728099596E+00   0.180457380795920E+00   0.165332E-01   0.203655E+00   0.854767E+02  -0.339318E-15
   LPB:    3  -0.223306715147654E+00   0.542231357383586E-01   0.259372E-01   0.480162E+00   0.172245E+03  -0.177658E-15
   LPB:    4  -0.222086127222372E+00   0.552327950278681E-01   0.504684E-01   0.563601E+00   0.115515E+03  -0.290412E-15
  Finished solving LPB equations
  A_corr:   -0.128272754697686     
 End minimization
 Ecorr=   2019.79338757213     
 A_corr= -0.128272754697686     
 Ecorr_band=  -2019.92166032683     
 End Solvation calculations
RMM:  13    -0.181799105845E+03    0.53188E+00   -0.44905E-01 11095   0.129E+00    0.430E+00
 Begin Solvation calculations
  rms_SCF =    2.26598140058068      tol =   0.226598140058068     
 Begin minimization
 Creating dielectric and ionic cavities
  area:      172.941006918735     
  volume:    794.540563654040     
  Acav:     9.079402863233609E-002
  Solving linear dielectric/ionic screening model
        iter                  A_solv                     rms
   LPB:       -0.246551042019813E+00   0.134347088834581E+01
   LPB:    0  -0.245210171737440E+00   0.954517972381658E+00  -0.910553E-02   0.000000E+00   0.323449E+02  -0.294518E+00
   LPB:    1  -0.232297320336636E+00   0.489613006298513E+00   0.136064E-01   0.000000E+00   0.114831E+03   0.253134E-16
   LPB:    2  -0.230504931087067E+00   0.104599611838809E+00   0.132328E-01   0.142725E+00   0.113125E+03   0.185319E-14
   LPB:    3  -0.229853332407758E+00   0.106019465742418E+00   0.243502E-01   0.197559E+00   0.265056E+03   0.203862E-14
   LPB:    4  -0.229315004162857E+00   0.123290815033528E+00   0.304458E-01   0.660758E+00   0.578489E+02   0.214859E-14
  Finished solving LPB equations
  A_corr:   -0.138520975530521     
 End minimization
 Ecorr=   2014.67441982257     
 A_corr= -0.138520975530521     
 Ecorr_band=  -2014.81294079810     
 End Solvation calculations
RMM:  14    -0.181860489730E+03   -0.61384E-01   -0.15151E-01 11098   0.742E-01    0.487E+00
 Begin Solvation calculations
  rms_SCF =    2.26598140058068      tol =   0.226598140058068     
 Begin minimization
 Creating dielectric and ionic cavities
  area:      159.854109451198     
  volume:    792.508467531708     
  Acav:     8.392340746187887E-002
  Solving linear dielectric/ionic screening model
        iter                  A_solv                     rms
   LPB:       -0.241908959893463E+00   0.181984277274784E+01
   LPB:    0  -0.232947748159849E+00   0.107545566146830E+01   0.235048E-01   0.000000E+00   0.324402E+02   0.762500E+00
   LPB:    1  -0.226829237872806E+00   0.278723723110604E+00   0.121453E-01   0.000000E+00   0.693871E+02  -0.463129E-16
   LPB:    2  -0.225447814064316E+00   0.714212109406335E-01   0.147748E-01   0.185595E+00   0.304691E+03   0.124504E-14
   LPB:    3  -0.224838553334298E+00   0.476520749933915E-01   0.299703E-01   0.217424E+00   0.310526E+03   0.160743E-14
   LPB:    4  -0.224384968279227E+00   0.102832136289969E+00   0.376891E-01   0.592013E+00   0.444621E+03   0.297162E-14
  Finished solving LPB equations
  A_corr:   -0.140461560817348     
 End minimization
 Ecorr=   2007.51449062400     
 A_corr= -0.140461560817348     
 Ecorr_band=  -2007.65495218482     
 End Solvation calculations
RMM:  15    -0.181761755433E+03    0.98734E-01   -0.12113E-01 11096   0.667E-01    0.354E+00
 Begin Solvation calculations
  rms_SCF =    1.75428656019699      tol =   0.175428656019699     
 Begin minimization
 Creating dielectric and ionic cavities
  area:      164.084130607760     
  volume:    790.771280844341     
  Acav:     8.614416856907399E-002
  Solving linear dielectric/ionic screening model
        iter                  A_solv                     rms
   LPB:       -0.236813891834305E+00   0.130426432910089E+01
   LPB:    0  -0.235447192127428E+00   0.916007717057275E+00  -0.916781E-02   0.000000E+00   0.325216E+02  -0.298152E+00
   LPB:    1  -0.229598608611570E+00   0.269875999759826E+00   0.107704E-01   0.000000E+00   0.902333E+02   0.109363E-16
   LPB:    2  -0.228774122883545E+00   0.806454039808562E-01   0.155413E-01   0.976961E-01   0.116613E+03  -0.227351E-16
   LPB:    3  -0.228478454793466E+00   0.838853291622524E-01   0.223637E-01   0.249209E+00   0.260073E+03  -0.628738E-16
   LPB:    4  -0.228174272594654E+00   0.760664430428878E-01   0.325473E-01   0.706900E+00   0.639937E+02   0.132386E-15
  Finished solving LPB equations
  A_corr:   -0.142030104025580     
 End minimization
 Ecorr=   2004.56097449519     
 A_corr= -0.142030104025580     
 Ecorr_band=  -2004.70300459921     
 End Solvation calculations
RMM:  16    -0.181721760192E+03    0.39995E-01   -0.74630E-02 11096   0.520E-01    0.324E+00
 Begin Solvation calculations
  rms_SCF =    1.75428656019699      tol =   0.175428656019699     
 Begin minimization
 Creating dielectric and ionic cavities
  area:      157.052344021022     
  volume:    787.739142859630     
  Acav:     8.245248061103676E-002
  Solving linear dielectric/ionic screening model
        iter                  A_solv                     rms
   LPB:       -0.252823488077832E+00   0.149847089746119E+01
   LPB:    0  -0.244419451810266E+00   0.109676647086982E+01   0.226843E-01   0.000000E+00   0.326638E+02   0.740956E+00
   LPB:    1  -0.231603232709306E+00   0.363932363984051E+00   0.151272E-01   0.000000E+00   0.919734E+02   0.435014E-16
   LPB:    2  -0.229782045232133E+00   0.161303429389815E+00   0.129340E-01   0.166195E+00   0.249191E+03  -0.476111E-15
   LPB:    3  -0.229069626788664E+00   0.758572934336326E-01   0.225761E-01   0.224113E+00   0.138130E+03  -0.886371E-15
   LPB:    4  -0.228648666463750E+00   0.815992908802813E-01   0.305360E-01   0.436859E+00   0.219678E+03  -0.102538E-14
  Finished solving LPB equations
  A_corr:   -0.146196185852713     
 End minimization
 Ecorr=   1993.92613497386     
 A_corr= -0.146196185852713     
 Ecorr_band=  -1994.07233115971     
 End Solvation calculations
RMM:  17    -0.181665882161E+03    0.55878E-01   -0.66320E-02 11096   0.491E-01    0.258E+00
 Begin Solvation calculations
  rms_SCF =    1.72445343078165      tol =   0.172445343078165     
 Begin minimization
 Creating dielectric and ionic cavities
  area:      160.361782874204     
  volume:    785.585422548529     
  Acav:     8.418993600895687E-002
  Solving linear dielectric/ionic screening model
        iter                  A_solv                     rms
   LPB:       -0.243086740116553E+00   0.647053244310539E+00
   LPB:    0  -0.243085177071129E+00   0.659153600138568E+00   0.308885E-03   0.000000E+00   0.327647E+02   0.101206E-01
   LPB:    1  -0.234951567494590E+00   0.310268236804772E+00   0.147186E-01   0.000000E+00   0.129388E+03   0.439420E-18
   LPB:    2  -0.233882508624269E+00   0.986302805581131E-01   0.151833E-01   0.127414E+00   0.934400E+02   0.287316E-14
   LPB:    3  -0.233429322539563E+00   0.942273397973142E-01   0.268410E-01   0.239796E+00   0.190545E+03   0.354260E-14
   LPB:    4  -0.233069418235448E+00   0.123374789856646E+00   0.263296E-01   0.809591E+00   0.920932E+02   0.373420E-14
  Finished solving LPB equations
  A_corr:   -0.148879482226491     
 End minimization
 Ecorr=   1988.82379631197     
 A_corr= -0.148879482226491     
 Ecorr_band=  -1988.97267579420     
 End Solvation calculations
RMM:  18    -0.181633498266E+03    0.32384E-01   -0.40625E-02 11096   0.377E-01    0.180E+00
 Begin Solvation calculations
  rms_SCF =    1.27244415493777      tol =   0.127244415493777     
 Begin minimization
 Creating dielectric and ionic cavities
  area:      157.658183463208     
  volume:    783.556427413373     
  Acav:     8.277054631818444E-002
  Solving linear dielectric/ionic screening model
        iter                  A_solv                     rms
   LPB:       -0.252390059450168E+00   0.554996938821670E+00
   LPB:    0  -0.251959420536471E+00   0.677105504515526E+00   0.511963E-02   0.000000E+00   0.328599E+02   0.168230E+00
   LPB:    1  -0.241146191835995E+00   0.357464224740324E+00   0.151911E-01   0.000000E+00   0.170343E+03  -0.115249E-16
   LPB:    2  -0.239909843219148E+00   0.126759246469653E+00   0.144247E-01   0.120412E+00   0.855338E+02   0.168663E-14
   LPB:    3  -0.239432283046146E+00   0.937529696451013E-01   0.227536E-01   0.244874E+00   0.204121E+03   0.198087E-14
   LPB:    4  -0.239065248336277E+00   0.108786305472216E+00   0.269707E-01   0.648392E+00   0.974876E+02   0.244680E-14
  Finished solving LPB equations
  A_corr:   -0.156294702018093     
 End minimization
 Ecorr=   1982.47118662549     
 A_corr= -0.156294702018093     
 Ecorr_band=  -1982.62748132751     
 End Solvation calculations
RMM:  19    -0.181613523813E+03    0.19974E-01   -0.23211E-02 11097   0.290E-01    0.983E-01
 Begin Solvation calculations
  rms_SCF =   0.584048684179570      tol =   5.840486841795704E-002
 Begin minimization
 Creating dielectric and ionic cavities
  area:      156.272481790405     
  volume:    782.743885910122     
  Acav:     8.204305293996252E-002
  Solving linear dielectric/ionic screening model
        iter                  A_solv                     rms
   LPB:       -0.245224286335554E+00   0.314897958848320E+00
   LPB:    0  -0.245208520606306E+00   0.336888904485290E+00   0.979011E-03   0.000000E+00   0.328980E+02   0.322075E-01
   LPB:    1  -0.242729697777252E+00   0.265484904860871E+00   0.131130E-01   0.000000E+00   0.229455E+03   0.671640E-18
   LPB:    2  -0.242321216527569E+00   0.573537856566419E-01   0.133748E-01   0.161562E+00   0.721808E+02   0.407684E-15
   LPB:    3  -0.242054304714408E+00   0.541192857679255E-01   0.355471E-01   0.245856E+00   0.160710E+03   0.500520E-15
   LPB:    4  -0.241702639151308E+00   0.904490176796433E-01   0.383431E-01   0.122146E+01   0.688897E+02   0.526808E-15
   LPB:    5  -0.241446325744854E+00   0.585256279974567E-01   0.254117E-01   0.109975E+01   0.217229E+03   0.595457E-15
   LPB:    6  -0.241269633137321E+00   0.195057602619671E-01   0.321796E-01   0.544376E+00   0.795779E+02   0.820317E-15
  Finished solving LPB equations
  A_corr:   -0.159226580197359     
 End minimization
 Ecorr=   1978.22370823678     
 A_corr= -0.159226580197359     
 Ecorr_band=  -1978.38293481697     
 End Solvation calculations
RMM:  20    -0.181608718256E+03    0.48056E-02   -0.76779E-03 11094   0.165E-01    0.773E-01
 Begin Solvation calculations
  rms_SCF =   0.584048684179570      tol =   5.840486841795704E-002
 Begin minimization
 Creating dielectric and ionic cavities
  area:      155.655839745551     
  volume:    782.062078215934     
  Acav:     8.171931586641407E-002
  Solving linear dielectric/ionic screening model
        iter                  A_solv                     rms
   LPB:       -0.247397502567090E+00   0.510059346940521E+00
   LPB:    0  -0.247397480403517E+00   0.510817048445465E+00   0.366893E-04   0.000000E+00   0.329299E+02   0.120818E-02
   LPB:    1  -0.243729427360276E+00   0.120981394642632E+00   0.152781E-01   0.000000E+00   0.112451E+03  -0.310087E-19
   LPB:    2  -0.243334493070729E+00   0.597903745166682E-01   0.148681E-01   0.110638E+00   0.202319E+03  -0.265124E-15
   LPB:    3  -0.243257848022684E+00   0.312169165402993E-01   0.183308E-01   0.157410E+00   0.995935E+02  -0.367158E-15
   LPB:    4  -0.243221342653265E+00   0.411242047243917E-01   0.253817E-01   0.343981E+00   0.259935E+03  -0.390928E-15
  Finished solving LPB equations
  A_corr:   -0.161502026786851     
 End minimization
 Ecorr=   1976.52060063370     
 A_corr= -0.161502026786851     
 Ecorr_band=  -1976.68210266049     
 End Solvation calculations
RMM:  21    -0.181606224431E+03    0.24938E-02   -0.40180E-03 11097   0.120E-01    0.630E-01
 Begin Solvation calculations
  rms_SCF =   0.505550792218772      tol =   5.055507922187715E-002
 Begin minimization
 Creating dielectric and ionic cavities
  area:      155.676821922586     
  volume:    781.519732183623     
  Acav:     8.173033150935757E-002
  Solving linear dielectric/ionic screening model
        iter                  A_solv                     rms
   LPB:       -0.249828245613027E+00   0.518453426736022E+00
   LPB:    0  -0.249798813456646E+00   0.536197921468314E+00   0.133648E-02   0.000000E+00   0.329554E+02   0.440442E-01
   LPB:    1  -0.245758385040226E+00   0.116686443028515E+00   0.153327E-01   0.000000E+00   0.115025E+03   0.210372E-17
   LPB:    2  -0.245367171313347E+00   0.643904669791206E-01   0.155291E-01   0.956002E-01   0.177747E+03  -0.412534E-16
   LPB:    3  -0.245253736264903E+00   0.397808247477899E-01   0.216492E-01   0.207987E+00   0.893506E+02  -0.695483E-16
   LPB:    4  -0.245186402986779E+00   0.485025468008375E-01   0.277013E-01   0.463899E+00   0.248189E+03  -0.471899E-16
  Finished solving LPB equations
  A_corr:   -0.163456071477422     
 End minimization
 Ecorr=   1974.73382154396     
 A_corr= -0.163456071477422     
 Ecorr_band=  -1974.89727761544     
 End Solvation calculations
RMM:  22    -0.181604837537E+03    0.13869E-02   -0.29428E-03 11070   0.102E-01    0.539E-01
 Begin Solvation calculations
  rms_SCF =   0.505550792218772      tol =   5.055507922187715E-002
 Begin minimization
 Creating dielectric and ionic cavities
  area:      155.782291550333     
  volume:    780.892963343841     
  Acav:     8.178570306392469E-002
  Solving linear dielectric/ionic screening model
        iter                  A_solv                     rms
   LPB:       -0.253489349823645E+00   0.544724459743947E+00
   LPB:    0  -0.253488758006153E+00   0.548914154649955E+00   0.189432E-03   0.000000E+00   0.329847E+02   0.624835E-02
   LPB:    1  -0.248816692235975E+00   0.159460171468830E+00   0.150916E-01   0.000000E+00   0.125735E+03  -0.232031E-19
   LPB:    2  -0.248341606365860E+00   0.631787906496065E-01   0.152024E-01   0.100946E+00   0.121844E+03  -0.847033E-15
   LPB:    3  -0.248196988396420E+00   0.415211181804582E-01   0.240444E-01   0.192463E+00   0.114140E+03  -0.222857E-15
   LPB:    4  -0.248098775386738E+00   0.401923472022673E-01   0.329340E-01   0.495812E+00   0.118233E+03   0.567713E-15
  Finished solving LPB equations
  A_corr:   -0.166313072322814     
 End minimization
 Ecorr=   1972.99607845442     
 A_corr= -0.166313072322814     
 Ecorr_band=  -1973.16239152674     
 End Solvation calculations
RMM:  23    -0.181604738121E+03    0.99416E-04   -0.21269E-03 11068   0.848E-02    0.508E-01
 Begin Solvation calculations
  rms_SCF =   0.505550792218772      tol =   5.055507922187715E-002
 Begin minimization
 Creating dielectric and ionic cavities
  area:      155.959881524572     
  volume:    780.181390208548     
  Acav:     8.187893780040052E-002
  Solving linear dielectric/ionic screening model
        iter                  A_solv                     rms
   LPB:       -0.262395989312236E+00   0.768557236691657E+00
   LPB:    0  -0.262385427291174E+00   0.783422647393016E+00   0.799857E-03   0.000000E+00   0.330181E+02   0.264098E-01
   LPB:    1  -0.253330328024857E+00   0.206598592357866E+00   0.151408E-01   0.000000E+00   0.121222E+03   0.745157E-19
   LPB:    2  -0.252469442713597E+00   0.851040112364899E-01   0.151249E-01   0.951717E-01   0.128911E+03   0.882285E-15
   LPB:    3  -0.252232827426987E+00   0.550222355712757E-01   0.227110E-01   0.183043E+00   0.112844E+03   0.114844E-14
   LPB:    4  -0.252084667127524E+00   0.441008536191135E-01   0.319139E-01   0.445601E+00   0.111798E+03   0.449635E-15
  Finished solving LPB equations
  A_corr:   -0.170205729327124     
 End minimization
 Ecorr=   1970.68633290481     
 A_corr= -0.170205729327124     
 Ecorr_band=  -1970.85653863413     
 End Solvation calculations
RMM:  24    -0.181604531326E+03    0.20679E-03   -0.14948E-03 11048   0.720E-02    0.473E-01
 Begin Solvation calculations
  rms_SCF =   0.505550792218772      tol =   5.055507922187715E-002
 Begin minimization
 Creating dielectric and ionic cavities
  area:      156.026906092130     
  volume:    780.076614956242     
  Acav:     8.191412569836812E-002
  Solving linear dielectric/ionic screening model
        iter                  A_solv                     rms
   LPB:       -0.253659442851208E+00   0.252299043381532E+00
   LPB:    0  -0.253659168935169E+00   0.250121662698948E+00  -0.128800E-03   0.000000E+00   0.330230E+02  -0.425336E-02
   LPB:    1  -0.252951374108769E+00   0.483908846646564E-01   0.153080E-01   0.000000E+00   0.923850E+02  -0.381380E-18
   LPB:    2  -0.252875367926764E+00   0.368047584261757E-01   0.172673E-01   0.952000E-01   0.173653E+03  -0.257810E-15
   LPB:    3  -0.252796770431933E+00   0.518009238374460E-01   0.400417E-01   0.445934E+00   0.587679E+02  -0.525367E-15
   LPB:    4  -0.252697981019947E+00   0.568749310660819E-01   0.316943E-01   0.158794E+01   0.124335E+03  -0.795370E-15
   LPB:    5  -0.252643664106641E+00   0.373424735913449E-01   0.188844E-01   0.922790E+00   0.823077E+02  -0.118353E-14
  Finished solving LPB equations
  A_corr:   -0.170729538408273     
 End minimization
 Ecorr=   1969.98683242762     
 A_corr= -0.170729538408273     
 Ecorr_band=  -1970.15756196603     
 End Solvation calculations
RMM:  25    -0.181605437198E+03   -0.90587E-03   -0.44754E-04  8206   0.402E-02    0.574E-01
 Begin Solvation calculations
  rms_SCF =   0.505550792218772      tol =   5.055507922187715E-002
 Begin minimization
 Creating dielectric and ionic cavities
  area:      156.102499937102     
  volume:    780.032851667045     
  Acav:     8.195381246697868E-002
  Solving linear dielectric/ionic screening model
        iter                  A_solv                     rms
   LPB:       -0.254870856669435E+00   0.412720567265489E+00
   LPB:    0  -0.254863425416634E+00   0.402445436957070E+00  -0.670848E-03   0.000000E+00   0.330251E+02  -0.221548E-01
   LPB:    1  -0.253773978923201E+00   0.919008471957804E-01   0.136796E-01   0.000000E+00   0.696489E+02  -0.684258E-18
   LPB:    2  -0.253658108232081E+00   0.330930831644590E-01   0.119630E-01   0.121620E+00   0.273172E+03  -0.524492E-16
   LPB:    3  -0.253635283497261E+00   0.139821613602808E-01   0.175232E-01   0.134480E+00   0.140950E+03  -0.873707E-16
   LPB:    4  -0.253620570890121E+00   0.218516727752822E-01   0.329710E-01   0.342581E+00   0.103283E+03  -0.101389E-15
  Finished solving LPB equations
  A_corr:   -0.171666758423143     
 End minimization
 Ecorr=   1969.23092934929     
 A_corr= -0.171666758423143     
 Ecorr_band=  -1969.40259610771     
 End Solvation calculations
RMM:  26    -0.181603782857E+03    0.16543E-02   -0.21145E-04  6606   0.263E-02    0.296E-01
 Begin Solvation calculations
  rms_SCF =   0.505550792218772      tol =   5.055507922187715E-002
 Begin minimization
 Creating dielectric and ionic cavities
  area:      156.247397978768     
  volume:    779.994194585465     
  Acav:     8.202988393885312E-002
  Solving linear dielectric/ionic screening model
        iter                  A_solv                     rms
   LPB:       -0.259003169999450E+00   0.704608633704020E+00
   LPB:    0  -0.258995023706424E+00   0.698459810597095E+00  -0.702362E-03   0.000000E+00   0.330269E+02  -0.231968E-01
   LPB:    1  -0.255655596697472E+00   0.151472169794516E+00   0.138039E-01   0.000000E+00   0.713568E+02   0.165808E-17
   LPB:    2  -0.255328960185323E+00   0.686732241798785E-01   0.122072E-01   0.110606E+00   0.260561E+03   0.233488E-15
   LPB:    3  -0.255243910216245E+00   0.195361766970987E-01   0.179766E-01   0.176814E+00   0.116017E+03   0.327755E-15
   LPB:    4  -0.255205129361980E+00   0.262625916010027E-01   0.284482E-01   0.288135E+00   0.188930E+03   0.309093E-15
  Finished solving LPB equations
  A_corr:   -0.173175245423127     
 End minimization
 Ecorr=   1968.55009088450     
 A_corr= -0.173175245423127     
 Ecorr_band=  -1968.72326612992     
 End Solvation calculations
RMM:  27    -0.181603859081E+03   -0.76224E-04   -0.24450E-04  7015   0.267E-02
 Begin Solvation calculations
  rms_SCF =   0.505550792218772      tol =   5.055507922187715E-002
 Begin minimization
 Creating dielectric and ionic cavities
  area:      156.461061660049     
  volume:    779.813172740902     
  Acav:     8.214205737152565E-002
  Solving linear dielectric/ionic screening model
        iter                  A_solv                     rms
   LPB:       -0.264705134690508E+00   0.820625817036057E+00
   LPB:    0  -0.264686286811424E+00   0.806636785686466E+00  -0.106821E-02   0.000000E+00   0.330354E+02  -0.352887E-01
   LPB:    1  -0.259087500224553E+00   0.159978754718893E+00   0.145914E-01   0.000000E+00   0.793424E+02   0.161411E-17
   LPB:    2  -0.258571766906105E+00   0.977302141857371E-01   0.134245E-01   0.100122E+00   0.262672E+03  -0.390660E-15
   LPB:    3  -0.258427201988170E+00   0.381069154795639E-01   0.175104E-01   0.214902E+00   0.994698E+02  -0.233973E-15
   LPB:    4  -0.258350359756147E+00   0.433664355792040E-01   0.259367E-01   0.358854E+00   0.209993E+03   0.693014E-16
  Finished solving LPB equations
  A_corr:   -0.176208302384621     
 End minimization
 Ecorr=   1967.39676139698     
 A_corr= -0.176208302384621     
 Ecorr_band=  -1967.57296969937     
 End Solvation calculations
   1 F= -.18160386E+03 E0= -.18159267E+03  d E =-.181604E+03
quench:  g(F)=  0.000E+00 g(S)=  0.000E+00 dE (1.order)= 0.000E+00
 bond charge predicted
       N       E                     dE             d eps       ncg     rms          rms(c)
 Begin Solvation calculations
  rms_SCF =   0.505550792218772      tol =   5.055507922187715E-002
 Begin minimization
 Creating dielectric and ionic cavities
  area:      156.466216717508     
  volume:    779.816118587957     
  Acav:     8.214476377669165E-002
  Solving linear dielectric/ionic screening model
        iter                  A_solv                     rms
   LPB:       -0.258375549788663E+00   0.433263472088991E-01
   LPB:    0  -0.258375549786292E+00   0.433125172506399E-01   0.378863E-06   0.000000E+00   0.330352E+02   0.125158E-04
   LPB:    1  -0.258327699448287E+00   0.291368521483427E-01   0.157967E-01   0.000000E+00   0.151004E+03   0.525980E-21
   LPB:    2  -0.258299681159175E+00   0.312452411605443E-01   0.276739E-01   0.334236E+00   0.232555E+03  -0.134207E-15
   LPB:    3  -0.258260505462432E+00   0.294372393433015E-01   0.359223E-01   0.107716E+01   0.112155E+03  -0.220284E-15
   LPB:    4  -0.258229112941224E+00   0.359034393361568E-01   0.245305E-01   0.117346E+01   0.107506E+03  -0.311756E-15
  Finished solving LPB equations
  A_corr:   -0.176084349164532     
 End minimization
 Ecorr=   1967.60569827975     
 A_corr= -0.176084349164532     
 Ecorr_band=  -1967.78178262892     
 End Solvation calculations
DAV:   1    -0.181604624325E+03   -0.84147E-03   -0.28445E-03 11523   0.117E-01    0.206E-01
 Begin Solvation calculations
  rms_SCF =   0.413255677025518      tol =   4.132556770255177E-002
 Begin minimization
 Creating dielectric and ionic cavities
  area:      156.479886061896     
  volume:    779.805594845994     
  Acav:     8.215194018249514E-002
  Solving linear dielectric/ionic screening model
        iter                  A_solv                     rms
   LPB:       -0.284844017385431E+00   0.275522631347817E+01
   LPB:    0  -0.284703051406001E+00   0.273986643346893E+01  -0.292133E-02   0.000000E+00   0.330357E+02  -0.965082E-01
   LPB:    1  -0.263616359693780E+00   0.332078908383084E+00   0.929927E-02   0.000000E+00   0.647395E+02   0.436509E-17
   LPB:    2  -0.260884502960137E+00   0.627249700965879E-01   0.148472E-01   0.811436E-01   0.152251E+03  -0.121077E-14
   LPB:    3  -0.260558470854236E+00   0.206802882280537E-01   0.205374E-01   0.862784E-01   0.214089E+03  -0.138006E-14
   LPB:    4  -0.260475085428972E+00   0.222139564457389E-01   0.263333E-01   0.199466E+00   0.261622E+03  -0.150172E-14
  Finished solving LPB equations
  A_corr:   -0.178323145246477     
 End minimization
 Ecorr=   1966.61680994601     
 A_corr= -0.178323145246477     
 Ecorr_band=  -1966.79513309125     
 End Solvation calculations
RMM:   2    -0.181681534663E+03   -0.76910E-01   -0.11025E-02 11088   0.177E-01    0.328E+00
 Begin Solvation calculations
  rms_SCF =   0.413255677025518      tol =   4.132556770255177E-002
 Begin minimization
 Creating dielectric and ionic cavities
  area:      157.774177032325     
  volume:    779.777639805476     
  Acav:     8.283144294197083E-002
  Solving linear dielectric/ionic screening model
        iter                  A_solv                     rms
   LPB:       -0.275525519037979E+00   0.226918309806029E+01
   LPB:    0  -0.275524836431001E+00   0.226931186611568E+01  -0.203282E-03   0.000000E+00   0.330370E+02  -0.671585E-02
   LPB:    1  -0.261919317618286E+00   0.203185113993863E+00   0.856481E-02   0.000000E+00   0.720056E+02   0.127383E-18
   LPB:    2  -0.260843454302722E+00   0.347621615077314E-01   0.154868E-01   0.437320E-01   0.144186E+03  -0.410305E-16
   LPB:    3  -0.260728425208615E+00   0.111557683438093E-01   0.204222E-01   0.810788E-01   0.249189E+03  -0.427181E-16
   LPB:    4  -0.260704299242245E+00   0.693829376425870E-02   0.259690E-01   0.164940E+00   0.830436E+03   0.764489E-16
  Finished solving LPB equations
  A_corr:   -0.177872856300274     
 End minimization
 Ecorr=   1967.17507943972     
 A_corr= -0.177872856300274     
 Ecorr_band=  -1967.35295229602     
 End Solvation calculations
RMM:   3    -0.181608258960E+03    0.73276E-01   -0.87518E-03 11089   0.179E-01    0.624E-01
 Begin Solvation calculations
  rms_SCF =   0.413255677025518      tol =   4.132556770255177E-002
 Begin minimization
 Creating dielectric and ionic cavities
  area:      156.541065038477     
  volume:    779.856977197681     
  Acav:     8.218405914520030E-002
  Solving linear dielectric/ionic screening model
        iter                  A_solv                     rms
   LPB:       -0.260417106677155E+00   0.259605943090110E+00
   LPB:    0  -0.260337455005867E+00   0.199908957587362E+00   0.219602E-02   0.000000E+00   0.330333E+02   0.725418E-01
   LPB:    1  -0.260111269765608E+00   0.411152530400667E-01   0.115277E-01   0.000000E+00   0.804565E+02   0.165039E-17
   LPB:    2  -0.260086065000173E+00   0.143308322095298E-01   0.124962E-01   0.102797E+00   0.346654E+03   0.202602E-15
   LPB:    3  -0.260075672578533E+00   0.102605734577234E-01   0.265706E-01   0.193915E+00   0.170526E+03   0.210144E-15
   LPB:    4  -0.260067857995336E+00   0.146371614245986E-01   0.361959E-01   0.551990E+00   0.197056E+03   0.172843E-15
  Finished solving LPB equations
  A_corr:   -0.177883798850136     
 End minimization
 Ecorr=   1966.79824919542     
 A_corr= -0.177883798850136     
 Ecorr_band=  -1966.97613299427     
 End Solvation calculations
RMM:   4    -0.181605845583E+03    0.24134E-02   -0.14956E-03 11062   0.101E-01    0.371E-01
 Begin Solvation calculations
  rms_SCF =   0.413255677025518      tol =   4.132556770255177E-002
 Begin minimization
 Creating dielectric and ionic cavities
  area:      156.573170416556     
  volume:    779.820684869683     
  Acav:     8.220091446869175E-002
  Solving linear dielectric/ionic screening model
        iter                  A_solv                     rms
   LPB:       -0.261554279060819E+00   0.257398004121217E+00
   LPB:    0  -0.261502749443384E+00   0.201315193101272E+00  -0.176627E-02   0.000000E+00   0.330350E+02  -0.583486E-01
   LPB:    1  -0.261216118026198E+00   0.410901550622713E-01   0.136165E-01   0.000000E+00   0.680514E+02  -0.276677E-17
   LPB:    2  -0.261182358281286E+00   0.200409143753316E-01   0.137107E-01   0.116972E+00   0.233941E+03  -0.131887E-15
   LPB:    3  -0.261173503966148E+00   0.134718506662100E-01   0.193796E-01   0.185554E+00   0.102977E+03  -0.762942E-16
   LPB:    4  -0.261166710845810E+00   0.158131711815303E-01   0.279454E-01   0.532046E+00   0.111412E+03  -0.826851E-16
  Finished solving LPB equations
  A_corr:   -0.178965796377118     
 End minimization
 Ecorr=   1966.60247808710     
 A_corr= -0.178965796377118     
 Ecorr_band=  -1966.78144388347     
 End Solvation calculations
RMM:   5    -0.181605869026E+03   -0.23443E-04   -0.29508E-04  7142   0.349E-02
 Begin Solvation calculations
  rms_SCF =   0.413255677025518      tol =   4.132556770255177E-002
 Begin minimization
 Creating dielectric and ionic cavities
  area:      156.640380940430     
  volume:    779.862096343627     
  Acav:     8.223619999372563E-002
  Solving linear dielectric/ionic screening model
        iter                  A_solv                     rms
   LPB:       -0.264094241222485E+00   0.502279370460373E+00
   LPB:    0  -0.264089146062294E+00   0.497710253304158E+00  -0.555417E-03   0.000000E+00   0.330331E+02  -0.183471E-01
   LPB:    1  -0.262734475432682E+00   0.107744316221753E+00   0.129950E-01   0.000000E+00   0.642744E+02   0.157098E-17
   LPB:    2  -0.262585567968953E+00   0.379046714972538E-01   0.118251E-01   0.120796E+00   0.251862E+03   0.502575E-15
   LPB:    3  -0.262551272135104E+00   0.945999291470472E-02   0.188329E-01   0.144615E+00   0.126485E+03   0.556636E-15
   LPB:    4  -0.262535821054016E+00   0.132227914686300E-01   0.313305E-01   0.270812E+00   0.172486E+03   0.485751E-15
  Finished solving LPB equations
  A_corr:   -0.180299621060291     
 End minimization
 Ecorr=   1966.07242445158     
 A_corr= -0.180299621060291     
 Ecorr_band=  -1966.25272407264     
 End Solvation calculations
   2 F= -.18160587E+03 E0= -.18159480E+03  d E =-.200995E-02
quench:  g(F)=  0.000E+00 g(S)=  0.000E+00 dE (1.order)= 0.000E+00
 bond charge predicted
       N       E                     dE             d eps       ncg     rms          rms(c)
 Begin Solvation calculations
  rms_SCF =   0.413255677025518      tol =   4.132556770255177E-002
 Begin minimization
 Creating dielectric and ionic cavities
  area:      156.634900765510     
  volume:    779.856931097262     
  Acav:     8.223332290189286E-002
  Solving linear dielectric/ionic screening model
        iter                  A_solv                     rms
   LPB:       -0.262873422865468E+00   0.134450932499084E-01
   LPB:    0  -0.262873422864096E+00   0.134566927276110E-01  -0.288174E-06   0.000000E+00   0.330333E+02  -0.951934E-05
   LPB:    1  -0.262561894083795E+00   0.798361663920848E-02   0.154693E-01   0.000000E+00   0.100706E+05   0.692030E-21
   LPB:    2  -0.262530717929625E+00   0.134560889746685E-01   0.266944E-01   0.579930E-01   0.114437E+04  -0.441912E-16
   LPB:    3  -0.262518814523767E+00   0.181300149922024E-01   0.274160E-01   0.371761E+00   0.190839E+03  -0.666825E-16
   LPB:    4  -0.262510127217891E+00   0.139218305537487E-01   0.247265E-01   0.809200E+00   0.160338E+03  -0.893806E-16
  Finished solving LPB equations
  A_corr:   -0.180276804315998     
 End minimization
 Ecorr=   1966.06704359712     
 A_corr= -0.180276804315998     
 Ecorr_band=  -1966.24732040143     
 End Solvation calculations
DAV:   1    -0.181606486668E+03   -0.64109E-03   -0.18282E-02 11436   0.248E-01    0.451E-01
 Begin Solvation calculations
  rms_SCF =   0.413255677025518      tol =   4.132556770255177E-002
 Begin minimization
 Creating dielectric and ionic cavities
  area:      156.659314526106     
  volume:    780.215425820648     
  Acav:     8.224614012620579E-002
  Solving linear dielectric/ionic screening model
        iter                  A_solv                     rms
   LPB:       -0.342634145262726E+00   0.522089578846545E+01
   LPB:    0  -0.342219552747214E+00   0.520992032082347E+01   0.501141E-02   0.000000E+00   0.330165E+02   0.165459E+00
   LPB:    1  -0.269047409889191E+00   0.509115366368979E+00   0.882080E-02   0.000000E+00   0.692911E+02   0.140244E-16
   LPB:    2  -0.262361854029259E+00   0.102913441555824E+00   0.147174E-01   0.547606E-01   0.159143E+03   0.325380E-15
   LPB:    3  -0.261571621415631E+00   0.419997455386642E-01   0.218619E-01   0.795721E-01   0.173825E+03   0.389391E-15
   LPB:    4  -0.261359754664234E+00   0.302264836379743E-01   0.266670E-01   0.219797E+00   0.271084E+03   0.204661E-15
  Finished solving LPB equations
  A_corr:   -0.179113614538028     
 End minimization
 Ecorr=   1964.34812435093     
 A_corr= -0.179113614538028     
 Ecorr_band=  -1964.52723796546     
 End Solvation calculations
RMM:   2    -0.181955752427E+03   -0.34927E+00   -0.45343E-02 11089   0.351E-01    0.675E+00
 Begin Solvation calculations
  rms_SCF =   0.413255677025518      tol =   4.132556770255177E-002
 Begin minimization
 Creating dielectric and ionic cavities
  area:      164.352591323743     
  volume:    780.234038414260     
  Acav:     8.628511044496505E-002
  Solving linear dielectric/ionic screening model
        iter                  A_solv                     rms
   LPB:       -0.323586236952816E+00   0.464856877369225E+01
   LPB:    0  -0.323545267622243E+00   0.464745921648379E+01  -0.157538E-02   0.000000E+00   0.330156E+02  -0.520121E-01
   LPB:    1  -0.266289655703661E+00   0.421541407086760E+00   0.860044E-02   0.000000E+00   0.716756E+02  -0.351775E-17
   LPB:    2  -0.261693785545543E+00   0.820357435221169E-01   0.153421E-01   0.449972E-01   0.146178E+03   0.114025E-16
   LPB:    3  -0.261211334602472E+00   0.293013915863362E-01   0.202402E-01   0.795711E-01   0.191483E+03   0.406467E-16
   LPB:    4  -0.261120896255046E+00   0.209879163836354E-01   0.233671E-01   0.162372E+00   0.429257E+03   0.563799E-15
  Finished solving LPB equations
  A_corr:   -0.174835785810081     
 End minimization
 Ecorr=   1965.42270913582     
 A_corr= -0.174835785810081     
 Ecorr_band=  -1965.59754492163     
 End Solvation calculations
RMM:   3    -0.181617005806E+03    0.33875E+00   -0.35010E-02 11092   0.356E-01    0.958E-01
 Begin Solvation calculations
  rms_SCF =   0.413255677025518      tol =   4.132556770255177E-002
 Begin minimization
 Creating dielectric and ionic cavities
  area:      157.772315001538     
  volume:    779.920262286178     
  Acav:     8.283046537580749E-002
  Solving linear dielectric/ionic screening model
        iter                  A_solv                     rms
   LPB:       -0.263669169923748E+00   0.321759825707179E+00
   LPB:    0  -0.263437953537018E+00   0.130479338195748E+00  -0.374169E-02   0.000000E+00   0.330303E+02  -0.123589E+00
   LPB:    1  -0.263083630090342E+00   0.353841115849857E-01   0.151368E-01   0.000000E+00   0.120508E+03   0.572616E-17
   LPB:    2  -0.263040649441111E+00   0.206079936689152E-01   0.170295E-01   0.107822E+00   0.283915E+03   0.765564E-16
   LPB:    3  -0.263026776263157E+00   0.147242476616673E-01   0.209874E-01   0.261907E+00   0.143654E+03   0.698332E-16
   LPB:    4  -0.263019019248623E+00   0.147444644486584E-01   0.290023E-01   0.404617E+00   0.188830E+03   0.154469E-15
  Finished solving LPB equations
  A_corr:   -0.180188553872815     
 End minimization
 Ecorr=   1965.71299763194     
 A_corr= -0.180188553872815     
 Ecorr_band=  -1965.89318618581     
 End Solvation calculations
RMM:   4    -0.181606530472E+03    0.10475E-01   -0.28364E-03 11068   0.120E-01    0.303E-01
 Begin Solvation calculations
  rms_SCF =   0.413255677025518      tol =   4.132556770255177E-002
 Begin minimization
 Creating dielectric and ionic cavities
  area:      156.741072993107     
  volume:    779.950798985850     
  Acav:     8.228906332138120E-002
  Solving linear dielectric/ionic screening model
        iter                  A_solv                     rms
   LPB:       -0.263430629312994E+00   0.280654768563757E+00
   LPB:    0  -0.263401923197828E+00   0.267234925018265E+00   0.131842E-02   0.000000E+00   0.330289E+02   0.435461E-01
   LPB:    1  -0.263115202856468E+00   0.463804491545184E-01   0.109129E-01   0.000000E+00   0.672102E+02  -0.128876E-17
   LPB:    2  -0.263079831013747E+00   0.124844097137490E-01   0.122606E-01   0.109806E+00   0.280533E+03  -0.566193E-16
   LPB:    3  -0.263072203653954E+00   0.492735139797577E-02   0.237411E-01   0.111359E+00   0.128737E+03  -0.600016E-16
   LPB:    4  -0.263067569035723E+00   0.525048729374076E-02   0.386471E-01   0.373271E+00   0.267762E+03  -0.597656E-16
  Finished solving LPB equations
  A_corr:   -0.180778505714342     
 End minimization
 Ecorr=   1965.27979552170     
 A_corr= -0.180778505714342     
 Ecorr_band=  -1965.46057402741     
 End Solvation calculations
RMM:   5    -0.181606666825E+03   -0.13635E-03   -0.10295E-03 10862   0.768E-02    0.370E-01
 Begin Solvation calculations
  rms_SCF =   0.413255677025518      tol =   4.132556770255177E-002
 Begin minimization
 Creating dielectric and ionic cavities
  area:      156.782378897286     
  volume:    779.918226522894     
  Acav:     8.231074892107493E-002
  Solving linear dielectric/ionic screening model
        iter                  A_solv                     rms
   LPB:       -0.264005896784571E+00   0.265104129064602E+00
   LPB:    0  -0.263975890216408E+00   0.236505761672610E+00  -0.134793E-02   0.000000E+00   0.330304E+02  -0.445226E-01
   LPB:    1  -0.263664560655753E+00   0.446688974856774E-01   0.126373E-01   0.000000E+00   0.666632E+02  -0.415386E-18
   LPB:    2  -0.263634392265818E+00   0.183887591544474E-01   0.120073E-01   0.101986E+00   0.260293E+03   0.197132E-16
   LPB:    3  -0.263627775232487E+00   0.762322143592252E-02   0.182740E-01   0.144120E+00   0.113957E+03   0.466820E-16
   LPB:    4  -0.263624053109671E+00   0.107170950297367E-01   0.298709E-01   0.344123E+00   0.104461E+03   0.783295E-16
  Finished solving LPB equations
  A_corr:   -0.181313304188596     
 End minimization
 Ecorr=   1965.22598126475     
 A_corr= -0.181313304188596     
 Ecorr_band=  -1965.40729456894     
 End Solvation calculations
RMM:   6    -0.181606336381E+03    0.33044E-03   -0.30878E-04  7139   0.351E-02    0.264E-01
 Begin Solvation calculations
  rms_SCF =   0.413255677025518      tol =   4.132556770255177E-002
 Begin minimization
 Creating dielectric and ionic cavities
  area:      156.793508012403     
  volume:    779.928956039416     
  Acav:     8.231659170651173E-002
  Solving linear dielectric/ionic screening model
        iter                  A_solv                     rms
   LPB:       -0.263939972664544E+00   0.101595102053059E+00
   LPB:    0  -0.263939890854112E+00   0.101656151123824E+00   0.703826E-04   0.000000E+00   0.330299E+02   0.232473E-02
   LPB:    1  -0.263878233586787E+00   0.197198213197579E-01   0.129563E-01   0.000000E+00   0.710714E+02  -0.108933E-19
   LPB:    2  -0.263872816670159E+00   0.102131616186022E-01   0.123266E-01   0.923433E-01   0.237514E+03   0.312998E-16
   LPB:    3  -0.263869878705564E+00   0.472594655024453E-02   0.270941E-01   0.246752E+00   0.745363E+02   0.317471E-16
   LPB:    4  -0.263865193252482E+00   0.385701760082535E-02   0.542466E-01   0.796541E+00   0.900916E+02   0.107482E-16
  Finished solving LPB equations
  A_corr:   -0.181548601545970     
 End minimization
 Ecorr=   1965.07753195955     
 A_corr= -0.181548601545970     
 Ecorr_band=  -1965.25908056110     
 End Solvation calculations
RMM:   7    -0.181606506675E+03   -0.17029E-03   -0.92142E-05  6024   0.209E-02    0.274E-01
 Begin Solvation calculations
  rms_SCF =   0.413255677025518      tol =   4.132556770255177E-002
 Begin minimization
 Creating dielectric and ionic cavities
  area:      156.829687379241     
  volume:    779.927941465747     
  Acav:     8.233558587410157E-002
  Solving linear dielectric/ionic screening model
        iter                  A_solv                     rms
   LPB:       -0.264910797520241E+00   0.285035855424063E+00
   LPB:    0  -0.264905708388641E+00   0.279195277439869E+00  -0.555115E-03   0.000000E+00   0.330300E+02  -0.183354E-01
   LPB:    1  -0.264539832454023E+00   0.545186055220196E-01   0.120665E-01   0.000000E+00   0.636584E+02   0.166231E-17
   LPB:    2  -0.264500075933569E+00   0.159971726628377E-01   0.115622E-01   0.113401E+00   0.262703E+03  -0.332704E-15
   LPB:    3  -0.264493253981507E+00   0.461131687744384E-02   0.185769E-01   0.106799E+00   0.140658E+03  -0.355459E-15
   LPB:    4  -0.264490381731186E+00   0.744066188246628E-02   0.315929E-01   0.247569E+00   0.124417E+03  -0.359869E-15
  Finished solving LPB equations
  A_corr:   -0.182154795857085     
 End minimization
 Ecorr=   1964.87762811512     
 A_corr= -0.182154795857085     
 Ecorr_band=  -1965.05978291098     
 End Solvation calculations
RMM:   8    -0.181606496231E+03    0.10444E-04   -0.41175E-05  6001   0.120E-02
 Begin Solvation calculations
  rms_SCF =   0.413255677025518      tol =   4.132556770255177E-002
 Begin minimization
 Creating dielectric and ionic cavities
  area:      156.894295824254     
  volume:    779.927573921608     
  Acav:     8.236950530773324E-002
  Solving linear dielectric/ionic screening model
        iter                  A_solv                     rms
   LPB:       -0.266994069047139E+00   0.498914990039349E+00
   LPB:    0  -0.266980934013900E+00   0.489850175853083E+00  -0.891818E-03   0.000000E+00   0.330300E+02  -0.294568E-01
   LPB:    1  -0.265809921735196E+00   0.965349276771890E-01   0.122634E-01   0.000000E+00   0.641223E+02  -0.438775E-18
   LPB:    2  -0.265682669463622E+00   0.319206257072991E-01   0.117526E-01   0.113391E+00   0.256841E+03  -0.125565E-16
   LPB:    3  -0.265657440983536E+00   0.821930982767057E-02   0.184624E-01   0.126204E+00   0.134134E+03  -0.167299E-16
   LPB:    4  -0.265648380035261E+00   0.115867729001839E-01   0.284313E-01   0.233224E+00   0.168860E+03  -0.797045E-16
  Finished solving LPB equations
  A_corr:   -0.183278874727528     
 End minimization
 Ecorr=   1964.49710894877     
 A_corr= -0.183278874727528     
 Ecorr_band=  -1964.68038782350     
 End Solvation calculations
   3 F= -.18160650E+03 E0= -.18159521E+03  d E =-.627205E-03
quench:  g(F)=  0.000E+00 g(S)=  0.000E+00 dE (1.order)= 0.000E+00
 bond charge predicted
       N       E                     dE             d eps       ncg     rms          rms(c)
 Begin Solvation calculations
  rms_SCF =   0.413255677025518      tol =   4.132556770255177E-002
 Begin minimization
 Creating dielectric and ionic cavities
  area:      156.902165898128     
  volume:    779.934939266536     
  Acav:     8.237363709651720E-002
  Solving linear dielectric/ionic screening model
        iter                  A_solv                     rms
   LPB:       -0.265669545314476E+00   0.115586168030465E-01
   LPB:    0  -0.265669545308606E+00   0.115336990518887E-01   0.596139E-06   0.000000E+00   0.330296E+02   0.196903E-04
   LPB:    1  -0.265636343276115E+00   0.721352768182946E-02   0.162491E-01   0.000000E+00   0.130561E+04  -0.147842E-21
   LPB:    2  -0.265630183271816E+00   0.118003231181821E-01   0.277584E-01   0.108605E+00   0.294018E+03   0.361040E-16
   LPB:    3  -0.265626293169403E+00   0.853039694786548E-02   0.252206E-01   0.695054E+00   0.128221E+03   0.446017E-16
   LPB:    4  -0.265622311633858E+00   0.948357621720034E-02   0.335229E-01   0.770024E+00   0.158021E+03   0.238531E-16
  Finished solving LPB equations
  A_corr:   -0.183248674537341     
 End minimization
 Ecorr=   1964.52869471718     
 A_corr= -0.183248674537341     
 Ecorr_band=  -1964.71194339172     
 End Solvation calculations
DAV:   1    -0.181606736162E+03   -0.22949E-03   -0.22275E-03 10527   0.846E-02    0.200E-01
 Begin Solvation calculations
  rms_SCF =   0.358865575048343      tol =   3.588655750483428E-002
 Begin minimization
 Creating dielectric and ionic cavities
  area:      156.880203984269     
  volume:    779.938221746578     
  Acav:     8.236210709174104E-002
  Solving linear dielectric/ionic screening model
        iter                  A_solv                     rms
   LPB:       -0.285294987861083E+00   0.244700745612353E+01
   LPB:    0  -0.285253546762829E+00   0.244186718096760E+01  -0.158409E-02   0.000000E+00   0.330295E+02  -0.523217E-01
   LPB:    1  -0.269341830209160E+00   0.254601492316174E+00   0.883034E-02   0.000000E+00   0.683316E+02  -0.767690E-18
   LPB:    2  -0.267754695843720E+00   0.473197706953660E-01   0.152340E-01   0.578176E-01   0.138044E+03   0.290295E-15
   LPB:    3  -0.267575224460223E+00   0.144002545989465E-01   0.208685E-01   0.825476E-01   0.191420E+03   0.391417E-15
   LPB:    4  -0.267527690657494E+00   0.848542525741420E-02   0.275588E-01   0.200557E+00   0.316368E+03   0.442295E-15
  Finished solving LPB equations
  A_corr:   -0.185165583565753     
 End minimization
 Ecorr=   1963.82583018940     
 A_corr= -0.185165583565753     
 Ecorr_band=  -1964.01099577297     
 End Solvation calculations
RMM:   2    -0.181687056687E+03   -0.80321E-01   -0.10582E-02 11088   0.174E-01    0.336E+00
 Begin Solvation calculations
  rms_SCF =   0.358865575048343      tol =   3.588655750483428E-002
 Begin minimization
 Creating dielectric and ionic cavities
  area:      158.168392831523     
  volume:    779.900081941320     
  Acav:     8.303840623654955E-002
  Solving linear dielectric/ionic screening model
        iter                  A_solv                     rms
   LPB:       -0.281241267767435E+00   0.221614996908841E+01
   LPB:    0  -0.281237896044452E+00   0.221618025708109E+01  -0.451833E-03   0.000000E+00   0.330313E+02  -0.149246E-01
   LPB:    1  -0.268254075387604E+00   0.201763636364909E+00   0.859025E-02   0.000000E+00   0.716382E+02  -0.401096E-18
   LPB:    2  -0.267209083936787E+00   0.368804075503256E-01   0.154052E-01   0.448794E-01   0.143593E+03  -0.389988E-16
   LPB:    3  -0.267099168432142E+00   0.123852232026985E-01   0.203039E-01   0.798061E-01   0.211858E+03  -0.510029E-16
   LPB:    4  -0.267078120681859E+00   0.778706846887028E-02   0.241471E-01   0.161013E+00   0.523793E+03  -0.329820E-16
  Finished solving LPB equations
  A_corr:   -0.184039714445310     
 End minimization
 Ecorr=   1964.39130580751     
 A_corr= -0.184039714445310     
 Ecorr_band=  -1964.57534552195     
 End Solvation calculations
RMM:   3    -0.181608784461E+03    0.78272E-01   -0.81339E-03 11088   0.175E-01    0.401E-01
 Begin Solvation calculations
  rms_SCF =   0.358865575048343      tol =   3.588655750483428E-002
 Begin minimization
 Creating dielectric and ionic cavities
  area:      156.931624823244     
  volume:    779.936237404770     
  Acav:     8.238910303220330E-002
  Solving linear dielectric/ionic screening model
        iter                  A_solv                     rms
   LPB:       -0.266651152550618E+00   0.158699511524810E+00
   LPB:    0  -0.266616995397611E+00   0.109199734652997E+00   0.143815E-02   0.000000E+00   0.330296E+02   0.475015E-01
   LPB:    1  -0.266509994761854E+00   0.302498472340310E-01   0.117859E-01   0.000000E+00   0.114610E+03  -0.327638E-17
   LPB:    2  -0.266499239726959E+00   0.927009880480943E-02   0.125932E-01   0.940702E-01   0.275840E+03  -0.116911E-15
   LPB:    3  -0.266494694139290E+00   0.690963600412191E-02   0.244723E-01   0.217490E+00   0.468702E+03  -0.153477E-15
   LPB:    4  -0.266492896670112E+00   0.624808739906845E-02   0.237550E-01   0.407373E+00   0.170317E+03  -0.182283E-15
  Finished solving LPB equations
  A_corr:   -0.184103793637908     
 End minimization
 Ecorr=   1964.23787376898     
 A_corr= -0.184103793637908     
 Ecorr_band=  -1964.42197756262     
 End Solvation calculations
RMM:   4    -0.181606894775E+03    0.18897E-02   -0.81256E-04  9550   0.837E-02    0.188E-01
 Begin Solvation calculations
  rms_SCF =   0.305831519804102      tol =   3.058315198041025E-002
 Begin minimization
 Creating dielectric and ionic cavities
  area:      156.951104416820     
  volume:    779.903512391534     
  Acav:     8.239932981883065E-002
  Solving linear dielectric/ionic screening model
        iter                  A_solv                     rms
   LPB:       -0.267355900027412E+00   0.188482784273305E+00
   LPB:    0  -0.267327685147737E+00   0.149770755918860E+00  -0.130705E-02   0.000000E+00   0.330311E+02  -0.431734E-01
   LPB:    1  -0.267212795472537E+00   0.292006625025325E-01   0.122796E-01   0.000000E+00   0.616458E+02   0.319874E-17
   LPB:    2  -0.267198414129704E+00   0.112096580487473E-01   0.127571E-01   0.120490E+00   0.242633E+03  -0.138816E-15
   LPB:    3  -0.267195706842950E+00   0.538975234626584E-02   0.170432E-01   0.140908E+00   0.138331E+03  -0.172584E-15
   LPB:    4  -0.267194438562074E+00   0.576105266409187E-02   0.263272E-01   0.303269E+00   0.105681E+03  -0.178987E-15
  Finished solving LPB equations
  A_corr:   -0.184795108743243     
 End minimization
 Ecorr=   1964.19697246421     
 A_corr= -0.184795108743243     
 Ecorr_band=  -1964.38176757295     
 End Solvation calculations
RMM:   5    -0.181606966375E+03   -0.71600E-04   -0.13840E-04  6207   0.239E-02
 Begin Solvation calculations
  rms_SCF =   0.305831519804102      tol =   3.058315198041025E-002
 Begin minimization
 Creating dielectric and ionic cavities
  area:      156.959059632763     
  volume:    779.915480110166     
  Acav:     8.240350630720066E-002
  Solving linear dielectric/ionic screening model
        iter                  A_solv                     rms
   LPB:       -0.267563021629770E+00   0.108186458357496E+00
   LPB:    0  -0.267562905599737E+00   0.108391582073316E+00   0.838190E-04   0.000000E+00   0.330306E+02   0.276859E-02
   LPB:    1  -0.267512080271465E+00   0.213671713688014E-01   0.117134E-01   0.000000E+00   0.629123E+02   0.481959E-19
   LPB:    2  -0.267505704638442E+00   0.678274386788931E-02   0.121759E-01   0.120677E+00   0.222793E+03  -0.180183E-17
   LPB:    3  -0.267504017185790E+00   0.207432691041558E-02   0.232935E-01   0.138348E+00   0.991829E+02   0.990059E-17
   LPB:    4  -0.267502444002672E+00   0.184931420222246E-02   0.469106E-01   0.462926E+00   0.121309E+03   0.248943E-16
  Finished solving LPB equations
  A_corr:   -0.185098937695472     
 End minimization
 Ecorr=   1964.01404712817     
 A_corr= -0.185098937695472     
 Ecorr_band=  -1964.19914606586     
 End Solvation calculations
   4 F= -.18160697E+03 E0= -.18159568E+03  d E =-.470144E-03
quench:  g(F)=  0.000E+00 g(S)=  0.000E+00 dE (1.order)= 0.000E+00
 bond charge predicted
       N       E                     dE             d eps       ncg     rms          rms(c)
 Begin Solvation calculations
  rms_SCF =   0.305831519804102      tol =   3.058315198041025E-002
 Begin minimization
 Creating dielectric and ionic cavities
  area:      156.962420083120     
  volume:    779.918388584973     
  Acav:     8.240527054363805E-002
  Solving linear dielectric/ionic screening model
        iter                  A_solv                     rms
   LPB:       -0.267531610086018E+00   0.197778058037386E-02
   LPB:    0  -0.267531610084895E+00   0.197089529424774E-02   0.260684E-06   0.000000E+00   0.330304E+02   0.861049E-05
   LPB:    1  -0.267492880190392E+00   0.887235247326288E-03   0.154960E-01   0.000000E+00   0.715652E+05   0.538833E-21
   LPB:    2  -0.267488785623009E+00   0.152995063303561E-02   0.280296E-01   0.584475E-01   0.142777E+05   0.327789E-17
   LPB:    3  -0.267487056365406E+00   0.307242474600645E-02   0.362246E-01   0.326787E+00   0.122758E+04   0.574349E-17
   LPB:    4  -0.267486006771883E+00   0.707838173551684E-02   0.322866E-01   0.680994E+00   0.225284E+03   0.753795E-17
  Finished solving LPB equations
  A_corr:   -0.185080736228245     
 End minimization
 Ecorr=   1963.99627513607     
 A_corr= -0.185080736228245     
 Ecorr_band=  -1964.18135587230     
 End Solvation calculations
DAV:   1    -0.181606895372E+03   -0.59718E-06   -0.23199E-03 10689   0.107E-01    0.185E-01
 Begin Solvation calculations
  rms_SCF =   0.305831519804102      tol =   3.058315198041025E-002
 Begin minimization
 Creating dielectric and ionic cavities
  area:      156.959707345276     
  volume:    780.058752021526     
  Acav:     8.240384635626991E-002
  Solving linear dielectric/ionic screening model
        iter                  A_solv                     rms
   LPB:       -0.281816699843459E+00   0.220008888293495E+01
   LPB:    0  -0.281760485425741E+00   0.219692557715855E+01   0.184512E-02   0.000000E+00   0.330238E+02   0.609330E-01
   LPB:    1  -0.268812727908695E+00   0.213099410237997E+00   0.878242E-02   0.000000E+00   0.695607E+02  -0.103925E-17
   LPB:    2  -0.267658063790378E+00   0.427898300882314E-01   0.147710E-01   0.530231E-01   0.155566E+03  -0.625756E-17
   LPB:    3  -0.267524496636287E+00   0.169117115314439E-01   0.216064E-01   0.790811E-01   0.172523E+03  -0.564096E-17
   LPB:    4  -0.267489403841552E+00   0.119534109170927E-01   0.264745E-01   0.214423E+00   0.282225E+03  -0.414248E-16
  Finished solving LPB equations
  A_corr:   -0.185085557485282     
 End minimization
 Ecorr=   1963.22243938013     
 A_corr= -0.185085557485282     
 Ecorr_band=  -1963.40752493762     
 End Solvation calculations
RMM:   2    -0.181670036400E+03   -0.63141E-01   -0.75980E-03 11088   0.144E-01    0.300E+00
 Begin Solvation calculations
  rms_SCF =   0.305831519804102      tol =   3.058315198041025E-002
 Begin minimization
 Creating dielectric and ionic cavities
  area:      159.090123225656     
  volume:    780.000908328892     
  Acav:     8.352231469346941E-002
  Solving linear dielectric/ionic screening model
        iter                  A_solv                     rms
   LPB:       -0.278818492345475E+00   0.197371870831551E+01
   LPB:    0  -0.278779550223256E+00   0.197058711841812E+01  -0.153565E-02   0.000000E+00   0.330266E+02  -0.507173E-01
   LPB:    1  -0.268430037028166E+00   0.176423742699833E+00   0.860910E-02   0.000000E+00   0.719148E+02  -0.124914E-17
   LPB:    2  -0.267608515625403E+00   0.353978490919361E-01   0.151772E-01   0.450262E-01   0.153015E+03   0.731908E-16
   LPB:    3  -0.267520800374849E+00   0.144771327846495E-01   0.204814E-01   0.791203E-01   0.186226E+03   0.972914E-17
   LPB:    4  -0.267503503913613E+00   0.106560699492360E-01   0.232233E-01   0.173907E+00   0.339902E+03   0.970158E-16
  Finished solving LPB equations
  A_corr:   -0.183981189220144     
 End minimization
 Ecorr=   1963.78328793399     
 A_corr= -0.183981189220144     
 Ecorr_band=  -1963.96726912321     
 End Solvation calculations
RMM:   3    -0.181608348938E+03    0.61687E-01   -0.63271E-03 11088   0.161E-01    0.279E-01
 Begin Solvation calculations
  rms_SCF =   0.305831519804102      tol =   3.058315198041025E-002
 Begin minimization
 Creating dielectric and ionic cavities
  area:      157.084123039057     
  volume:    779.917308690779     
  Acav:     8.246916459550499E-002
  Solving linear dielectric/ionic screening model
        iter                  A_solv                     rms
   LPB:       -0.268214902767350E+00   0.954845634849816E-01
   LPB:    0  -0.268197047558486E+00   0.502539671000082E-01  -0.103978E-02   0.000000E+00   0.330305E+02  -0.343443E-01
   LPB:    1  -0.268125012793135E+00   0.154078918931769E-01   0.142649E-01   0.000000E+00   0.224154E+03  -0.261004E-17
   LPB:    2  -0.268118248920856E+00   0.145920977367327E-01   0.160695E-01   0.833525E-01   0.273466E+03  -0.243642E-16
   LPB:    3  -0.268115554916920E+00   0.579837538357386E-02   0.168212E-01   0.380495E+00   0.136971E+03  -0.194467E-16
   LPB:    4  -0.268114094723255E+00   0.441994293109871E-02   0.307931E-01   0.296084E+00   0.242079E+03  -0.429841E-16
  Finished solving LPB equations
  A_corr:   -0.185644930127750     
 End minimization
 Ecorr=   1963.82076080402     
 A_corr= -0.185644930127750     
 Ecorr_band=  -1964.00640573414     
 End Solvation calculations
RMM:   4    -0.181606925154E+03    0.14238E-02   -0.51441E-04  7864   0.659E-02    0.150E-01
 Begin Solvation calculations
  rms_SCF =   0.217610580844169      tol =   2.176105808441689E-002
 Begin minimization
 Creating dielectric and ionic cavities
  area:      156.997836186245     
  volume:    779.942128413624     
  Acav:     8.242386399777861E-002
  Solving linear dielectric/ionic screening model
        iter                  A_solv                     rms
   LPB:       -0.268318493386716E+00   0.142327876475985E+00
   LPB:    0  -0.268313952201152E+00   0.138704093058416E+00   0.524385E-03   0.000000E+00   0.330293E+02   0.173201E-01
   LPB:    1  -0.268233856336037E+00   0.245619725920567E-01   0.111457E-01   0.000000E+00   0.669813E+02   0.165497E-18
   LPB:    2  -0.268224835904326E+00   0.668100191299676E-02   0.118468E-01   0.105956E+00   0.276597E+03  -0.458891E-18
   LPB:    3  -0.268223084957554E+00   0.191633926064895E-02   0.217361E-01   0.105795E+00   0.129753E+03  -0.884547E-17
   LPB:    4  -0.268222167193947E+00   0.170081363677641E-02   0.368172E-01   0.309448E+00   0.354516E+03   0.496972E-17
  Finished solving LPB equations
  A_corr:   -0.185798303196168     
 End minimization
 Ecorr=   1963.60201129118     
 A_corr= -0.185798303196168     
 Ecorr_band=  -1963.78780959437     
 End Solvation calculations
RMM:   5    -0.181607012816E+03   -0.87663E-04   -0.14566E-04  6426   0.349E-02
 Begin Solvation calculations
  rms_SCF =   0.217610580844169      tol =   2.176105808441689E-002
 Begin minimization
 Creating dielectric and ionic cavities
  area:      157.010002105310     
  volume:    779.929168224799     
  Acav:     8.243025110528787E-002
  Solving linear dielectric/ionic screening model
        iter                  A_solv                     rms
   LPB:       -0.268440597380201E+00   0.865688710109580E-01
   LPB:    0  -0.268435230952636E+00   0.719819044511174E-01  -0.570038E-03   0.000000E+00   0.330299E+02  -0.188283E-01
   LPB:    1  -0.268412426225972E+00   0.125387729864154E-01   0.114974E-01   0.000000E+00   0.623066E+02   0.207715E-18
   LPB:    2  -0.268409863334568E+00   0.445065664806029E-02   0.122355E-01   0.105604E+00   0.244655E+03   0.901275E-16
   LPB:    3  -0.268409289003575E+00   0.275681152066783E-02   0.211711E-01   0.129513E+00   0.112826E+03   0.958231E-16
   LPB:    4  -0.268408743000575E+00   0.430511669290413E-02   0.377248E-01   0.533517E+00   0.728443E+02   0.980736E-16
  Finished solving LPB equations
  A_corr:   -0.185978491895287     
 End minimization
 Ecorr=   1963.60092435402     
 A_corr= -0.185978491895287     
 Ecorr_band=  -1963.78690284592     
 End Solvation calculations
   5 F= -.18160701E+03 E0= -.18159571E+03  d E =-.464412E-04
quench:  g(F)=  0.000E+00 g(S)=  0.000E+00 dE (1.order)= 0.000E+00
 bond charge predicted
       N       E                     dE             d eps       ncg     rms          rms(c)
 Begin Solvation calculations
  rms_SCF =   0.217610580844169      tol =   2.176105808441689E-002
 Begin minimization
 Creating dielectric and ionic cavities
  area:      157.016355020142     
  volume:    779.935880126003     
  Acav:     8.243358638557434E-002
  Solving linear dielectric/ionic screening model
        iter                  A_solv                     rms
   LPB:       -0.268441713006316E+00   0.425084439429525E-02
   LPB:    0  -0.268441713001112E+00   0.422695232898453E-02   0.561340E-06   0.000000E+00   0.330296E+02   0.185408E-04
   LPB:    1  -0.268405121506492E+00   0.256663592428898E-02   0.156695E-01   0.000000E+00   0.115439E+05  -0.133496E-20
   LPB:    2  -0.268401269781648E+00   0.436826594832367E-02   0.266418E-01   0.619107E-01   0.150141E+04   0.134830E-17
   LPB:    3  -0.268400011407761E+00   0.597457059836273E-02   0.259898E-01   0.334900E+00   0.224346E+03   0.623226E-17
   LPB:    4  -0.268399278653014E+00   0.396760580382927E-02   0.214991E-01   0.703936E+00   0.192208E+03   0.155730E-16
  Finished solving LPB equations
  A_corr:   -0.185965692267439     
 End minimization
 Ecorr=   1963.61340773443     
 A_corr= -0.185965692267439     
 Ecorr_band=  -1963.79937342670     
 End Solvation calculations
DAV:   1    -0.181606978963E+03   -0.53809E-04   -0.25368E-03 10662   0.109E-01    0.103E-01
 Begin Solvation calculations
  rms_SCF =   0.151514746048424      tol =   1.515147460484236E-002
 Begin minimization
 Creating dielectric and ionic cavities
  area:      157.006266721708     
  volume:    779.896092403108     
  Acav:     8.242829002889696E-002
  Solving linear dielectric/ionic screening model
        iter                  A_solv                     rms
   LPB:       -0.273053632063096E+00   0.982861098895957E+00
   LPB:    0  -0.272997149662739E+00   0.968382410300185E+00  -0.184930E-02   0.000000E+00   0.330315E+02  -0.610851E-01
   LPB:    1  -0.270444577382691E+00   0.110678201774852E+00   0.898244E-02   0.000000E+00   0.669992E+02   0.131315E-17
   LPB:    2  -0.270145249935290E+00   0.194825724187842E-01   0.155487E-01   0.677436E-01   0.130377E+03   0.165999E-15
   LPB:    3  -0.270111302348257E+00   0.693610993160760E-02   0.202685E-01   0.870032E-01   0.230836E+03   0.101050E-15
   LPB:    4  -0.270101804851101E+00   0.735115053971134E-02   0.267244E-01   0.212185E+00   0.250750E+03   0.119830E-15
  Finished solving LPB equations
  A_corr:   -0.187673514822204     
 End minimization
 Ecorr=   1963.27518706750     
 A_corr= -0.187673514822204     
 Ecorr_band=  -1963.46286058232     
 End Solvation calculations
RMM:   2    -0.181620982918E+03   -0.14004E-01   -0.23946E-03 11085   0.874E-02    0.140E+00
 Begin Solvation calculations
  rms_SCF =   0.151514746048424      tol =   1.515147460484236E-002
 Begin minimization
 Creating dielectric and ionic cavities
  area:      157.082235731885     
  volume:    779.886186493020     
  Acav:     8.246817375923944E-002
  Solving linear dielectric/ionic screening model
        iter                  A_solv                     rms
   LPB:       -0.272272820582069E+00   0.959777716082370E+00
   LPB:    0  -0.272272261414896E+00   0.959474813897995E+00   0.184000E-03   0.000000E+00   0.330319E+02   0.607789E-02
   LPB:    1  -0.269852178669196E+00   0.889791243901916E-01   0.857706E-02   0.000000E+00   0.714130E+02   0.980301E-19
   LPB:    2  -0.269653261918272E+00   0.151599886240397E-01   0.156604E-01   0.450169E-01   0.135084E+03  -0.473496E-16
   LPB:    3  -0.269632767678918E+00   0.454296139677022E-02   0.200928E-01   0.803013E-01   0.234535E+03  -0.481604E-16
   LPB:    4  -0.269628841523073E+00   0.211702033407811E-02   0.246416E-01   0.156210E+00   0.633675E+03  -0.158037E-16
  Finished solving LPB equations
  A_corr:   -0.187160667763834     
 End minimization
 Ecorr=   1963.52718643296     
 A_corr= -0.187160667763834     
 Ecorr_band=  -1963.71434710073     
 End Solvation calculations
RMM:   3    -0.181607945650E+03    0.13037E-01   -0.16768E-03 10889   0.766E-02    0.370E-01
 Begin Solvation calculations
  rms_SCF =   0.151514746048424      tol =   1.515147460484236E-002
 Begin minimization
 Creating dielectric and ionic cavities
  area:      157.069989537094     
  volume:    779.933832621930     
  Acav:     8.246174450697449E-002
  Solving linear dielectric/ionic screening model
        iter                  A_solv                     rms
   LPB:       -0.269234448919619E+00   0.151718646655639E+00
   LPB:    0  -0.269216912235404E+00   0.127836455912936E+00   0.103047E-02   0.000000E+00   0.330297E+02   0.340362E-01
   LPB:    1  -0.269150916937354E+00   0.190976490471734E-01   0.988608E-02   0.000000E+00   0.793273E+02   0.282134E-18
   LPB:    2  -0.269143094632782E+00   0.424544858364979E-02   0.133933E-01   0.874901E-01   0.344226E+03  -0.135297E-15
   LPB:    3  -0.269141280935014E+00   0.394989495219085E-02   0.244032E-01   0.127254E+00   0.453991E+03  -0.145370E-15
   LPB:    4  -0.269140630967978E+00   0.330758609499084E-02   0.232013E-01   0.376929E+00   0.180823E+03  -0.163789E-15
  Finished solving LPB equations
  A_corr:   -0.186678886461003     
 End minimization
 Ecorr=   1963.41241278172     
 A_corr= -0.186678886461003     
 Ecorr_band=  -1963.59909166818     
 End Solvation calculations
RMM:   4    -0.181607055400E+03    0.89025E-03   -0.24689E-04  6835   0.451E-02    0.108E-01
 Begin Solvation calculations
  rms_SCF =   0.151514746048424      tol =   1.515147460484236E-002
 Begin minimization
 Creating dielectric and ionic cavities
  area:      157.040489758996     
  volume:    779.917894948224     
  Acav:     8.244625712347300E-002
  Solving linear dielectric/ionic screening model
        iter                  A_solv                     rms
   LPB:       -0.269420506876620E+00   0.763632741958743E-01
   LPB:    0  -0.269414113500716E+00   0.547927915288417E-01  -0.622190E-03   0.000000E+00   0.330304E+02  -0.205512E-01
   LPB:    1  -0.269399058101610E+00   0.102012292550028E-01   0.118029E-01   0.000000E+00   0.623706E+02  -0.885970E-18
   LPB:    2  -0.269397124243991E+00   0.412808619738991E-02   0.131489E-01   0.115301E+00   0.242879E+03   0.628967E-16
   LPB:    3  -0.269396737649570E+00   0.239470390745578E-02   0.176910E-01   0.148582E+00   0.135235E+03   0.574855E-16
   LPB:    4  -0.269396510053204E+00   0.244563679436137E-02   0.282715E-01   0.368396E+00   0.100747E+03   0.566334E-16
  Finished solving LPB equations
  A_corr:   -0.186950252929731     
 End minimization
 Ecorr=   1963.41512807634     
 A_corr= -0.186950252929731     
 Ecorr_band=  -1963.60207832927     
 End Solvation calculations
RMM:   5    -0.181607088917E+03   -0.33518E-04   -0.63625E-05  5998   0.210E-02
 Begin Solvation calculations
  rms_SCF =   0.151514746048424      tol =   1.515147460484236E-002
 Begin minimization
 Creating dielectric and ionic cavities
  area:      157.047473914239     
  volume:    779.926616275526     
  Acav:     8.244992380497569E-002
  Solving linear dielectric/ionic screening model
        iter                  A_solv                     rms
   LPB:       -0.269810375269370E+00   0.867886484783302E-01
   LPB:    0  -0.269810121466454E+00   0.852659773971163E-01  -0.123968E-03   0.000000E+00   0.330300E+02  -0.409466E-02
   LPB:    1  -0.269774713495324E+00   0.179225915511368E-01   0.122630E-01   0.000000E+00   0.632210E+02  -0.226925E-18
   LPB:    2  -0.269770438853264E+00   0.570128015669642E-02   0.120190E-01   0.123176E+00   0.225316E+03   0.575199E-17
   LPB:    3  -0.269769574678541E+00   0.150645924025947E-02   0.186777E-01   0.130091E+00   0.128719E+03   0.351860E-17
   LPB:    4  -0.269769152430200E+00   0.206669811041106E-02   0.338617E-01   0.269514E+00   0.133401E+03   0.133419E-16
  Finished solving LPB equations
  A_corr:   -0.187319228625224     
 End minimization
 Ecorr=   1963.25428838608     
 A_corr= -0.187319228625224     
 Ecorr_band=  -1963.44160761470     
 End Solvation calculations
   6 F= -.18160709E+03 E0= -.18159572E+03  d E =-.761010E-04
quench:  g(F)=  0.000E+00 g(S)=  0.000E+00 dE (1.order)= 0.000E+00
 bond charge predicted
       N       E                     dE             d eps       ncg     rms          rms(c)
 Begin Solvation calculations
  rms_SCF =   0.151514746048424      tol =   1.515147460484236E-002
 Begin minimization
 Creating dielectric and ionic cavities
  area:      157.053075799661     
  volume:    779.929357294773     
  Acav:     8.245286479482200E-002
  Solving linear dielectric/ionic screening model
        iter                  A_solv                     rms
   LPB:       -0.269800316543463E+00   0.213841993153802E-02
[...]
 Begin minimization
 Creating dielectric and ionic cavities
  area:      158.088268463089     
  volume:    780.892915590699     
  Acav:     8.299634094312160E-002
  Solving linear dielectric/ionic screening model
        iter                  A_solv                     rms
   LPB:       -0.277589153174119E+00   0.175372784334742E-01
   LPB:    0  -0.277588453241492E+00   0.858441813005979E-02  -0.206009E-03   0.000000E+00   0.329847E+02  -0.679516E-02
   LPB:    1  -0.277587594280560E+00   0.253906840218696E-02   0.117690E-01   0.000000E+00   0.134759E+03   0.393169E-18
   LPB:    2  -0.277587498026307E+00   0.124033205965957E-02   0.136235E-01   0.968045E-01   0.285041E+03   0.951321E-17
   LPB:    3  -0.277587435209258E+00   0.107535622157523E-02   0.293435E-01   0.302995E+00   0.210189E+03   0.107696E-16
   LPB:    4  -0.277587400662766E+00   0.969945386793036E-03   0.256529E-01   0.629074E+00   0.166983E+03   0.116314E-16
   LPB:    5  -0.277587364312773E+00   0.435948858226968E-03   0.316292E-01   0.853393E+00   0.225054E+03   0.162286E-16
   LPB:    6  -0.277587329649061E+00   0.131871327172571E-03   0.454927E-01   0.663005E+00   0.973623E+03   0.295739E-16
  Finished solving LPB equations
  A_corr:   -0.194590988705939     
 End minimization
 Ecorr=   1960.50797164651     
 A_corr= -0.194590988705939     
 Ecorr_band=  -1960.70256263521     
 End Solvation calculations
RMM:   5    -0.181601963620E+03   -0.19977E-04   -0.20085E-05  5731   0.144E-02
 Begin Solvation calculations
  rms_SCF =   2.833871428755626E-003 tol =   2.833871428755626E-004
 Begin minimization
 Creating dielectric and ionic cavities
  area:      158.086966920778     
  volume:    780.895015145190     
  Acav:     8.299565763340852E-002
  Solving linear dielectric/ionic screening model
        iter                  A_solv                     rms
   LPB:       -0.277619029492197E+00   0.620104210867424E-02
   LPB:    0  -0.277618958794689E+00   0.419991903541542E-02   0.654728E-04   0.000000E+00   0.329846E+02   0.215960E-02
   LPB:    1  -0.277618745730657E+00   0.165356604019588E-02   0.129632E-01   0.000000E+00   0.133069E+03   0.771872E-19
   LPB:    2  -0.277618716789999E+00   0.536471012668986E-03   0.137805E-01   0.127775E+00   0.170944E+03   0.460256E-17
   LPB:    3  -0.277618703416631E+00   0.411968954246929E-03   0.231066E-01   0.275590E+00   0.255266E+03   0.654631E-17
   LPB:    4  -0.277618695256170E+00   0.531999117765088E-03   0.305331E-01   0.461783E+00   0.168376E+03   0.724856E-17
   LPB:    5  -0.277618685584003E+00   0.273150108428894E-03   0.332519E-01   0.108834E+01   0.196317E+03   0.121699E-16
  Finished solving LPB equations
  A_corr:   -0.194623027950595     
 End minimization
 Ecorr=   1960.48449203624     
 A_corr= -0.194623027950595     
 Ecorr_band=  -1960.67911506420     
 End Solvation calculations
 205 F= -.18160196E+03 E0= -.18159038E+03  d E =0.136658E-04
quench:  g(F)=  0.000E+00 g(S)=  0.000E+00 dE (1.order)= 0.000E+00
 bond charge predicted
       N       E                     dE             d eps       ncg     rms          rms(c)
 Begin Solvation calculations
  rms_SCF =   2.833871428755626E-003 tol =   2.833871428755626E-004
 Begin minimization
 Creating dielectric and ionic cavities
  area:      158.091418870963     
  volume:    780.898071623328     
  Acav:     8.299799490725565E-002
  Solving linear dielectric/ionic screening model
        iter                  A_solv                     rms
   LPB:       -0.277650610605673E+00   0.702055038256052E-03
   LPB:    0  -0.277650610603526E+00   0.699991020934327E-03   0.360813E-06   0.000000E+00   0.329845E+02   0.119012E-04
   LPB:    1  -0.277612225787877E+00   0.246519344178664E-03   0.156923E-01   0.000000E+00   0.636251E+06   0.911754E-22
   LPB:    2  -0.277607819071361E+00   0.263795066328836E-03   0.281413E-01   0.640174E-01   0.176348E+06   0.158224E-18
   LPB:    3  -0.277606318892884E+00   0.537924986835802E-03   0.331738E-01   0.288786E+00   0.347027E+05   0.361756E-18
   LPB:    4  -0.277605651556244E+00   0.136148744506772E-02   0.356111E-01   0.414392E+00   0.421054E+04   0.124900E-18
   LPB:    5  -0.277605348577374E+00   0.295804741932110E-02   0.315124E-01   0.513064E+00   0.412450E+03  -0.257366E-17
   LPB:    6  -0.277605203303678E+00   0.208241347149867E-02   0.193237E-01   0.781927E+00   0.166456E+03  -0.448043E-17
   LPB:    7  -0.277605080273889E+00   0.125123330429899E-02   0.266772E-01   0.613441E+00   0.422502E+03  -0.322410E-17
   LPB:    8  -0.277605010761982E+00   0.135402301372039E-02   0.262251E-01   0.574742E+00   0.202167E+03  -0.188872E-17
   LPB:    9  -0.277604960037282E+00   0.561138978742938E-03   0.247603E-01   0.772898E+00   0.221789E+03  -0.555276E-18
   LPB:   10  -0.277604920584373E+00   0.180760194415444E-03   0.364646E-01   0.528133E+00   0.102745E+04   0.763206E-17
  Finished solving LPB equations
  A_corr:   -0.194606925677117     
 End minimization
 Ecorr=   1960.48763495515     
 A_corr= -0.194606925677117     
 Ecorr_band=  -1960.68224188083     
 End Solvation calculations
DAV:   1    -0.181601897369E+03    0.46274E-04   -0.22366E-03 10494   0.790E-02    0.203E-02
 Begin Solvation calculations
  rms_SCF =   2.833871428755626E-003 tol =   2.833871428755626E-004
 Begin minimization
 Creating dielectric and ionic cavities
  area:      158.091480133569     
  volume:    780.874561793507     
  Acav:     8.299802707012374E-002
  Solving linear dielectric/ionic screening model
        iter                  A_solv                     rms
   LPB:       -0.277856814874401E+00   0.809098947734531E-01
   LPB:    0  -0.277851600023844E+00   0.682001187936491E-01  -0.562307E-03   0.000000E+00   0.329856E+02  -0.185480E-01
   LPB:    1  -0.277835797429744E+00   0.812548920461779E-02   0.939501E-02   0.000000E+00   0.743399E+02  -0.177443E-17
   LPB:    2  -0.277834021917006E+00   0.192163293707124E-02   0.140932E-01   0.749002E-01   0.258919E+03   0.394388E-16
   LPB:    3  -0.277833689237418E+00   0.197728163399256E-02   0.234552E-01   0.112583E+00   0.380099E+03   0.308325E-16
   LPB:    4  -0.277833576467282E+00   0.114101025606484E-02   0.208170E-01   0.381935E+00   0.130739E+03   0.313896E-16
   LPB:    5  -0.277833512195987E+00   0.489057951183575E-03   0.267876E-01   0.442900E+00   0.387437E+03   0.296305E-16
   LPB:    6  -0.277833476613853E+00   0.246946210890583E-03   0.324700E-01   0.456738E+00   0.377091E+03   0.248887E-16
  Finished solving LPB equations
  A_corr:   -0.194835449543729     
 End minimization
 Ecorr=   1960.55621084640     
 A_corr= -0.194835449543729     
 Ecorr_band=  -1960.75104629595     
 End Solvation calculations
RMM:   2    -0.181602009409E+03   -0.11204E-03   -0.78134E-05  6057   0.159E-02    0.143E-01
 Begin Solvation calculations
  rms_SCF =   2.833871428755626E-003 tol =   2.833871428755626E-004
 Begin minimization
 Creating dielectric and ionic cavities
  area:      158.092383596561     
  volume:    780.892634852843     
  Acav:     8.299850138819453E-002
  Solving linear dielectric/ionic screening model
        iter                  A_solv                     rms
   LPB:       -0.277740462352331E+00   0.989215410950570E-01
   LPB:    0  -0.277737857024488E+00   0.940534641613404E-01   0.397456E-03   0.000000E+00   0.329848E+02   0.131100E-01
   LPB:    1  -0.277712579308696E+00   0.815336301078574E-02   0.878602E-02   0.000000E+00   0.733975E+02  -0.709339E-18
   LPB:    2  -0.277710524573546E+00   0.201527077096975E-02   0.143728E-01   0.496900E-01   0.206093E+03  -0.361284E-16
   LPB:    3  -0.277710212757389E+00   0.173292810418579E-02   0.241254E-01   0.904085E-01   0.184450E+03  -0.345591E-16
   LPB:    4  -0.277710111466402E+00   0.105719228998754E-02   0.218703E-01   0.358337E+00   0.164335E+03  -0.254607E-16
   LPB:    5  -0.277710060715956E+00   0.463875934698287E-03   0.240798E-01   0.455062E+00   0.376721E+03  -0.275639E-16
   LPB:    6  -0.277710032822093E+00   0.300209026235593E-03   0.310263E-01   0.426572E+00   0.487856E+03  -0.287323E-16
   LPB:    7  -0.277710015325893E+00   0.171144579160752E-03   0.340357E-01   0.571782E+00   0.575202E+03  -0.283780E-16
  Finished solving LPB equations
  A_corr:   -0.194711513937698     
 End minimization
 Ecorr=   1960.49074838848     
 A_corr= -0.194711513937698     
 Ecorr_band=  -1960.68545990241     
 End Solvation calculations
RMM:   3    -0.181601910308E+03    0.99101E-04   -0.25921E-05  5727   0.136E-02
 Begin Solvation calculations
  rms_SCF =   2.833871428755626E-003 tol =   2.833871428755626E-004
 Begin minimization
 Creating dielectric and ionic cavities
  area:      158.089871929852     
  volume:    780.897779647856     
  Acav:     8.299718276317229E-002
  Solving linear dielectric/ionic screening model
        iter                  A_solv                     rms
   LPB:       -0.277639891534987E+00   0.427085551204553E-01
   LPB:    0  -0.277639548549138E+00   0.410529492326344E-01   0.144211E-03   0.000000E+00   0.329845E+02   0.475673E-02
   LPB:    1  -0.277634659756643E+00   0.433899378349803E-02   0.890514E-02   0.000000E+00   0.722929E+02  -0.338751E-18
   LPB:    2  -0.277634115563097E+00   0.758566943808019E-03   0.157836E-01   0.628038E-01   0.158428E+03   0.827801E-17
   LPB:    3  -0.277634031562642E+00   0.388005613431453E-03   0.228106E-01   0.106807E+00   0.271651E+03   0.127743E-16
   LPB:    4  -0.277633998194067E+00   0.623907973270803E-03   0.298400E-01   0.303664E+00   0.313693E+03   0.149238E-16
   LPB:    5  -0.277633984102888E+00   0.483065830553332E-03   0.233421E-01   0.539845E+00   0.156193E+03   0.160095E-16
   LPB:    6  -0.277633975283494E+00   0.205634678252334E-03   0.272168E-01   0.536777E+00   0.225884E+03   0.209519E-16
  Finished solving LPB equations
  A_corr:   -0.194636792520322     
 End minimization
 Ecorr=   1960.48737713433     
 A_corr= -0.194636792520322     
 Ecorr_band=  -1960.68201392685     
 End Solvation calculations
 206 F= -.18160191E+03 E0= -.18159033E+03  d E =0.533115E-04
quench:  g(F)=  0.000E+00 g(S)=  0.000E+00 dE (1.order)= 0.000E+00
 bond charge predicted
       N       E                     dE             d eps       ncg     rms          rms(c)
 Begin Solvation calculations
  rms_SCF =   2.833871428755626E-003 tol =   2.833871428755626E-004
 Begin minimization
 Creating dielectric and ionic cavities
  area:      158.095836552123     
  volume:    780.903830199406     
  Acav:     8.300031418986469E-002
  Solving linear dielectric/ionic screening model
        iter                  A_solv                     rms
   LPB:       -0.277703151120066E+00   0.986803452255477E-03
   LPB:    0  -0.277703151113909E+00   0.999098260503153E-03   0.610989E-06   0.000000E+00   0.329842E+02   0.201530E-04
   LPB:    1  -0.277628150293921E+00   0.406288805255779E-03   0.156057E-01   0.000000E+00   0.531332E+06  -0.103373E-20
   LPB:    2  -0.277619989928616E+00   0.462279761198456E-03   0.279609E-01   0.607264E-01   0.106211E+06  -0.937184E-18
   LPB:    3  -0.277617202363113E+00   0.906249913489135E-03   0.331388E-01   0.288223E+00   0.222950E+05  -0.243357E-17
   LPB:    4  -0.277615972289276E+00   0.196804779688844E-02   0.353307E-01   0.413895E+00   0.237702E+04  -0.217007E-17
   LPB:    5  -0.277615411813469E+00   0.359629428615026E-02   0.312123E-01   0.515765E+00   0.334293E+03  -0.100398E-17
   LPB:    6  -0.277615123726647E+00   0.258599454793167E-02   0.215067E-01   0.745966E+00   0.165661E+03   0.154228E-16
   LPB:    7  -0.277614901681170E+00   0.217293287125087E-02   0.270497E-01   0.612815E+00   0.379746E+03   0.261414E-16
   LPB:    8  -0.277614779581211E+00   0.205970689030430E-02   0.227708E-01   0.653216E+00   0.174539E+03   0.345221E-16
   LPB:    9  -0.277614675195396E+00   0.650999254975202E-03   0.252889E-01   0.769795E+00   0.287221E+03   0.331745E-16
   LPB:   10  -0.277614595343041E+00   0.176389016602965E-03   0.381418E-01   0.507195E+00   0.228819E+04   0.148076E-16
  Finished solving LPB equations
  A_corr:   -0.194614281153176     
 End minimization
 Ecorr=   1960.48813156446     
 A_corr= -0.194614281153176     
 Ecorr_band=  -1960.68274584561     
 End Solvation calculations
DAV:   1    -0.181601853624E+03    0.15579E-03   -0.45617E-03 11064   0.118E-01    0.781E-02
 Begin Solvation calculations
  rms_SCF =   2.833871428755626E-003 tol =   2.833871428755626E-004
 Begin minimization
 Creating dielectric and ionic cavities
  area:      158.092342896357     
  volume:    780.783266298360     
  Acav:     8.299848002058724E-002
  Solving linear dielectric/ionic screening model
        iter                  A_solv                     rms
   LPB:       -0.279543389050239E+00   0.341199912074171E+00
   LPB:    0  -0.279389240245134E+00   0.239223245066085E+00  -0.305699E-02   0.000000E+00   0.329899E+02  -0.100850E+00
   LPB:    1  -0.279136904730519E+00   0.462297947252280E-01   0.101862E-01   0.000000E+00   0.765482E+02   0.225263E-17
   LPB:    2  -0.279102346575294E+00   0.105165834572725E-01   0.138704E-01   0.100576E+00   0.207199E+03   0.431669E-15
   LPB:    3  -0.279094748329258E+00   0.984572339571697E-02   0.220439E-01   0.138345E+00   0.389498E+03   0.442573E-15
   LPB:    4  -0.279092079662137E+00   0.571740646283295E-02   0.201476E-01   0.384278E+00   0.128164E+03   0.368402E-15
   LPB:    5  -0.279090592857284E+00   0.227024173787478E-02   0.274042E-01   0.409605E+00   0.308488E+03   0.340471E-15
   LPB:    6  -0.279089859076648E+00   0.947785005114837E-03   0.328114E-01   0.412197E+00   0.394331E+03   0.302033E-15
   LPB:    7  -0.279089473361822E+00   0.622861226568417E-03   0.326543E-01   0.528183E+00   0.582122E+03   0.295782E-15
   LPB:    8  -0.279089247031419E+00   0.449329520334254E-03   0.340906E-01   0.562061E+00   0.683522E+03   0.292482E-15
   LPB:    9  -0.279089109651250E+00   0.311450645747270E-03   0.360699E-01   0.573681E+00   0.568208E+03   0.292170E-15
   LPB:   10  -0.279089024369364E+00   0.220562021444104E-03   0.375613E-01   0.596125E+00   0.665266E+03   0.292182E-15
  Finished solving LPB equations
  A_corr:   -0.196090544348777     
 End minimization
 Ecorr=   1960.71802418690     
 A_corr= -0.196090544348777     
 Ecorr_band=  -1960.91411473125     
 End Solvation calculations
RMM:   2    -0.181604117751E+03   -0.22641E-02   -0.67159E-04  7681   0.403E-02    0.682E-01
 Begin Solvation calculations
  rms_SCF =   2.833871428755626E-003 tol =   2.833871428755626E-004
 Begin minimization
 Creating dielectric and ionic cavities
  area:      158.351196064577     
  volume:    780.892265742067     
  Acav:     8.313437793390271E-002
  Solving linear dielectric/ionic screening model
        iter                  A_solv                     rms
   LPB:       -0.278664358834863E+00   0.386352261564807E+00
   LPB:    0  -0.278570889427516E+00   0.338263461754335E+00   0.238064E-02   0.000000E+00   0.329848E+02   0.785247E-01
   LPB:    1  -0.278203908844817E+00   0.343923542927882E-01   0.910877E-02   0.000000E+00   0.751280E+02   0.274162E-17
   LPB:    2  -0.278168965334568E+00   0.860561465369128E-02   0.140451E-01   0.617531E-01   0.244112E+03   0.438654E-15
   LPB:    3  -0.278162306455949E+00   0.910266601973175E-02   0.247988E-01   0.107926E+00   0.293169E+03   0.480978E-15
   LPB:    4  -0.278159793058126E+00   0.536976959293081E-02   0.215633E-01   0.434086E+00   0.143024E+03   0.488556E-15
   LPB:    5  -0.278158266859451E+00   0.226221904760139E-02   0.274021E-01   0.477839E+00   0.421482E+03   0.523845E-15
   LPB:    6  -0.278157392746652E+00   0.122622961001859E-02   0.325550E-01   0.482083E+00   0.525688E+03   0.541544E-15
   LPB:    7  -0.278156899089381E+00   0.804810086052907E-03   0.330499E-01   0.556296E+00   0.954471E+03   0.554678E-15
   LPB:    8  -0.278156587290463E+00   0.510472626889613E-03   0.355669E-01   0.586913E+00   0.133530E+04   0.560232E-15
   LPB:    9  -0.278156381460144E+00   0.330160088542102E-03   0.375329E-01   0.625559E+00   0.135237E+04   0.564401E-15
   LPB:   10  -0.278156247302416E+00   0.240856885418637E-03   0.384446E-01   0.636331E+00   0.257963E+04   0.566617E-15
  Finished solving LPB equations
  A_corr:   -0.195021869368513     
 End minimization
 Ecorr=   1960.44356676259     
 A_corr= -0.195021869368513     
 Ecorr_band=  -1960.63858863196     
 End Solvation calculations
RMM:   3    -0.181602212151E+03    0.19056E-02   -0.48489E-04  7362   0.540E-02    0.235E-01
 Begin Solvation calculations
  rms_SCF =   2.833871428755626E-003 tol =   2.833871428755626E-004
 Begin minimization
 Creating dielectric and ionic cavities
  area:      158.090567035571     
  volume:    780.889664474829     
  Acav:     8.299754769367454E-002
  Solving linear dielectric/ionic screening model
        iter                  A_solv                     rms
   LPB:       -0.278054886145651E+00   0.154305119027753E+00
   LPB:    0  -0.278054166175116E+00   0.153222211663049E+00   0.208937E-03   0.000000E+00   0.329849E+02   0.689176E-02
   LPB:    1  -0.277982667967412E+00   0.152586410265684E-01   0.896870E-02   0.000000E+00   0.754796E+02  -0.173281E-18
   LPB:    2  -0.277975076363328E+00   0.310181015601693E-02   0.151328E-01   0.629288E-01   0.222246E+03   0.744420E-17
   LPB:    3  -0.277973587422860E+00   0.134915539797124E-02   0.258937E-01   0.114622E+00   0.214376E+03   0.943897E-17
   LPB:    4  -0.277972861245035E+00   0.100455220988972E-02   0.367589E-01   0.343556E+00   0.147071E+04  -0.162905E-16
   LPB:    5  -0.277972481613493E+00   0.143777483941995E-02   0.330344E-01   0.581722E+00   0.685343E+03  -0.332205E-16
   LPB:    6  -0.277972266635917E+00   0.135286622964374E-02   0.299289E-01   0.625038E+00   0.317528E+03  -0.272829E-16
   LPB:    7  -0.277972146943327E+00   0.134024625307278E-02   0.287673E-01   0.579251E+00   0.271832E+03  -0.320002E-16
   LPB:    8  -0.277972070900034E+00   0.816889205580352E-03   0.260265E-01   0.702226E+00   0.246314E+03  -0.394993E-16
   LPB:    9  -0.277972013488750E+00   0.361427091716433E-03   0.324630E-01   0.605290E+00   0.531775E+03  -0.440146E-16
   LPB:   10  -0.277971976911696E+00   0.160021096631477E-03   0.369992E-01   0.558994E+00   0.125833E+04  -0.494552E-16
  Finished solving LPB equations
  A_corr:   -0.194974429218022     
 End minimization
 Ecorr=   1960.47408743050     
 A_corr= -0.194974429218022     
 Ecorr_band=  -1960.66906185972     
 End Solvation calculations
RMM:   4    -0.181601830121E+03    0.38203E-03   -0.13586E-04  6475   0.384E-02    0.352E-02
 Begin Solvation calculations
  rms_SCF =   2.833871428755626E-003 tol =   2.833871428755626E-004
 Begin minimization
 Creating dielectric and ionic cavities
  area:      158.090646869244     
  volume:    780.885552706111     
  Acav:     8.299758960635316E-002
  Solving linear dielectric/ionic screening model
        iter                  A_solv                     rms
   LPB:       -0.278031602859388E+00   0.177132365325785E-01
   LPB:    0  -0.278030897627966E+00   0.827563065202953E-02  -0.206786E-03   0.000000E+00   0.329851E+02  -0.682087E-02
   LPB:    1  -0.278030457802456E+00   0.197948627081973E-02   0.115465E-01   0.000000E+00   0.730684E+02  -0.378246E-18
   LPB:    2  -0.278030384806492E+00   0.946493358484480E-03   0.143585E-01   0.133463E+00   0.226504E+03   0.267420E-16
   LPB:    3  -0.278030360330818E+00   0.790217866955264E-03   0.230386E-01   0.208972E+00   0.126914E+03   0.313599E-16
   LPB:    4  -0.278030342591578E+00   0.509792980487442E-03   0.274332E-01   0.608667E+00   0.143397E+03   0.337917E-16
   LPB:    5  -0.278030325440712E+00   0.235620282735533E-03   0.332648E-01   0.797338E+00   0.705784E+03   0.347748E-16
  Finished solving LPB equations
  A_corr:   -0.195032735834359     
 End minimization
 Ecorr=   1960.50194769818     
 A_corr= -0.195032735834359     
 Ecorr_band=  -1960.69698043402     
 End Solvation calculations
RMM:   5    -0.181601835621E+03   -0.55000E-05   -0.17961E-05  5732   0.108E-02
