 vasp.5.4.4.18Apr17-6-g9f103f2a35 (build Feb 06 2024 13:54:16) complex          
  
 POSCAR found type information on POSCAR  Cu Ru Cu N  O 
 02/POSCAR found :  5 types and      40 ions
 scaLAPACK will be used

 ----------------------------------------------------------------------------- 
|                                                                             |
|  ADVICE TO THIS USER RUNNING 'VASP/VAMP'   (HEAR YOUR MASTER'S VOICE ...):  |
|                                                                             |
|      You enforced a specific xc-type in the INCAR file,                     |
|      a different type was found on the POTCAR file                          |
|          I HOPE YOU KNOW, WHAT YOU ARE  DOING                               |
|                                                                             |
 ----------------------------------------------------------------------------- 

 LDA part: xc-table for Pade appr. of Perdew
 POSCAR found type information on POSCAR  Cu Ru Cu N  O 
 00/POSCAR found :  5 types and      40 ions
 POSCAR found type information on POSCAR  Cu Ru Cu N  O 
 06/POSCAR found :  5 types and      40 ions
 Jacobian:    19.9537150754471     
 POSCAR, INCAR and KPOINTS ok, starting setup
 FFT: planning ...
 WAVECAR not read
 entering main loop
       N       E                     dE             d eps       ncg     rms          rms(c)
  Solvation turned off during non-self-consistent phase (first NELMDL steps)
DAV:   1     0.450658960455E+04    0.45066E+04   -0.18227E+05 12240   0.211E+03
DAV:   2     0.686710155992E+03   -0.38199E+04   -0.36846E+04 12357   0.490E+02
DAV:   3    -0.223288270347E+02   -0.70904E+03   -0.65597E+03 14049   0.245E+02
DAV:   4    -0.151527395185E+03   -0.12920E+03   -0.11233E+03 21735   0.979E+01
DAV:   5    -0.166956130704E+03   -0.15429E+02   -0.15172E+02 18711   0.329E+01    0.453E+01
 Begin Solvation calculations
  rms_SCF =    6.74128708256336      tol =   0.674128708256336     
 Begin minimization
 Creating dielectric and ionic cavities
  area:      163.489581780273     
  volume:    658.972962016841     
  Acav:     8.583203043464327E-002
  Solving linear dielectric/ionic screening model
        iter                  A_solv                     rms
   LPB:       -0.363418008568911E+03   0.271418330112139E+03
   LPB:    0  -0.776877570774037E+01   0.425720217633949E+02  -0.504049E+01   0.000000E+00   0.279966E+02  -0.141117E+03
   LPB:    1  -0.131366830731690E+01   0.582428280923998E+01   0.985308E-02   0.000000E+00   0.722466E+02   0.781170E-14
   LPB:    2  -0.485294308307630E+00   0.908286766002656E+00   0.144376E-01   0.875789E-01   0.313782E+03  -0.145195E-13
   LPB:    3  -0.305595909375882E+00   0.104621386003474E+01   0.265341E-01   0.118034E+00   0.615253E+03  -0.114740E-13
   LPB:    4  -0.247109475926891E+00   0.831659061107790E+00   0.271676E-01   0.317881E+00   0.779367E+02  -0.104105E-13
   LPB:    5  -0.220043823265939E+00   0.621943691573080E+00   0.234062E-01   0.537136E+00   0.440484E+03  -0.619027E-14
  Finished solving LPB equations
  A_corr:   -0.134211792831296     
 End minimization
 Ecorr=   2024.18487702062     
 A_corr= -0.134211792831296     
 Ecorr_band=  -2024.31908881345     
 End Solvation calculations
RMM:   6    -0.176987700702E+03   -0.10032E+02   -0.37690E+02 12523   0.959E+01    0.404E+01
 Begin Solvation calculations
  rms_SCF =    6.74128708256336      tol =   0.674128708256336     
 Begin minimization
 Creating dielectric and ionic cavities
  area:      163.151199279148     
  volume:    663.609259500046     
  Acav:     8.565437962155267E-002
  Solving linear dielectric/ionic screening model
        iter                  A_solv                     rms
   LPB:       -0.204157283989593E+02   0.871968201386081E+02
   LPB:    0  -0.202546988790022E+02   0.870252075219692E+02   0.107673E+00   0.000000E+00   0.277793E+02   0.299108E+01
   LPB:    1  -0.193844737766403E+01   0.818719437218575E+01   0.881867E-02   0.000000E+00   0.621947E+02   0.768013E-16
   LPB:    2  -0.499595816450011E+00   0.177533907634816E+01   0.160940E-01   0.430447E-01   0.110001E+03  -0.368197E-14
   LPB:    3  -0.310236844103528E+00   0.637751565008038E+00   0.220946E-01   0.958622E-01   0.121443E+03   0.115780E-14
   LPB:    4  -0.258486571160567E+00   0.657131038745770E+00   0.268609E-01   0.224797E+00   0.308371E+03   0.726961E-14
  Finished solving LPB equations
  A_corr:   -0.172832191539015     
 End minimization
 Ecorr=   1951.97548112879     
 A_corr= -0.172832191539015     
 Ecorr_band=  -1952.14831332033     
 End Solvation calculations
RMM:   7    -0.160693196375E+03    0.16295E+02   -0.12798E+02 12615   0.490E+01    0.228E+01
 Begin Solvation calculations
  rms_SCF =    6.74128708256336      tol =   0.674128708256336     
 Begin minimization
 Creating dielectric and ionic cavities
  area:      165.931063050695     
  volume:    666.273689948807     
  Acav:     8.711380810161493E-002
  Solving linear dielectric/ionic screening model
        iter                  A_solv                     rms
   LPB:       -0.123552397848699E+02   0.674038082135245E+02
   LPB:    0  -0.123116278530889E+02   0.673411342617547E+02   0.561611E-01   0.000000E+00   0.276544E+02   0.155310E+01
   LPB:    1  -0.123115999723428E+01   0.629587985188372E+01   0.891405E-02   0.000000E+00   0.614998E+02  -0.878961E-17
   LPB:    2  -0.324670929048899E+00   0.102902539035834E+01   0.158967E-01   0.458745E-01   0.118967E+03  -0.878911E-15
   LPB:    3  -0.212869761093678E+00   0.482557427375435E+00   0.211442E-01   0.927259E-01   0.256964E+03  -0.220123E-15
   LPB:    4  -0.190473951891512E+00   0.199623785481397E+00   0.255987E-01   0.165460E+00   0.201494E+03  -0.329967E-14
  Finished solving LPB equations
  A_corr:   -0.103360143789897     
 End minimization
 Ecorr=   1920.53521354434     
 A_corr= -0.103360143789897     
 Ecorr_band=  -1920.63857368813     
 End Solvation calculations
RMM:   8    -0.143044071507E+03    0.17649E+02   -0.94804E+00 12572   0.125E+01    0.151E+01
 Begin Solvation calculations
  rms_SCF =    5.51299061399674      tol =   0.551299061399674     
 Begin minimization
 Creating dielectric and ionic cavities
  area:      154.985026089038     
  volume:    665.559834542887     
  Acav:     8.136713869674485E-002
  Solving linear dielectric/ionic screening model
        iter                  A_solv                     rms
   LPB:       -0.124100729136974E+01   0.195786393420787E+02
   LPB:    0  -0.122587515863927E+01   0.193171289276321E+02  -0.330614E-01   0.000000E+00   0.276878E+02  -0.915397E+00
   LPB:    1  -0.303071515829871E+00   0.208757977500553E+01   0.899335E-02   0.000000E+00   0.604729E+02   0.228576E-16
   LPB:    2  -0.202668624786326E+00   0.414254853808278E+00   0.175590E-01   0.557260E-01   0.897750E+02  -0.147269E-14
   LPB:    3  -0.187502071708500E+00   0.212686160340663E+00   0.221248E-01   0.119884E+00   0.175384E+03  -0.862296E-14
   LPB:    4  -0.181242816134305E+00   0.135995759856504E+00   0.332008E-01   0.275022E+00   0.762607E+02  -0.128949E-13
  Finished solving LPB equations
  A_corr:   -9.987567743756030E-002
 End minimization
 Ecorr=   1895.09628234517     
 A_corr= -9.987567743756030E-002
 Ecorr_band=  -1895.19615802261     
 End Solvation calculations
RMM:   9    -0.139434237941E+03    0.36098E+01   -0.49857E+00 12619   0.948E+00    0.643E+00
 Begin Solvation calculations
  rms_SCF =    5.51299061399674      tol =   0.551299061399674     
 Begin minimization
 Creating dielectric and ionic cavities
  area:      141.791642058706     
  volume:    664.808205147935     
  Acav:     7.444061208082048E-002
  Solving linear dielectric/ionic screening model
        iter                  A_solv                     rms
   LPB:       -0.893426594894002E+00   0.147760059614217E+02
   LPB:    0  -0.889958804544790E+00   0.148490016363409E+02   0.158169E-01   0.000000E+00   0.277231E+02   0.438492E+00
   LPB:    1  -0.297578605964055E+00   0.146816720829888E+01   0.915961E-02   0.000000E+00   0.633325E+02   0.310145E-17
   LPB:    2  -0.244793157862974E+00   0.257880534684368E+00   0.150166E-01   0.543525E-01   0.136875E+03  -0.586472E-14
   LPB:    3  -0.232422305307038E+00   0.261586359657724E+00   0.291008E-01   0.120935E+00   0.205429E+03  -0.859874E-14
   LPB:    4  -0.224958074717106E+00   0.212415792197868E+00   0.376625E-01   0.466210E+00   0.529368E+02  -0.933679E-14
  Finished solving LPB equations
  A_corr:   -0.150517462636285     
 End minimization
 Ecorr=   1849.61929172426     
 A_corr= -0.150517462636285     
 Ecorr_band=  -1849.76980918690     
 End Solvation calculations
RMM:  10    -0.139442200544E+03   -0.79626E-02   -0.21920E+00 12725   0.393E+00    0.111E+01
 Begin Solvation calculations
  rms_SCF =    5.51299061399674      tol =   0.551299061399674     
 Begin minimization
 Creating dielectric and ionic cavities
  area:      135.150204457054     
  volume:    663.716949071980     
  Acav:     7.095385733995341E-002
  Solving linear dielectric/ionic screening model
        iter                  A_solv                     rms
   LPB:       -0.278020101479064E+00   0.108455909915652E+01
   LPB:    0  -0.270056969890317E+00   0.694081248685520E+00   0.239462E-01   0.000000E+00   0.277742E+02   0.665086E+00
   LPB:    1  -0.247703123196656E+00   0.423659097033515E+00   0.168751E-01   0.000000E+00   0.269413E+03   0.485682E-17
   LPB:    2  -0.242821639544477E+00   0.432689824971069E+00   0.234804E-01   0.156943E+00   0.486337E+02  -0.414593E-14
   LPB:    3  -0.238220189259383E+00   0.478366448957115E+00   0.287122E-01   0.770870E+00   0.682972E+02  -0.700608E-14
   LPB:    4  -0.233565073081310E+00   0.414120361035432E+00   0.327184E-01   0.887789E+00   0.738631E+02  -0.967099E-14
  Finished solving LPB equations
  A_corr:   -0.162611215741356     
 End minimization
 Ecorr=   1817.98732731022     
 A_corr= -0.162611215741356     
 Ecorr_band=  -1818.14993852596     
 End Solvation calculations
RMM:  11    -0.138608785280E+03    0.83342E+00   -0.97145E-01 12632   0.247E+00    0.346E+00
 Begin Solvation calculations
  rms_SCF =    1.38110907595937      tol =   0.138110907595937     
 Begin minimization
 Creating dielectric and ionic cavities
  area:      132.772925373665     
  volume:    659.911919719019     
  Acav:     6.970578582117397E-002
  Solving linear dielectric/ionic screening model
        iter                  A_solv                     rms
   LPB:       -0.375894778033951E+00   0.284398025632112E+01
   LPB:    0  -0.375624059796178E+00   0.263905905949735E+01  -0.440111E-02   0.000000E+00   0.279526E+02  -0.123023E+00
   LPB:    1  -0.294010241944354E+00   0.691962973520101E+00   0.153081E-01   0.000000E+00   0.616038E+02  -0.691027E-17
   LPB:    2  -0.283385266092457E+00   0.394439734553236E+00   0.164353E-01   0.121257E+00   0.215367E+03  -0.595055E-14
   LPB:    3  -0.278398771451735E+00   0.367204137236505E+00   0.276910E-01   0.278552E+00   0.601140E+02  -0.765565E-14
   LPB:    4  -0.274671776692678E+00   0.433384708519447E+00   0.317776E-01   0.651301E+00   0.676607E+02  -0.694533E-14
   LPB:    5  -0.271629430502235E+00   0.222067962313635E+00   0.230929E-01   0.112329E+01   0.973272E+02  -0.619451E-14
   LPB:    6  -0.268783533828757E+00   0.791735353142816E-01   0.309082E-01   0.698903E+00   0.698908E+02  -0.550269E-14
  Finished solving LPB equations
  A_corr:   -0.199077748007583     
 End minimization
 Ecorr=   1774.78633332925     
 A_corr= -0.199077748007583     
 Ecorr_band=  -1774.98541107726     
 End Solvation calculations
RMM:  12    -0.138690124390E+03   -0.81339E-01   -0.27876E-01 12616   0.169E+00    0.434E+00
 Begin Solvation calculations
  rms_SCF =    1.38110907595937      tol =   0.138110907595937     
 Begin minimization
 Creating dielectric and ionic cavities
  area:      133.348821845088     
  volume:    657.885246512207     
  Acav:     7.000813146867144E-002
  Solving linear dielectric/ionic screening model
        iter                  A_solv                     rms
   LPB:       -0.312652509467248E+00   0.125807648778798E+01
   LPB:    0  -0.312614008099184E+00   0.118369708899693E+01  -0.165693E-02   0.000000E+00   0.280476E+02  -0.464730E-01
   LPB:    1  -0.291372256461160E+00   0.458353095998215E+00   0.157990E-01   0.000000E+00   0.781464E+02   0.284994E-17
   LPB:    2  -0.288691289227178E+00   0.180090921887284E+00   0.163786E-01   0.121746E+00   0.104739E+03  -0.123390E-13
   LPB:    3  -0.287862028989440E+00   0.104741114752158E+00   0.213840E-01   0.236912E+00   0.119124E+03  -0.137780E-13
   LPB:    4  -0.286948202891210E+00   0.214071219163624E+00   0.388239E-01   0.606965E+00   0.608273E+02  -0.131221E-13
   LPB:    5  -0.285680022065645E+00   0.216811757709922E+00   0.315418E-01   0.170817E+01   0.796346E+02  -0.123423E-13
   LPB:    6  -0.284355407115244E+00   0.774597529829485E-01   0.304352E-01   0.108248E+01   0.319597E+02  -0.116554E-13
  Finished solving LPB equations
  A_corr:   -0.214347275646572     
 End minimization
 Ecorr=   1751.85438190752     
 A_corr= -0.214347275646572     
 Ecorr_band=  -1752.06872918317     
 End Solvation calculations
RMM:  13    -0.138567620745E+03    0.12250E+00   -0.78472E-02 12602   0.120E+00    0.349E+00
 Begin Solvation calculations
  rms_SCF =    1.38110907595937      tol =   0.138110907595937     
 Begin minimization
 Creating dielectric and ionic cavities
  area:      134.091926565509     
  volume:    656.030803085444     
  Acav:     7.039826144689225E-002
  Solving linear dielectric/ionic screening model
        iter                  A_solv                     rms
   LPB:       -0.322448307028347E+00   0.140214545227611E+01
   LPB:    0  -0.322130507657002E+00   0.119512721431851E+01  -0.475304E-02   0.000000E+00   0.281346E+02  -0.133725E+00
   LPB:    1  -0.304740888979046E+00   0.600993692575830E+00   0.141559E-01   0.000000E+00   0.822896E+02   0.838253E-17
   LPB:    2  -0.302396126455209E+00   0.134862603307362E+00   0.136685E-01   0.139645E+00   0.795032E+02  -0.277754E-15
   LPB:    3  -0.301873723759955E+00   0.892429853801897E-01   0.177815E-01   0.171262E+00   0.269141E+03  -0.323578E-15
   LPB:    4  -0.301618056824577E+00   0.792055191571372E-01   0.258067E-01   0.337213E+00   0.627130E+02  -0.347539E-15
  Finished solving LPB equations
  A_corr:   -0.231219795377685     
 End minimization
 Ecorr=   1741.60535481765     
 A_corr= -0.231219795377685     
 Ecorr_band=  -1741.83657461303     
 End Solvation calculations
RMM:  14    -0.138471158416E+03    0.96462E-01   -0.42075E-02 12817   0.702E-01    0.232E+00
 Begin Solvation calculations
  rms_SCF =    1.07815298280433      tol =   0.107815298280433     
 Begin minimization
 Creating dielectric and ionic cavities
  area:      135.007756748918     
  volume:    654.113753669545     
  Acav:     7.087907229318174E-002
  Solving linear dielectric/ionic screening model
        iter                  A_solv                     rms
   LPB:       -0.348681388743516E+00   0.172358690596716E+01
   LPB:    0  -0.348160182954429E+00   0.148541021731172E+01  -0.607725E-02   0.000000E+00   0.282244E+02  -0.171527E+00
   LPB:    1  -0.326229680864490E+00   0.775339704868307E+00   0.127462E-01   0.000000E+00   0.905209E+02  -0.156011E-17
   LPB:    2  -0.322763192220453E+00   0.145438870205247E+00   0.136775E-01   0.147305E+00   0.705478E+02  -0.102045E-14
   LPB:    3  -0.321719520322795E+00   0.128569010644995E+00   0.224322E-01   0.183572E+00   0.189038E+03  -0.129339E-14
   LPB:    4  -0.321118366889062E+00   0.112582726398102E+00   0.265335E-01   0.486967E+00   0.580239E+02  -0.137210E-14
   LPB:    5  -0.320594328404183E+00   0.782621970526521E-01   0.307029E-01   0.753343E+00   0.221968E+03  -0.268056E-14
  Finished solving LPB equations
  A_corr:   -0.249715256111001     
 End minimization
 Ecorr=   1729.42401646509     
 A_corr= -0.249715256111001     
 Ecorr_band=  -1729.67373172120     
 End Solvation calculations
RMM:  15    -0.138429553680E+03    0.41605E-01   -0.25810E-02 15812   0.283E-01    0.140E+00
 Begin Solvation calculations
  rms_SCF =   0.469980918031732      tol =   4.699809180317324E-002
 Begin minimization
 Creating dielectric and ionic cavities
  area:      135.861548782716     
  volume:    652.587740893145     
  Acav:     7.132731311092566E-002
  Solving linear dielectric/ionic screening model
        iter                  A_solv                     rms
   LPB:       -0.370304907681343E+00   0.187711351082375E+01
   LPB:    0  -0.369256755165194E+00   0.150096247091824E+01  -0.860726E-02   0.000000E+00   0.282960E+02  -0.243551E+00
   LPB:    1  -0.344484472528408E+00   0.571858501016111E+00   0.148272E-01   0.000000E+00   0.691089E+02  -0.594569E-17
   LPB:    2  -0.341331162803698E+00   0.147063773992208E+00   0.144287E-01   0.130808E+00   0.915353E+02  -0.191758E-15
   LPB:    3  -0.340482921060765E+00   0.142094373844234E+00   0.240237E-01   0.161563E+00   0.149968E+03   0.161181E-15
   LPB:    4  -0.339927550743933E+00   0.158874289745031E+00   0.252180E-01   0.623722E+00   0.574349E+02  -0.271768E-16
   LPB:    5  -0.339305369751616E+00   0.880065977388997E-01   0.291648E-01   0.968692E+00   0.138821E+03  -0.348611E-15
   LPB:    6  -0.338739931059958E+00   0.352401639294054E-01   0.352178E-01   0.752604E+00   0.641018E+02  -0.419446E-15
  Finished solving LPB equations
  A_corr:   -0.267412617949032     
 End minimization
 Ecorr=   1714.90591154649     
 A_corr= -0.267412617949032     
 Ecorr_band=  -1715.17332416444     
 End Solvation calculations
RMM:  16    -0.138425702470E+03    0.38512E-02   -0.67937E-03 12825   0.261E-01    0.124E+00
 Begin Solvation calculations
  rms_SCF =   0.383357531624948      tol =   3.833575316249484E-002
 Begin minimization
 Creating dielectric and ionic cavities
  area:      136.399017641404     
  volume:    651.765965934543     
  Acav:     7.160948426173717E-002
  Solving linear dielectric/ionic screening model
        iter                  A_solv                     rms
   LPB:       -0.365597201905260E+00   0.131456789433885E+01
   LPB:    0  -0.364893911440196E+00   0.101804096526452E+01  -0.704571E-02   0.000000E+00   0.283345E+02  -0.199637E+00
   LPB:    1  -0.353257306909721E+00   0.338256724729714E+00   0.151989E-01   0.000000E+00   0.699585E+02  -0.792686E-17
   LPB:    2  -0.351833625728757E+00   0.958881286078067E-01   0.147782E-01   0.125829E+00   0.107511E+03  -0.596519E-15
   LPB:    3  -0.351531436625546E+00   0.587878351424873E-01   0.216673E-01   0.144771E+00   0.135939E+03  -0.876271E-15
   LPB:    4  -0.351327084424498E+00   0.994137280493870E-01   0.321067E-01   0.456363E+00   0.802773E+02  -0.949406E-15
   LPB:    5  -0.351080402434636E+00   0.101005715726610E+00   0.295537E-01   0.131142E+01   0.105932E+03  -0.965367E-15
   LPB:    6  -0.350734274685417E+00   0.394905895653826E-01   0.348208E-01   0.119089E+01   0.371581E+02  -0.869170E-15
   LPB:    7  -0.350520135496292E+00   0.146544730650278E-01   0.326758E-01   0.659284E+00   0.118271E+03  -0.279321E-15
  Finished solving LPB equations
  A_corr:   -0.278910651234555     
 End minimization
 Ecorr=   1704.74732541945     
 A_corr= -0.278910651234555     
 Ecorr_band=  -1705.02623607068     
 End Solvation calculations
RMM:  17    -0.138414824274E+03    0.10878E-01   -0.54660E-03 13024   0.217E-01    0.796E-01
 Begin Solvation calculations
  rms_SCF =   0.261343878736063      tol =   2.613438787360627E-002
 Begin minimization
 Creating dielectric and ionic cavities
  area:      137.106983486188     
  volume:    650.952661819648     
  Acav:     7.198116633024865E-002
  Solving linear dielectric/ionic screening model
        iter                  A_solv                     rms
   LPB:       -0.409492235543350E+00   0.249840599625513E+01
   LPB:    0  -0.406166403144455E+00   0.191673929487601E+01  -0.153114E-01   0.000000E+00   0.283726E+02  -0.434425E+00
   LPB:    1  -0.374249226036460E+00   0.472131642082690E+00   0.151589E-01   0.000000E+00   0.591430E+02   0.191663E-16
   LPB:    2  -0.370449141738896E+00   0.157601497277312E+00   0.143454E-01   0.125812E+00   0.163936E+03  -0.151779E-16
   LPB:    3  -0.369717637953521E+00   0.963880988600195E-01   0.201761E-01   0.136868E+00   0.111855E+03   0.688965E-15
   LPB:    4  -0.369499248130261E+00   0.956553557589855E-01   0.194248E-01   0.310096E+00   0.174134E+03   0.410992E-15
   LPB:    5  -0.369369495183025E+00   0.439557263234521E-01   0.215354E-01   0.535905E+00   0.105981E+03   0.339789E-15
   LPB:    6  -0.369260896299269E+00   0.174623648135074E-01   0.330672E-01   0.545084E+00   0.108738E+03   0.308088E-15
  Finished solving LPB equations
  A_corr:   -0.297279729969021     
 End minimization
 Ecorr=   1697.08279355260     
 A_corr= -0.297279729969021     
 Ecorr_band=  -1697.38007328256     
 End Solvation calculations
RMM:  18    -0.138409296825E+03    0.55274E-02   -0.99986E-03 12866   0.182E-01    0.146E-01
 Begin Solvation calculations
  rms_SCF =   0.175802837327420      tol =   1.758028373274198E-002
 Begin minimization
 Creating dielectric and ionic cavities
  area:      137.455918197459     
  volume:    650.844942782195     
  Acav:     7.216435705366582E-002
  Solving linear dielectric/ionic screening model
        iter                  A_solv                     rms
   LPB:       -0.390764016555689E+00   0.133814188225765E+01
   LPB:    0  -0.389729901635523E+00   0.101609921807117E+01  -0.853711E-02   0.000000E+00   0.283777E+02  -0.242263E+00
   LPB:    1  -0.380527659418972E+00   0.254020482221114E+00   0.150479E-01   0.000000E+00   0.618992E+02  -0.808581E-17
   LPB:    2  -0.379469923456876E+00   0.834249838347224E-01   0.148693E-01   0.116324E+00   0.124542E+03  -0.131944E-14
   LPB:    3  -0.379236972303306E+00   0.359400015070989E-01   0.229674E-01   0.142582E+00   0.958244E+02  -0.949907E-15
   LPB:    4  -0.379088227784198E+00   0.230096993733592E-01   0.353383E-01   0.414996E+00   0.136515E+03  -0.897912E-15
   LPB:    5  -0.378949418635497E+00   0.253268333389721E-01   0.424772E-01   0.776366E+00   0.844394E+02  -0.772806E-15
   LPB:    6  -0.378855529490840E+00   0.581499253059721E-01   0.337189E-01   0.852078E+00   0.743591E+02  -0.846299E-15
   LPB:    7  -0.378799922014842E+00   0.476724139805996E-01   0.213381E-01   0.935916E+00   0.125201E+03  -0.910908E-15
   LPB:    8  -0.378746310763423E+00   0.159511980259049E-01   0.272103E-01   0.756038E+00   0.112451E+03  -0.998505E-15
  Finished solving LPB equations
  A_corr:   -0.306581953709757     
 End minimization
 Ecorr=   1691.29322394348     
 A_corr= -0.306581953709757     
 Ecorr_band=  -1691.59980589719     
 End Solvation calculations
RMM:  19    -0.138410805209E+03   -0.15084E-02   -0.16346E-03 12189   0.128E-01    0.150E-01
 Begin Solvation calculations
  rms_SCF =   0.175802837327420      tol =   1.758028373274198E-002
 Begin minimization
 Creating dielectric and ionic cavities
  area:      137.928613743914     
  volume:    650.662115088097     
  Acav:     7.241252221555509E-002
  Solving linear dielectric/ionic screening model
        iter                  A_solv                     rms
   LPB:       -0.416467253008871E+00   0.199192106644458E+01
   LPB:    0  -0.414504003908910E+00   0.158895882290859E+01  -0.117611E-01   0.000000E+00   0.283862E+02  -0.333854E+00
   LPB:    1  -0.395784409457822E+00   0.342468902619288E+00   0.149917E-01   0.000000E+00   0.543485E+02  -0.220190E-16
   LPB:    2  -0.393626123564097E+00   0.138907849437692E+00   0.140744E-01   0.122810E+00   0.194093E+03  -0.800655E-15
   LPB:    3  -0.393198426885796E+00   0.874321962825206E-01   0.186568E-01   0.149493E+00   0.106660E+03  -0.172720E-14
   LPB:    4  -0.393051464010705E+00   0.665826170940574E-01   0.184722E-01   0.347048E+00   0.149110E+03  -0.212494E-14
   LPB:    5  -0.392973906559372E+00   0.323613961872386E-01   0.228712E-01   0.426231E+00   0.110414E+03  -0.233985E-14
   LPB:    6  -0.392912630244864E+00   0.138209068472798E-01   0.339633E-01   0.532045E+00   0.109494E+03  -0.251821E-14
  Finished solving LPB equations
  A_corr:   -0.320500108029309     
 End minimization
 Ecorr=   1685.91176957874     
 A_corr= -0.320500108029309     
 Ecorr_band=  -1686.23226968677     
 End Solvation calculations
RMM:  20    -0.138412457975E+03   -0.16528E-02   -0.21522E-03 12122   0.854E-02    0.191E-01
 Begin Solvation calculations
  rms_SCF =   0.175802837327420      tol =   1.758028373274198E-002
 Begin minimization
 Creating dielectric and ionic cavities
  area:      138.123525429270     
  volume:    650.788447147149     
  Acav:     7.251485085036694E-002
  Solving linear dielectric/ionic screening model
        iter                  A_solv                     rms
   LPB:       -0.408666660384082E+00   0.131390744799838E+01
   LPB:    0  -0.407835153201739E+00   0.109078407978923E+01  -0.765490E-02   0.000000E+00   0.283803E+02  -0.217248E+00
   LPB:    1  -0.400936699239706E+00   0.215386374853392E+00   0.141131E-01   0.000000E+00   0.510223E+02  -0.240631E-18
   LPB:    2  -0.400157824062347E+00   0.999295936523402E-01   0.133246E-01   0.119587E+00   0.222597E+03   0.106837E-15
   LPB:    3  -0.399996957210995E+00   0.483737841586283E-01   0.170698E-01   0.161221E+00   0.101035E+03   0.306427E-15
   LPB:    4  -0.399914850963564E+00   0.505674790703280E-01   0.257986E-01   0.337709E+00   0.870496E+02   0.579350E-15
   LPB:    5  -0.399843370413194E+00   0.355538548640037E-01   0.302502E-01   0.742471E+00   0.824782E+02   0.596516E-15
   LPB:    6  -0.399773008730617E+00   0.133066991146587E-01   0.354738E-01   0.839401E+00   0.666655E+02   0.774247E-15
  Finished solving LPB equations
  A_corr:   -0.327258157880250     
 End minimization
 Ecorr=   1682.65564578460     
 A_corr= -0.327258157880250     
 Ecorr_band=  -1682.98290394248     
 End Solvation calculations
RMM:  21    -0.138413313581E+03   -0.85561E-03   -0.41806E-04  8135   0.529E-02    0.150E-01
 Begin Solvation calculations
  rms_SCF =   0.175802837327420      tol =   1.758028373274198E-002
 Begin minimization
 Creating dielectric and ionic cavities
  area:      138.256917917866     
  volume:    650.844498761739     
  Acav:     7.258488190687983E-002
  Solving linear dielectric/ionic screening model
        iter                  A_solv                     rms
   LPB:       -0.409679511695264E+00   0.980949523780399E+00
   LPB:    0  -0.409289738485381E+00   0.838250919964975E+00  -0.524122E-02   0.000000E+00   0.283777E+02  -0.148734E+00
   LPB:    1  -0.405659449301245E+00   0.172097527123774E+00   0.136232E-01   0.000000E+00   0.495007E+02   0.117120E-16
   LPB:    2  -0.405223473450316E+00   0.683466710481714E-01   0.128386E-01   0.127433E+00   0.221552E+03  -0.220774E-15
   LPB:    3  -0.405142442636615E+00   0.301624454976774E-01   0.166370E-01   0.143427E+00   0.119979E+03  -0.146255E-15
   LPB:    4  -0.405103996788450E+00   0.336991244489243E-01   0.276491E-01   0.285491E+00   0.795360E+02  -0.219396E-15
   LPB:    5  -0.405063480406676E+00   0.289820948818155E-01   0.347652E-01   0.838140E+00   0.759570E+02  -0.387571E-15
   LPB:    6  -0.405012458855158E+00   0.123121488783246E-01   0.393217E-01   0.111336E+01   0.481708E+02  -0.430600E-15
  Finished solving LPB equations
  A_corr:   -0.332427576948278     
 End minimization
 Ecorr=   1680.02368262168     
 A_corr= -0.332427576948278     
 Ecorr_band=  -1680.35611019863     
 End Solvation calculations
RMM:  22    -0.138413884831E+03   -0.57125E-03   -0.32280E-04  7628   0.675E-02    0.164E-01
 Begin Solvation calculations
  rms_SCF =   0.175802837327420      tol =   1.758028373274198E-002
 Begin minimization
 Creating dielectric and ionic cavities
  area:      138.419797830314     
  volume:    651.019588123258     
  Acav:     7.267039386091509E-002
  Solving linear dielectric/ionic screening model
        iter                  A_solv                     rms
   LPB:       -0.427490193315564E+00   0.182484559522100E+01
   LPB:    0  -0.426343164721419E+00   0.161177829299457E+01  -0.899242E-02   0.000000E+00   0.283695E+02  -0.255110E+00
   LPB:    1  -0.414980831020508E+00   0.320483305304973E+00   0.127374E-01   0.000000E+00   0.494144E+02   0.105113E-16
   LPB:    2  -0.413564947934859E+00   0.107578343997456E+00   0.125158E-01   0.126818E+00   0.207819E+03   0.126318E-15
   LPB:    3  -0.413324814405246E+00   0.424500439309491E-01   0.168307E-01   0.126120E+00   0.135374E+03   0.181058E-15
   LPB:    4  -0.413250884708619E+00   0.399796391657627E-01   0.239586E-01   0.216275E+00   0.906209E+02   0.209002E-15
   LPB:    5  -0.413206288440306E+00   0.270635900078702E-01   0.268560E-01   0.538145E+00   0.104795E+03   0.592460E-15
   LPB:    6  -0.413165274778377E+00   0.110245933269736E-01   0.356101E-01   0.693583E+00   0.706852E+02   0.716211E-15
  Finished solving LPB equations
  A_corr:   -0.340494880917462     
 End minimization
 Ecorr=   1676.87307014184     
 A_corr= -0.340494880917462     
 Ecorr_band=  -1677.21356502276     
 End Solvation calculations
RMM:  23    -0.138414337291E+03   -0.45246E-03   -0.60203E-04  9573   0.585E-02    0.360E-02
 Begin Solvation calculations
  rms_SCF =   9.386596673269428E-002 tol =   9.386596673269427E-003
 Begin minimization
 Creating dielectric and ionic cavities
  area:      138.604139067057     
  volume:    651.077350618340     
  Acav:     7.276717301020470E-002
  Solving linear dielectric/ionic screening model
        iter                  A_solv                     rms
   LPB:       -0.434621080229170E+00   0.169157966595833E+01
   LPB:    0  -0.433646032532567E+00   0.148083976520011E+01  -0.829131E-02   0.000000E+00   0.283668E+02  -0.235198E+00
   LPB:    1  -0.423804079918710E+00   0.292720649684812E+00   0.128495E-01   0.000000E+00   0.488849E+02  -0.156487E-16
   LPB:    2  -0.422579471232699E+00   0.106286416480430E+00   0.126876E-01   0.126015E+00   0.205151E+03  -0.139419E-14
   LPB:    3  -0.422358958098215E+00   0.452738264647510E-01   0.169794E-01   0.134554E+00   0.124682E+03  -0.151374E-14
   LPB:    4  -0.422275363389567E+00   0.443729467047035E-01   0.255106E-01   0.252316E+00   0.825120E+02  -0.170689E-14
   LPB:    5  -0.422216527746935E+00   0.308715656866973E-01   0.284358E-01   0.631418E+00   0.995320E+02  -0.195502E-14
   LPB:    6  -0.422160859694608E+00   0.120391832948034E-01   0.355144E-01   0.757578E+00   0.686875E+02  -0.222560E-14
   LPB:    7  -0.422118126177676E+00   0.679622769581006E-02   0.372608E-01   0.731669E+00   0.125833E+03  -0.190151E-14
  Finished solving LPB equations
  A_corr:   -0.349350953167471     
 End minimization
 Ecorr=   1672.81275301297     
 A_corr= -0.349350953167471     
 Ecorr_band=  -1673.16210396614     
 End Solvation calculations
RMM:  24    -0.138414853513E+03   -0.51622E-03   -0.35444E-04  7852   0.472E-02    0.668E-02
 Begin Solvation calculations
  rms_SCF =   9.386596673269428E-002 tol =   9.386596673269427E-003
 Begin minimization
 Creating dielectric and ionic cavities
  area:      138.666123745419     
  volume:    651.112739925544     
  Acav:     7.279971496634478E-002
  Solving linear dielectric/ionic screening model
        iter                  A_solv                     rms
   LPB:       -0.428824908632631E+00   0.870092965465538E+00
   LPB:    0  -0.428608797496027E+00   0.783017254235275E+00  -0.390356E-02   0.000000E+00   0.283651E+02  -0.110725E+00
   LPB:    1  -0.426228579834159E+00   0.144267477687906E+00   0.119635E-01   0.000000E+00   0.500041E+02  -0.447478E-18
   LPB:    2  -0.425927571509263E+00   0.455365415648649E-01   0.126200E-01   0.119884E+00   0.194058E+03   0.401217E-16
   LPB:    3  -0.425876325547824E+00   0.196268513925660E-01   0.176684E-01   0.121602E+00   0.136926E+03   0.440643E-16
   LPB:    4  -0.425860279526298E+00   0.195476229597668E-01   0.250497E-01   0.220852E+00   0.821858E+02   0.544946E-16
   LPB:    5  -0.425844631239399E+00   0.184362649001676E-01   0.356054E-01   0.686098E+00   0.991327E+02   0.157419E-15
   LPB:    6  -0.425818390075858E+00   0.965281187100129E-02   0.480648E-01   0.124224E+01   0.416569E+02   0.131685E-15
   LPB:    7  -0.425795260974318E+00   0.537039192452276E-02   0.356889E-01   0.118705E+01   0.655953E+02   0.361606E-15
  Finished solving LPB equations
  A_corr:   -0.352995546007973     
 End minimization
 Ecorr=   1670.68445811428     
 A_corr= -0.352995546007973     
 Ecorr_band=  -1671.03745366029     
 End Solvation calculations
RMM:  25    -0.138414867757E+03   -0.14245E-04   -0.17245E-04  7414   0.486E-02
 Begin Solvation calculations
  rms_SCF =   9.386596673269428E-002 tol =   9.386596673269427E-003
 Begin minimization
 Creating dielectric and ionic cavities
  area:      138.722095667440     
  volume:    651.056394534906     
  Acav:     7.282910022540622E-002
  Solving linear dielectric/ionic screening model
        iter                  A_solv                     rms
   LPB:       -0.429122769393622E+00   0.483292807901248E+00
   LPB:    0  -0.429057984427288E+00   0.432555782371817E+00  -0.213717E-02   0.000000E+00   0.283678E+02  -0.606268E-01
   LPB:    1  -0.428382232317576E+00   0.795371290764837E-01   0.115893E-01   0.000000E+00   0.489780E+02  -0.430742E-17
   LPB:    2  -0.428282560060509E+00   0.221336276825992E-01   0.131954E-01   0.129545E+00   0.176028E+03  -0.170584E-17
   LPB:    3  -0.428268873513388E+00   0.107623540950119E-01   0.167617E-01   0.108100E+00   0.177150E+03  -0.107375E-16
   LPB:    4  -0.428265383553619E+00   0.830151046520216E-02   0.216369E-01   0.197537E+00   0.977885E+02  -0.818171E-17
  Finished solving LPB equations
  A_corr:   -0.355436283328213     
 End minimization
 Ecorr=   1669.90647634161     
 A_corr= -0.355436283328213     
 Ecorr_band=  -1670.26191262493     
 End Solvation calculations
   1 F= -.13841487E+03 E0= -.13841072E+03  d E =-.138415E+03
quench:  g(F)=  0.000E+00 g(S)=  0.000E+00 dE (1.order)= 0.000E+00
 bond charge predicted
       N       E                     dE             d eps       ncg     rms          rms(c)
 Begin Solvation calculations
  rms_SCF =   9.386596673269428E-002 tol =   9.386596673269427E-003
 Begin minimization
 Creating dielectric and ionic cavities
  area:      138.978316156881     
  volume:    651.043592213701     
  Acav:     7.296361598236245E-002
  Solving linear dielectric/ionic screening model
        iter                  A_solv                     rms
   LPB:       -0.440026163237515E+00   0.144458349035841E-01
   LPB:    0  -0.440026163162715E+00   0.145046335787254E-01  -0.229639E-05   0.000000E+00   0.283684E+02  -0.651449E-04
   LPB:    1  -0.431023764048005E+00   0.667369903195939E-02   0.156091E-01   0.000000E+00   0.301129E+06   0.265730E-20
   LPB:    2  -0.430210741026699E+00   0.113325349324730E-01   0.266025E-01   0.529908E-01   0.533499E+05  -0.101866E-16
   LPB:    3  -0.429961608608332E+00   0.234886758769559E-01   0.316851E-01   0.257273E+00   0.478763E+04  -0.193726E-16
   LPB:    4  -0.429862620930773E+00   0.542371019710487E-01   0.309205E-01   0.407154E+00   0.473705E+03  -0.194403E-17
   LPB:    5  -0.429820737504518E+00   0.401621853168830E-01   0.189798E-01   0.689312E+00   0.135374E+03   0.377380E-16
   LPB:    6  -0.429784018256975E+00   0.148486481010018E-01   0.261861E-01   0.635438E+00   0.480307E+03   0.857778E-16
   LPB:    7  -0.429760596909855E+00   0.196726516079856E-01   0.344814E-01   0.484400E+00   0.217466E+03   0.123547E-15
   LPB:    8  -0.429747367832169E+00   0.172776774604754E-01   0.250663E-01   0.776985E+00   0.194842E+03   0.103948E-15
   LPB:    9  -0.429736188741214E+00   0.588090882746788E-02   0.303381E-01   0.698196E+00   0.158999E+03   0.120554E-16
  Finished solving LPB equations
  A_corr:   -0.356772572758852     
 End minimization
 Ecorr=   1669.53234839027     
 A_corr= -0.356772572758852     
 Ecorr_band=  -1669.88912096303     
 End Solvation calculations
DAV:   1    -0.138419497928E+03   -0.46444E-02   -0.72599E-01 12915   0.162E+00    0.262E-01
 Begin Solvation calculations
  rms_SCF =   8.332325681419749E-002 tol =   8.332325681419749E-003
 Begin minimization
 Creating dielectric and ionic cavities
  area:      138.816821330485     
  volume:    650.908368276895     
  Acav:     7.287883119850465E-002
  Solving linear dielectric/ionic screening model
        iter                  A_solv                     rms
   LPB:       -0.434331617222939E+00   0.633027133464175E+00
   LPB:    0  -0.434050717049464E+00   0.511134717892691E+00  -0.444964E-02   0.000000E+00   0.283747E+02  -0.126257E+00
   LPB:    1  -0.432941693870180E+00   0.111838818011109E+00   0.105872E-01   0.000000E+00   0.692770E+02  -0.102860E-16
   LPB:    2  -0.432777693797254E+00   0.199610841375889E-01   0.139765E-01   0.112018E+00   0.175006E+03  -0.876972E-15
   LPB:    3  -0.432737814101871E+00   0.209079591719922E-01   0.244999E-01   0.138721E+00   0.499929E+03  -0.103615E-14
   LPB:    4  -0.432724271744159E+00   0.158842653886058E-01   0.220863E-01   0.376689E+00   0.984362E+02  -0.112721E-14
   LPB:    5  -0.432715560197281E+00   0.740693072600087E-02   0.265792E-01   0.534542E+00   0.321426E+03  -0.118711E-14
  Finished solving LPB equations
  A_corr:   -0.359836728998776     
 End minimization
 Ecorr=   1669.12645441066     
 A_corr= -0.359836728998776     
 Ecorr_band=  -1669.48629113966     
 End Solvation calculations
RMM:   2    -0.138426425799E+03   -0.69279E-02   -0.53807E-02 16968   0.476E-01    0.526E-01
 Begin Solvation calculations
  rms_SCF =   8.332325681419749E-002 tol =   8.332325681419749E-003
 Begin minimization
 Creating dielectric and ionic cavities
  area:      138.800722056913     
  volume:    650.913516822125     
  Acav:     7.287037907987916E-002
  Solving linear dielectric/ionic screening model
        iter                  A_solv                     rms
   LPB:       -0.434013433259590E+00   0.536228689129057E+00
   LPB:    0  -0.434013124391182E+00   0.535923890409053E+00  -0.147550E-03   0.000000E+00   0.283745E+02  -0.418664E-02
   LPB:    1  -0.433325621283278E+00   0.546028723353866E-01   0.882564E-02   0.000000E+00   0.613971E+02   0.317473E-20
   LPB:    2  -0.433258615267419E+00   0.113360198370346E-01   0.165363E-01   0.520173E-01   0.107788E+03  -0.774886E-17
   LPB:    3  -0.433248909605469E+00   0.499815547929929E-02   0.230710E-01   0.103820E+00   0.140981E+03  -0.207690E-16
   LPB:    4  -0.433244234057259E+00   0.436837389029136E-02   0.350948E-01   0.316687E+00   0.293321E+03  -0.588739E-16
  Finished solving LPB equations
  A_corr:   -0.360373854977380     
 End minimization
 Ecorr=   1668.84132722411     
 A_corr= -0.360373854977380     
 Ecorr_band=  -1669.20170107909     
 End Solvation calculations
RMM:   3    -0.138423497347E+03    0.29285E-02   -0.44518E-03 14725   0.137E-01    0.263E-01
 Begin Solvation calculations
  rms_SCF =   8.332325681419749E-002 tol =   8.332325681419749E-003
 Begin minimization
 Creating dielectric and ionic cavities
  area:      138.784879556231     
  volume:    650.905159550138     
  Acav:     7.286206176702147E-002
  Solving linear dielectric/ionic screening model
        iter                  A_solv                     rms
   LPB:       -0.434617085174593E+00   0.322107732652395E+00
   LPB:    0  -0.434588616329179E+00   0.297354276329924E+00  -0.141655E-02   0.000000E+00   0.283749E+02  -0.401945E-01
   LPB:    1  -0.434320222755685E+00   0.360843583959266E-01   0.938543E-02   0.000000E+00   0.665160E+02   0.325002E-18
   LPB:    2  -0.434291409774637E+00   0.672252894687703E-02   0.145023E-01   0.694759E-01   0.171362E+03   0.277544E-16
   LPB:    3  -0.434285092950329E+00   0.840871727790185E-02   0.269625E-01   0.117920E+00   0.531159E+03   0.830302E-16
   LPB:    4  -0.434282199502570E+00   0.766298160362413E-02   0.269900E-01   0.457587E+00   0.801312E+02   0.118791E-15
  Finished solving LPB equations
  A_corr:   -0.361420137735548     
 End minimization
 Ecorr=   1668.53436916611     
 A_corr= -0.361420137735548     
 Ecorr_band=  -1668.89578930384     
 End Solvation calculations
RMM:   4    -0.138422795436E+03    0.70191E-03   -0.12268E-03 11166   0.104E-01    0.111E-01
 Begin Solvation calculations
  rms_SCF =   8.332325681419749E-002 tol =   8.332325681419749E-003
 Begin minimization
 Creating dielectric and ionic cavities
  area:      138.725823496181     
  volume:    650.888821293522     
  Acav:     7.283105733549490E-002
  Solving linear dielectric/ionic screening model
        iter                  A_solv                     rms
   LPB:       -0.437746975430950E+00   0.416371539117267E+00
   LPB:    0  -0.437622148711825E+00   0.328153876863963E+00  -0.296617E-02   0.000000E+00   0.283756E+02  -0.841669E-01
   LPB:    1  -0.437134416915190E+00   0.907356720033205E-01   0.117092E-01   0.000000E+00   0.583898E+02  -0.388338E-17
   LPB:    2  -0.437026827210311E+00   0.181290783955167E-01   0.143017E-01   0.180605E+00   0.129479E+03  -0.309793E-15
   LPB:    3  -0.437008173421247E+00   0.151056707138928E-01   0.245073E-01   0.101179E+00   0.197474E+03  -0.341520E-15
   LPB:    4  -0.437000603614403E+00   0.104433978235721E-01   0.242996E-01   0.409273E+00   0.872095E+02  -0.352486E-15
   LPB:    5  -0.436995776321215E+00   0.653721285488257E-02   0.272541E-01   0.568575E+00   0.315549E+03  -0.267717E-15
  Finished solving LPB equations
  A_corr:   -0.364164718985720     
 End minimization
 Ecorr=   1667.87589767641     
 A_corr= -0.364164718985720     
 Ecorr_band=  -1668.24006239539     
 End Solvation calculations
RMM:   5    -0.138422795966E+03   -0.53010E-06   -0.66749E-04 10728   0.103E-01
 Begin Solvation calculations
  rms_SCF =   8.332325681419749E-002 tol =   8.332325681419749E-003
 Begin minimization
 Creating dielectric and ionic cavities
  area:      138.709184215022     
  volume:    650.891437677278     
  Acav:     7.282232171288676E-002
  Solving linear dielectric/ionic screening model
        iter                  A_solv                     rms
   LPB:       -0.439994001180704E+00   0.388857398434260E+00
   LPB:    0  -0.439888185954765E+00   0.300979961967266E+00  -0.273097E-02   0.000000E+00   0.283755E+02  -0.774927E-01
   LPB:    1  -0.439414447777628E+00   0.902013310041833E-01   0.111649E-01   0.000000E+00   0.720411E+02  -0.456668E-17
   LPB:    2  -0.439344916737018E+00   0.130116778872034E-01   0.132664E-01   0.123521E+00   0.116942E+03   0.719509E-15
   LPB:    3  -0.439329576888439E+00   0.135584195998219E-01   0.236483E-01   0.123765E+00   0.339879E+03   0.801173E-15
   LPB:    4  -0.439322761032373E+00   0.124231478139652E-01   0.257749E-01   0.407664E+00   0.716644E+02   0.813028E-15
   LPB:    5  -0.439317483082470E+00   0.697487913641688E-02   0.278158E-01   0.717547E+00   0.268615E+03   0.773177E-15
  Finished solving LPB equations
  A_corr:   -0.366495161369583     
 End minimization
 Ecorr=   1667.10087932587     
 A_corr= -0.366495161369583     
 Ecorr_band=  -1667.46737448724     
 End Solvation calculations
   2 F= -.13842280E+03 E0= -.13841869E+03  d E =-.792821E-02
quench:  g(F)=  0.000E+00 g(S)=  0.000E+00 dE (1.order)= 0.000E+00
 bond charge predicted
       N       E                     dE             d eps       ncg     rms          rms(c)
 Begin Solvation calculations
  rms_SCF =   8.332325681419749E-002 tol =   8.332325681419749E-003
 Begin minimization
 Creating dielectric and ionic cavities
  area:      139.036633925160     
  volume:    650.779096630225     
  Acav:     7.299423281070898E-002
  Solving linear dielectric/ionic screening model
        iter                  A_solv                     rms
   LPB:       -0.450248648970134E+00   0.107774819708704E-01
   LPB:    0  -0.450248646340606E+00   0.109286432059633E-01  -0.136126E-04   0.000000E+00   0.283808E+02  -0.386337E-03
   LPB:    1  -0.443144713574116E+00   0.604644051493085E-02   0.155149E-01   0.000000E+00   0.457233E+06  -0.726493E-20
   LPB:    2  -0.442485066529797E+00   0.999475095432236E-02   0.267130E-01   0.539310E-01   0.489842E+05  -0.279998E-17
   LPB:    3  -0.442275121939331E+00   0.198152006537332E-01   0.322554E-01   0.263581E+00   0.435080E+04   0.100832E-16
   LPB:    4  -0.442189201382890E+00   0.489694408771067E-01   0.316454E-01   0.417143E+00   0.608893E+03   0.510271E-17
   LPB:    5  -0.442153419686516E+00   0.382033401790475E-01   0.192047E-01   0.686223E+00   0.123009E+03  -0.979751E-17
   LPB:    6  -0.442121547230075E+00   0.130240128726972E-01   0.259328E-01   0.659651E+00   0.377167E+03  -0.160557E-15
   LPB:    7  -0.442100852759298E+00   0.188666646724464E-01   0.348237E-01   0.483518E+00   0.592846E+03  -0.307002E-15
   LPB:    8  -0.442088890043569E+00   0.165210009550691E-01   0.260281E-01   0.773408E+00   0.951338E+02  -0.380774E-15
   LPB:    9  -0.442078336992118E+00   0.671256867614837E-02   0.301019E-01   0.762776E+00   0.468690E+03  -0.502888E-15
  Finished solving LPB equations
  A_corr:   -0.369084104181409     
 End minimization
 Ecorr=   1666.65492000072     
 A_corr= -0.369084104181409     
 Ecorr_band=  -1667.02400410490     
 End Solvation calculations
DAV:   1    -0.138425304452E+03   -0.25090E-02   -0.65127E-01 13851   0.201E+00    0.205E-01
 Begin Solvation calculations
  rms_SCF =   5.409804454491608E-002 tol =   5.409804454491607E-003
 Begin minimization
 Creating dielectric and ionic cavities
  area:      138.846302110836     
  volume:    650.757582483492     
  Acav:     7.289430860818878E-002
  Solving linear dielectric/ionic screening model
        iter                  A_solv                     rms
   LPB:       -0.445424433475096E+00   0.350251273101574E+00
   LPB:    0  -0.445272199176157E+00   0.206972875441551E+00  -0.327530E-02   0.000000E+00   0.283818E+02  -0.929589E-01
   LPB:    1  -0.444982167529005E+00   0.618801074212372E-01   0.140191E-01   0.000000E+00   0.490891E+02   0.413704E-17
   LPB:    2  -0.444927729557180E+00   0.252161635007266E-01   0.139926E-01   0.188051E+00   0.201617E+03  -0.163826E-15
   LPB:    3  -0.444914268005091E+00   0.207348431854850E-01   0.206617E-01   0.167466E+00   0.118984E+03  -0.238338E-15
   LPB:    4  -0.444907470393441E+00   0.834114372014370E-02   0.219043E-01   0.476319E+00   0.970036E+02  -0.265296E-15
   LPB:    5  -0.444902501686429E+00   0.398949411005087E-02   0.308204E-01   0.519493E+00   0.386839E+03  -0.286207E-15
  Finished solving LPB equations
  A_corr:   -0.372008193078240     
 End minimization
 Ecorr=   1666.09890617251     
 A_corr= -0.372008193078240     
 Ecorr_band=  -1666.47091436559     
 End Solvation calculations
RMM:   2    -0.138428972235E+03   -0.36678E-02   -0.39773E-02 16879   0.462E-01    0.131E-01
 Begin Solvation calculations
  rms_SCF =   4.048528121052417E-002 tol =   4.048528121052416E-003
 Begin minimization
 Creating dielectric and ionic cavities
  area:      138.826760185873     
  volume:    650.790430078699     
  Acav:     7.288404909758332E-002
  Solving linear dielectric/ionic screening model
        iter                  A_solv                     rms
   LPB:       -0.445885338905702E+00   0.238532218447028E+00
   LPB:    0  -0.445875750293414E+00   0.225037537840632E+00  -0.822025E-03   0.000000E+00   0.283802E+02  -0.233293E-01
   LPB:    1  -0.445721249890647E+00   0.289145419574416E-01   0.927669E-02   0.000000E+00   0.682368E+02   0.151352E-17
   LPB:    2  -0.445704399483165E+00   0.502218440630071E-02   0.149638E-01   0.676134E-01   0.136343E+03  -0.105131E-15
   LPB:    3  -0.445700325475544E+00   0.655285700643923E-02   0.291473E-01   0.124124E+00   0.433566E+03  -0.168555E-15
   LPB:    4  -0.445697408843523E+00   0.863410417822421E-02   0.350750E-01   0.594922E+00   0.637716E+02  -0.167035E-15
   LPB:    5  -0.445694340630750E+00   0.655447666124378E-02   0.315670E-01   0.116887E+01   0.267668E+03  -0.134880E-15
   LPB:    6  -0.445691305493821E+00   0.319280897683696E-02   0.380455E-01   0.820773E+00   0.706017E+02  -0.100405E-15
  Finished solving LPB equations
  A_corr:   -0.372807256396237     
 End minimization
 Ecorr=   1665.42629240694     
 A_corr= -0.372807256396237     
 Ecorr_band=  -1665.79909966333     
 End Solvation calculations
RMM:   3    -0.138428497637E+03    0.47460E-03   -0.24497E-03 12553   0.120E-01    0.170E-01
 Begin Solvation calculations
  rms_SCF =   4.048528121052417E-002 tol =   4.048528121052416E-003
 Begin minimization
 Creating dielectric and ionic cavities
  area:      138.837018525228     
  volume:    650.797337615866     
  Acav:     7.288943472574450E-002
  Solving linear dielectric/ionic screening model
        iter                  A_solv                     rms
   LPB:       -0.446519030741314E+00   0.130000367378273E+00
   LPB:    0  -0.446503749160159E+00   0.952632704654628E-01  -0.103775E-02   0.000000E+00   0.283799E+02  -0.294513E-01
   LPB:    1  -0.446466759716146E+00   0.222373887708493E-01   0.102440E-01   0.000000E+00   0.659374E+02   0.131442E-17
   LPB:    2  -0.446461433590367E+00   0.474730055980548E-02   0.146531E-01   0.100664E+00   0.936078E+02  -0.678113E-16
   LPB:    3  -0.446460122265642E+00   0.393292401210823E-02   0.226743E-01   0.159109E+00   0.301513E+03  -0.111473E-15
   LPB:    4  -0.446459313347824E+00   0.468596263915092E-02   0.318154E-01   0.439633E+00   0.781707E+02  -0.140047E-15
   LPB:    5  -0.446458112950727E+00   0.339677760213521E-02   0.400158E-01   0.117985E+01   0.264624E+03  -0.153818E-15
  Finished solving LPB equations
  A_corr:   -0.373568678224982     
 End minimization
 Ecorr=   1665.24910759873     
 A_corr= -0.373568678224982     
 Ecorr_band=  -1665.62267627696     
 End Solvation calculations
RMM:   4    -0.138428342753E+03    0.15488E-03   -0.45807E-04  8099   0.628E-02    0.119E-01
 Begin Solvation calculations
  rms_SCF =   4.048528121052417E-002 tol =   4.048528121052416E-003
 Begin minimization
 Creating dielectric and ionic cavities
  area:      138.839772682097     
  volume:    650.809073646627     
  Acav:     7.289088065810087E-002
  Solving linear dielectric/ionic screening model
        iter                  A_solv                     rms
   LPB:       -0.447496601319190E+00   0.243382216472825E+00
   LPB:    0  -0.447486078111351E+00   0.230715142892717E+00  -0.861168E-03   0.000000E+00   0.283794E+02  -0.244394E-01
   LPB:    1  -0.447347100958038E+00   0.319483664796195E-01   0.946634E-02   0.000000E+00   0.565038E+02   0.114425E-18
   LPB:    2  -0.447324787666201E+00   0.480848061852613E-02   0.165980E-01   0.915687E-01   0.974482E+02  -0.110474E-15
   LPB:    3  -0.447322229946475E+00   0.361153085521285E-02   0.219080E-01   0.868446E-01   0.307865E+03  -0.178154E-15
   LPB:    4  -0.447321105455337E+00   0.373658921562706E-02   0.288778E-01   0.333535E+00   0.110529E+03  -0.186875E-15
  Finished solving LPB equations
  A_corr:   -0.374430224797236     
 End minimization
 Ecorr=   1664.99329654960     
 A_corr= -0.374430224797236     
 Ecorr_band=  -1665.36772677440     
 End Solvation calculations
RMM:   5    -0.138428240949E+03    0.10180E-03   -0.12589E-04  7085   0.471E-02    0.690E-02
 Begin Solvation calculations
  rms_SCF =   4.048528121052417E-002 tol =   4.048528121052416E-003
 Begin minimization
 Creating dielectric and ionic cavities
  area:      138.870919191838     
  volume:    650.849568604866     
  Acav:     7.290723257571484E-002
  Solving linear dielectric/ionic screening model
        iter                  A_solv                     rms
   LPB:       -0.449380521861471E+00   0.251687083497583E+00
   LPB:    0  -0.449321961425120E+00   0.174928348758010E+00  -0.203156E-02   0.000000E+00   0.283775E+02  -0.576506E-01
   LPB:    1  -0.449153060524691E+00   0.610095877542510E-01   0.113004E-01   0.000000E+00   0.681029E+02  -0.256881E-17
   LPB:    2  -0.449125105939134E+00   0.101308382072071E-01   0.138978E-01   0.134576E+00   0.804991E+02  -0.382870E-15
   LPB:    3  -0.449118765995590E+00   0.916484613930021E-02   0.220658E-01   0.142843E+00   0.279992E+03  -0.452162E-15
   LPB:    4  -0.449116101788141E+00   0.671794570870101E-02   0.248103E-01   0.373740E+00   0.659223E+02  -0.457183E-15
   LPB:    5  -0.449114313996467E+00   0.399305184049869E-02   0.268892E-01   0.619161E+00   0.281525E+03  -0.477077E-15
  Finished solving LPB equations
  A_corr:   -0.376207081420753     
 End minimization
 Ecorr=   1664.42645909942     
 A_corr= -0.376207081420753     
 Ecorr_band=  -1664.80266618084     
 End Solvation calculations
RMM:   6    -0.138428228198E+03    0.12751E-04   -0.17604E-04  6921   0.667E-02
 Begin Solvation calculations
  rms_SCF =   4.048528121052417E-002 tol =   4.048528121052416E-003
 Begin minimization
 Creating dielectric and ionic cavities
  area:      138.905364682329     
  volume:    650.886631249390     
  Acav:     7.292531645822289E-002
  Solving linear dielectric/ionic screening model
        iter                  A_solv                     rms
   LPB:       -0.451254729811323E+00   0.228388920007856E+00
   LPB:    0  -0.451194830915783E+00   0.127831732296980E+00  -0.205471E-02   0.000000E+00   0.283757E+02  -0.583039E-01
   LPB:    1  -0.451054903217956E+00   0.435004541306805E-01   0.145780E-01   0.000000E+00   0.490672E+02  -0.611644E-18
   LPB:    2  -0.451037957084186E+00   0.112514545227153E-01   0.141005E-01   0.125208E+00   0.998621E+02  -0.344253E-15
   LPB:    3  -0.451033812497671E+00   0.102025942641255E-01   0.203369E-01   0.169574E+00   0.219405E+03  -0.406400E-15
   LPB:    4  -0.451031465774144E+00   0.862275638896110E-02   0.233861E-01   0.492388E+00   0.542616E+02  -0.421787E-15
   LPB:    5  -0.451029399211081E+00   0.448134579163112E-02   0.279294E-01   0.737367E+00   0.129025E+03  -0.430094E-15
   LPB:    6  -0.451027614190064E+00   0.162132118757272E-02   0.361834E-01   0.666725E+00   0.906781E+02  -0.434414E-15
  Finished solving LPB equations
  A_corr:   -0.378102297731841     
 End minimization
 Ecorr=   1663.60114038767     
 A_corr= -0.378102297731841     
 Ecorr_band=  -1663.97924268540     
 End Solvation calculations
   3 F= -.13842823E+03 E0= -.13842422E+03  d E =-.543223E-02
quench:  g(F)=  0.000E+00 g(S)=  0.000E+00 dE (1.order)= 0.000E+00
 bond charge predicted
       N       E                     dE             d eps       ncg     rms          rms(c)
 Begin Solvation calculations
  rms_SCF =   4.048528121052417E-002 tol =   4.048528121052416E-003
 Begin minimization
 Creating dielectric and ionic cavities
  area:      139.447058997069     
  volume:    650.719978208761     
  Acav:     7.320970597346137E-002
  Solving linear dielectric/ionic screening model
        iter                  A_solv                     rms
   LPB:       -0.469502455497592E+00   0.166294977195199E-01
   LPB:    0  -0.469502450344402E+00   0.171963481596383E-01  -0.190555E-04   0.000000E+00   0.283835E+02  -0.540862E-03
   LPB:    1  -0.456938795865319E+00   0.808889225498637E-02   0.153729E-01   0.000000E+00   0.273708E+06   0.255212E-19
   LPB:    2  -0.455843375930681E+00   0.108231627265107E-01   0.266198E-01   0.503518E-01   0.441114E+05   0.560371E-16
   LPB:    3  -0.455489464405145E+00   0.237392464322197E-01   0.324723E-01   0.264853E+00   0.784202E+04   0.518047E-16
   LPB:    4  -0.455341955748810E+00   0.605954239410545E-01   0.323726E-01   0.418080E+00   0.655951E+03   0.568360E-16
   LPB:    5  -0.455283177755991E+00   0.526653111428090E-01   0.194548E-01   0.663053E+00   0.135194E+03   0.321804E-16
   LPB:    6  -0.455230370272973E+00   0.130474190201869E-01   0.250189E-01   0.698617E+00   0.391490E+03   0.134389E-16
   LPB:    7  -0.455192944180699E+00   0.565359470442414E-02   0.392035E-01   0.452295E+00   0.658505E+03  -0.315598E-17
   LPB:    8  -0.455168718661750E+00   0.141677166119753E-01   0.400546E-01   0.633537E+00   0.126276E+04  -0.523280E-16
   LPB:    9  -0.455154042776082E+00   0.192458840456668E-01   0.311976E-01   0.777789E+00   0.109819E+03  -0.133693E-15
   LPB:   10  -0.455142988971023E+00   0.106351282620353E-01   0.264267E-01   0.889173E+00   0.297878E+03  -0.232000E-15
   LPB:   11  -0.455133804849282E+00   0.400261913039992E-02   0.355795E-01   0.617117E+00   0.205318E+03  -0.222672E-15
  Finished solving LPB equations
  A_corr:   -0.381924098875821     
 End minimization
 Ecorr=   1662.92563963543     
 A_corr= -0.381924098875821     
 Ecorr_band=  -1663.30756373430     
 End Solvation calculations
DAV:   1    -0.138428780099E+03   -0.53915E-03   -0.10975E+00 12816   0.247E+00    0.249E-01
 Begin Solvation calculations
  rms_SCF =   4.048528121052417E-002 tol =   4.048528121052416E-003
 Begin minimization
 Creating dielectric and ionic cavities
  area:      139.108399878416     
  volume:    650.669420981855     
  Acav:     7.303190993616852E-002
  Solving linear dielectric/ionic screening model
        iter                  A_solv                     rms
   LPB:       -0.459178752579638E+00   0.390173416681027E+00
   LPB:    0  -0.458964899030599E+00   0.213899165235958E+00  -0.388170E-02   0.000000E+00   0.283859E+02  -0.110186E+00
   LPB:    1  -0.458573993091596E+00   0.896535110222915E-01   0.134686E-01   0.000000E+00   0.659653E+02  -0.121433E-17
   LPB:    2  -0.458515366019210E+00   0.198996288432742E-01   0.137448E-01   0.146963E+00   0.986604E+02   0.640350E-15
   LPB:    3  -0.458498641222040E+00   0.157634737845288E-01   0.203603E-01   0.192583E+00   0.308424E+03   0.711537E-15
   LPB:    4  -0.458491755438570E+00   0.124402538401206E-01   0.215775E-01   0.388485E+00   0.918872E+02   0.728127E-15
   LPB:    5  -0.458487023394301E+00   0.628408691189196E-02   0.274080E-01   0.541027E+00   0.258237E+03   0.649114E-15
   LPB:    6  -0.458483406623213E+00   0.259594743050770E-02   0.398544E-01   0.525622E+00   0.194285E+03   0.553467E-15
  Finished solving LPB equations
  A_corr:   -0.385451496687045     
 End minimization
 Ecorr=   1662.39839628256     
 A_corr= -0.385451496687045     
 Ecorr_band=  -1662.78384777925     
 End Solvation calculations
RMM:   2    -0.138434514487E+03   -0.57344E-02   -0.60580E-02 15444   0.666E-01    0.203E-01
 Begin Solvation calculations
  rms_SCF =   4.048528121052417E-002 tol =   4.048528121052416E-003
 Begin minimization
 Creating dielectric and ionic cavities
  area:      139.054405294975     
  volume:    650.693399214373     
  Acav:     7.300356277986166E-002
  Solving linear dielectric/ionic screening model
        iter                  A_solv                     rms
   LPB:       -0.459590564002660E+00   0.163780964427101E+00
   LPB:    0  -0.459582548641101E+00   0.148880504148268E+00  -0.751508E-03   0.000000E+00   0.283848E+02  -0.213314E-01
   LPB:    1  -0.459499262967274E+00   0.364188818647866E-01   0.111922E-01   0.000000E+00   0.568006E+02  -0.922080E-18
   LPB:    2  -0.459478217613565E+00   0.472935028340110E-02   0.155116E-01   0.182323E+00   0.119337E+03   0.261089E-16
   LPB:    3  -0.459474900778332E+00   0.323475624944237E-02   0.272229E-01   0.898029E-01   0.320110E+03  -0.750365E-16
   LPB:    4  -0.459472921193984E+00   0.383834475064103E-02   0.366529E-01   0.443279E+00   0.143532E+03  -0.901965E-16
  Finished solving LPB equations
  A_corr:   -0.386469358414122     
 End minimization
 Ecorr=   1662.04697551235     
 A_corr= -0.386469358414122     
 Ecorr_band=  -1662.43344487076     
 End Solvation calculations
RMM:   3    -0.138434934621E+03   -0.42013E-03   -0.61642E-03 16020   0.183E-01    0.343E-01
 Begin Solvation calculations
  rms_SCF =   4.048528121052417E-002 tol =   4.048528121052416E-003
 Begin minimization
 Creating dielectric and ionic cavities
  area:      139.048028049335     
  volume:    650.701370141331     
  Acav:     7.300021472590063E-002
  Solving linear dielectric/ionic screening model
        iter                  A_solv                     rms
   LPB:       -0.460697535490944E+00   0.371203186499748E+00
   LPB:    0  -0.460677542224822E+00   0.357424264969416E+00  -0.118691E-02   0.000000E+00   0.283844E+02  -0.336897E-01
   LPB:    1  -0.460347361178084E+00   0.310305949046212E-01   0.879376E-02   0.000000E+00   0.659134E+02  -0.265799E-17
   LPB:    2  -0.460324757020664E+00   0.523714392025680E-02   0.143371E-01   0.419905E-01   0.144045E+03   0.949291E-16
   LPB:    3  -0.460321222461788E+00   0.604849638493081E-02   0.258536E-01   0.867135E-01   0.336803E+03   0.110626E-15
   LPB:    4  -0.460319640035013E+00   0.509082903846618E-02   0.277806E-01   0.416646E+00   0.799862E+02   0.123874E-15
   LPB:    5  -0.460318152006370E+00   0.461793884609086E-02   0.330735E-01   0.789857E+00   0.309245E+03   0.164742E-15
   LPB:    6  -0.460316416836114E+00   0.327630711316885E-02   0.403328E-01   0.956208E+00   0.628192E+02   0.268752E-15
  Finished solving LPB equations
  A_corr:   -0.387316202110213     
 End minimization
 Ecorr=   1661.71520716928     
 A_corr= -0.387316202110213     
 Ecorr_band=  -1662.10252337139     
 End Solvation calculations
RMM:   4    -0.138433869210E+03    0.10654E-02   -0.10137E-03  9935   0.816E-02    0.137E-01
 Begin Solvation calculations
  rms_SCF =   4.048528121052417E-002 tol =   4.048528121052416E-003
 Begin minimization
 Creating dielectric and ionic cavities
  area:      139.026625964062     
  volume:    650.709125578936     
  Acav:     7.298897863113260E-002
  Solving linear dielectric/ionic screening model
        iter                  A_solv                     rms
   LPB:       -0.461801542410162E+00   0.275065188448690E+00
   LPB:    0  -0.461780750053060E+00   0.254431222728469E+00  -0.121040E-02   0.000000E+00   0.283840E+02  -0.343561E-01
   LPB:    1  -0.461603687827887E+00   0.398418584032320E-01   0.973032E-02   0.000000E+00   0.556435E+02  -0.641599E-18
   LPB:    2  -0.461570017873434E+00   0.548247726597286E-02   0.168150E-01   0.110039E+00   0.938872E+02   0.147830E-15
   LPB:    3  -0.461565811861530E+00   0.489999344137148E-02   0.245295E-01   0.856321E-01   0.321861E+03   0.187928E-15
   LPB:    4  -0.461564270950137E+00   0.449594404045755E-02   0.253629E-01   0.354322E+00   0.116192E+03   0.185862E-15
   LPB:    5  -0.461563336405666E+00   0.435019596999031E-02   0.284891E-01   0.539936E+00   0.159596E+03   0.163859E-15
   LPB:    6  -0.461562458368519E+00   0.264781583100560E-02   0.347930E-01   0.769306E+00   0.973930E+02   0.151552E-15
  Finished solving LPB equations
  A_corr:   -0.388573479737386     
 End minimization
 Ecorr=   1661.40296202171     
 A_corr= -0.388573479737386     
 Ecorr_band=  -1661.79153550145     
 End Solvation calculations
RMM:   5    -0.138433635650E+03    0.23356E-03   -0.37456E-04  8431   0.896E-02    0.785E-02
 Begin Solvation calculations
  rms_SCF =   3.432987291178524E-002 tol =   3.432987291178524E-003
 Begin minimization
 Creating dielectric and ionic cavities
  area:      139.017402963806     
  volume:    650.747655708349     
  Acav:     7.298413655599841E-002
  Solving linear dielectric/ionic screening model
        iter                  A_solv                     rms
   LPB:       -0.465052669542844E+00   0.379445515257028E+00
   LPB:    0  -0.464921659619058E+00   0.267896993142697E+00  -0.303839E-02   0.000000E+00   0.283822E+02  -0.862364E-01
   LPB:    1  -0.464517515679777E+00   0.954630172013134E-01   0.112790E-01   0.000000E+00   0.716598E+02  -0.175377E-17
   LPB:    2  -0.464455334126946E+00   0.132327975878848E-01   0.133799E-01   0.129701E+00   0.807794E+02  -0.344938E-15
   LPB:    3  -0.464443931722392E+00   0.112141602936548E-01   0.208093E-01   0.117904E+00   0.244790E+03  -0.422269E-15
   LPB:    4  -0.464440371917325E+00   0.786515633607877E-02   0.225201E-01   0.288480E+00   0.670730E+02  -0.466389E-15
   LPB:    5  -0.464438177722829E+00   0.446275491982063E-02   0.260388E-01   0.533087E+00   0.276849E+03  -0.518467E-15
   LPB:    6  -0.464436591224599E+00   0.157731745554156E-02   0.367050E-01   0.512932E+00   0.989336E+02  -0.586772E-15
  Finished solving LPB equations
  A_corr:   -0.391452454668600     
 End minimization
 Ecorr=   1660.57692104037     
 A_corr= -0.391452454668600     
 Ecorr_band=  -1660.96837349504     
 End Solvation calculations
RMM:   6    -0.138433598946E+03    0.36704E-04   -0.20990E-04  7159   0.653E-02
 Begin Solvation calculations
  rms_SCF =   3.432987291178524E-002 tol =   3.432987291178524E-003
 Begin minimization
 Creating dielectric and ionic cavities
  area:      139.049080131853     
  volume:    650.787563187373     
  Acav:     7.300076706922269E-002
  Solving linear dielectric/ionic screening model
        iter                  A_solv                     rms
   LPB:       -0.467176621034667E+00   0.265029547319653E+00
   LPB:    0  -0.467090366648474E+00   0.146246366333376E+00  -0.246545E-02   0.000000E+00   0.283804E+02  -0.699704E-01
   LPB:    1  -0.466887010156899E+00   0.425892331742083E-01   0.157008E-01   0.000000E+00   0.484608E+02   0.350094E-17
   LPB:    2  -0.466865606877968E+00   0.120277270726951E-01   0.147242E-01   0.112231E+00   0.116719E+03  -0.224927E-15
   LPB:    3  -0.466860553844014E+00   0.576128771558787E-02   0.212574E-01   0.163529E+00   0.132223E+03  -0.256811E-15
   LPB:    4  -0.466858272814325E+00   0.868779413605454E-02   0.265267E-01   0.361747E+00   0.892738E+02  -0.273792E-15
   LPB:    5  -0.466856815972024E+00   0.810634575745077E-02   0.222852E-01   0.760238E+00   0.114857E+03  -0.294961E-15
   LPB:    6  -0.466855298858840E+00   0.279743035169918E-02   0.300589E-01   0.772054E+00   0.631855E+02  -0.307392E-15
  Finished solving LPB equations
  A_corr:   -0.393854531789617     
 End minimization
 Ecorr=   1659.77846944009     
 A_corr= -0.393854531789617     
 Ecorr_band=  -1660.17232397188     
 End Solvation calculations
   4 F= -.13843360E+03 E0= -.13842968E+03  d E =-.537075E-02
quench:  g(F)=  0.000E+00 g(S)=  0.000E+00 dE (1.order)= 0.000E+00
 bond charge predicted
       N       E                     dE             d eps       ncg     rms          rms(c)
 Begin Solvation calculations
  rms_SCF =   3.432987291178524E-002 tol =   3.432987291178524E-003
 Begin minimization
 Creating dielectric and ionic cavities
  area:      139.455387897386     
  volume:    650.613851532977     
  Acav:     7.321407864612769E-002
  Solving linear dielectric/ionic screening model
        iter                  A_solv                     rms
   LPB:       -0.482130267554628E+00   0.157254115577944E-01
   LPB:    0  -0.482130262392374E+00   0.163399274113485E-01  -0.190706E-04   0.000000E+00   0.283885E+02  -0.541385E-03
   LPB:    1  -0.471964694112524E+00   0.552358270239699E-02   0.155483E-01   0.000000E+00   0.227696E+06   0.304268E-19
   LPB:    2  -0.471007566076708E+00   0.642486378390815E-02   0.270349E-01   0.541497E-01   0.801837E+05   0.967724E-16
   LPB:    3  -0.470692211105516E+00   0.138939860117244E-01   0.327089E-01   0.272326E+00   0.204953E+05   0.111002E-15
   LPB:    4  -0.470555075966461E+00   0.345590166475332E-01   0.345075E-01   0.412193E+00   0.119326E+04   0.115285E-15
   LPB:    5  -0.470498503080575E+00   0.560321160244135E-01   0.259761E-01   0.548023E+00   0.201659E+03   0.232540E-16
   LPB:    6  -0.470461609281803E+00   0.231081014372567E-01   0.195191E-01   0.867880E+00   0.181905E+03   0.697251E-16
   LPB:    7  -0.470431452231824E+00   0.173673404489141E-01   0.332113E-01   0.480408E+00   0.277223E+03   0.241842E-15
   LPB:    8  -0.470414309477731E+00   0.225111476618288E-01   0.284672E-01   0.663182E+00   0.262588E+03   0.375969E-15
   LPB:    9  -0.470400955514669E+00   0.955378121105365E-02   0.265413E-01   0.835509E+00   0.113441E+03   0.396509E-15
   LPB:   10  -0.470389598374169E+00   0.336883985601183E-02   0.378357E-01   0.596595E+00   0.125747E+04   0.327291E-15
  Finished solving LPB equations
  A_corr:   -0.397175519728041     
 End minimization
 Ecorr=   1659.28614787674     
 A_corr= -0.397175519728041     
 Ecorr_band=  -1659.68332339646     
 End Solvation calculations
DAV:   1    -0.138432048140E+03    0.15875E-02   -0.82838E-01 12789   0.204E+00    0.244E-01
 Begin Solvation calculations
  rms_SCF =   3.432987291178524E-002 tol =   3.432987291178524E-003
 Begin minimization
 Creating dielectric and ionic cavities
  area:      139.274181893149     
  volume:    650.696946014278     
  Acav:     7.311894549390298E-002
  Solving linear dielectric/ionic screening model
        iter                  A_solv                     rms
   LPB:       -0.471240652934673E+00   0.255155637356466E+00
   LPB:    0  -0.471240235337505E+00   0.255333945996814E+00   0.171535E-03   0.000000E+00   0.283846E+02   0.486895E-02
   LPB:    1  -0.470928037345027E+00   0.670869804084274E-01   0.115083E-01   0.000000E+00   0.720878E+02  -0.344413E-18
   LPB:    2  -0.470859379883099E+00   0.121324819468337E-01   0.150446E-01   0.168224E+00   0.362088E+03  -0.855040E-17
   LPB:    3  -0.470837806626613E+00   0.513406380778967E-02   0.257566E-01   0.183535E+00   0.692529E+03  -0.843077E-17
   LPB:    4  -0.470828125097489E+00   0.351336261755853E-02   0.334730E-01   0.345321E+00   0.752126E+03   0.128058E-16
   LPB:    5  -0.470822588550178E+00   0.348983260480872E-02   0.355336E-01   0.538704E+00   0.832827E+03   0.250805E-16
   LPB:    6  -0.470818496071661E+00   0.206421878144755E-02   0.380398E-01   0.690475E+00   0.445297E+03   0.332927E-16
  Finished solving LPB equations
  A_corr:   -0.397699550577758     
 End minimization
 Ecorr=   1658.94611655443     
 A_corr= -0.397699550577758     
 Ecorr_band=  -1659.34381610500     
 End Solvation calculations
RMM:   2    -0.138437550446E+03   -0.55023E-02   -0.60624E-02 15950   0.576E-01    0.206E-01
 Begin Solvation calculations
  rms_SCF =   3.432987291178524E-002 tol =   3.432987291178524E-003
 Begin minimization
 Creating dielectric and ionic cavities
  area:      139.222595466585     
  volume:    650.693306099981     
  Acav:     7.309186261995687E-002
  Solving linear dielectric/ionic screening model
        iter                  A_solv                     rms
   LPB:       -0.471221410686366E+00   0.442854578503720E+00
   LPB:    0  -0.471218956665896E+00   0.441517727559218E+00  -0.415826E-03   0.000000E+00   0.283848E+02  -0.118031E-01
   LPB:    1  -0.470751107593047E+00   0.387251530123177E-01   0.864096E-02   0.000000E+00   0.642278E+02  -0.371874E-18
   LPB:    2  -0.470715110538394E+00   0.885867094024621E-02   0.164122E-01   0.405094E-01   0.119273E+03  -0.158475E-16
   LPB:    3  -0.470709897834555E+00   0.665455483221306E-02   0.228230E-01   0.104134E+00   0.154707E+03  -0.775872E-17
   LPB:    4  -0.470707543137591E+00   0.539807705737533E-02   0.307472E-01   0.335305E+00   0.138076E+03   0.400995E-16
   LPB:    5  -0.470705780099002E+00   0.540116801491464E-02   0.306211E-01   0.751815E+00   0.326442E+03   0.193884E-16
   LPB:    6  -0.470703781885835E+00   0.386632434104877E-02   0.371175E-01   0.935023E+00   0.130978E+03  -0.438896E-17
   LPB:    7  -0.470701595533144E+00   0.304472200822367E-02   0.409243E-01   0.992375E+00   0.525137E+03   0.265940E-16
  Finished solving LPB equations
  A_corr:   -0.397609732913187     
 End minimization
 Ecorr=   1658.83853799049     
 A_corr= -0.397609732913187     
 Ecorr_band=  -1659.23614772340     
 End Solvation calculations
RMM:   3    -0.138437023325E+03    0.52712E-03   -0.37043E-03 13396   0.172E-01    0.232E-01
 Begin Solvation calculations
  rms_SCF =   3.432987291178524E-002 tol =   3.432987291178524E-003
 Begin minimization
 Creating dielectric and ionic cavities
  area:      139.214170497426     
  volume:    650.697165339278     
  Acav:     7.308743951114868E-002
  Solving linear dielectric/ionic screening model
        iter                  A_solv                     rms
   LPB:       -0.471307440558090E+00   0.336721391587911E+00
   LPB:    0  -0.471307166593528E+00   0.336417061952132E+00  -0.138938E-03   0.000000E+00   0.283846E+02  -0.394370E-02
   LPB:    1  -0.471034573689187E+00   0.339529565772202E-01   0.889139E-02   0.000000E+00   0.608613E+02  -0.341139E-19
   LPB:    2  -0.471007485639033E+00   0.665268387058819E-02   0.161956E-01   0.545553E-01   0.117047E+03   0.549390E-16
   LPB:    3  -0.471003190287087E+00   0.304259304253784E-02   0.240065E-01   0.106977E+00   0.168258E+03   0.585015E-16
   LPB:    4  -0.471001178473864E+00   0.170270535732643E-02   0.335701E-01   0.334939E+00   0.286224E+03   0.756902E-16
  Finished solving LPB equations
  A_corr:   -0.397913738962715     
 End minimization
 Ecorr=   1658.72543150485     
 A_corr= -0.397913738962715     
 Ecorr_band=  -1659.12334524381     
 End Solvation calculations
RMM:   4    -0.138436462302E+03    0.56102E-03   -0.68696E-04  9188   0.723E-02    0.134E-01
 Begin Solvation calculations
  rms_SCF =   3.432987291178524E-002 tol =   3.432987291178524E-003
 Begin minimization
 Creating dielectric and ionic cavities
  area:      139.219106002763     
  volume:    650.706582693027     
  Acav:     7.309003065145044E-002
  Solving linear dielectric/ionic screening model
        iter                  A_solv                     rms
   LPB:       -0.471400520031568E+00   0.117905178228645E+00
   LPB:    0  -0.471397703358936E+00   0.111115218862381E+00  -0.445497E-03   0.000000E+00   0.283842E+02  -0.126451E-01
   LPB:    1  -0.471339995464397E+00   0.270583524735788E-01   0.115044E-01   0.000000E+00   0.679788E+02  -0.390209E-18
   LPB:    2  -0.471328905344155E+00   0.535300870833451E-02   0.143253E-01   0.154333E+00   0.325115E+03  -0.448842E-16
   LPB:    3  -0.471325573583599E+00   0.437628867710082E-02   0.259225E-01   0.166022E+00   0.449958E+03  -0.410474E-16
   LPB:    4  -0.471323904664732E+00   0.592532480052260E-02   0.301485E-01   0.430698E+00   0.156591E+03  -0.359949E-16
   LPB:    5  -0.471322889967127E+00   0.433810295921665E-02   0.263659E-01   0.695223E+00   0.126873E+03  -0.162906E-16
   LPB:    6  -0.471321977379708E+00   0.185423141352566E-02   0.338730E-01   0.700046E+00   0.195869E+03   0.405848E-16
  Finished solving LPB equations
  A_corr:   -0.398231946728258     
 End minimization
 Ecorr=   1658.63547521437     
 A_corr= -0.398231946728258     
 Ecorr_band=  -1659.03370716110     
 End Solvation calculations
RMM:   5    -0.138436448337E+03    0.13964E-04   -0.39659E-04  8007   0.662E-02
 Begin Solvation calculations
  rms_SCF =   3.432987291178524E-002 tol =   3.432987291178524E-003
 Begin minimization
 Creating dielectric and ionic cavities
  area:      139.234715097825     
  volume:    650.731075346866     
  Acav:     7.309822542635812E-002
  Solving linear dielectric/ionic screening model
        iter                  A_solv                     rms
   LPB:       -0.471235898883841E+00   0.107645817685605E+00
   LPB:    0  -0.471235700090405E+00   0.107478084214541E+00   0.118355E-03   0.000000E+00   0.283830E+02   0.335927E-02
   LPB:    1  -0.471147482254015E+00   0.433727190339978E-01   0.117935E-01   0.000000E+00   0.109752E+03  -0.181440E-18
   LPB:    2  -0.471125365568035E+00   0.710201005857167E-02   0.149952E-01   0.197177E+00   0.255481E+03   0.341459E-17
   LPB:    3  -0.471120701526240E+00   0.519167962276881E-02   0.257765E-01   0.122679E+00   0.344928E+03   0.733908E-17
   LPB:    4  -0.471118733919435E+00   0.449509417367034E-02   0.303386E-01   0.358430E+00   0.167608E+03  -0.250744E-16
   LPB:    5  -0.471117424790843E+00   0.514161571444618E-02   0.344567E-01   0.585822E+00   0.197693E+03  -0.566327E-16
   LPB:    6  -0.471116492300748E+00   0.368711791383865E-02   0.290175E-01   0.845816E+00   0.128729E+03  -0.619524E-16
   LPB:    7  -0.471115606602265E+00   0.178357967367186E-02   0.328411E-01   0.839236E+00   0.437466E+03  -0.986149E-16
  Finished solving LPB equations
  A_corr:   -0.398017381175907     
 End minimization
 Ecorr=   1658.54386179779     
 A_corr= -0.398017381175907     
 Ecorr_band=  -1658.94187917897     
 End Solvation calculations
   5 F= -.13843645E+03 E0= -.13843264E+03  d E =-.284939E-02
quench:  g(F)=  0.000E+00 g(S)=  0.000E+00 dE (1.order)= 0.000E+00
 bond charge predicted
       N       E                     dE             d eps       ncg     rms          rms(c)
 Begin Solvation calculations
  rms_SCF =   3.432987291178524E-002 tol =   3.432987291178524E-003
 Begin minimization
 Creating dielectric and ionic cavities
  area:      139.372397871959     
  volume:    650.700201712909     
  Acav:     7.317050888277837E-002
  Solving linear dielectric/ionic screening model
        iter                  A_solv                     rms
   LPB:       -0.475096213277456E+00   0.620676271607531E-02
   LPB:    0  -0.475096213136251E+00   0.622526112981983E-02  -0.315428E-05   0.000000E+00   0.283845E+02  -0.895326E-04
   LPB:    1  -0.472488245166424E+00   0.375289578425425E-02   0.157697E-01   0.000000E+00   0.530598E+06  -0.224525E-20
   LPB:    2  -0.472228197277048E+00   0.565069249641893E-02   0.271604E-01   0.578948E-01   0.429760E+05  -0.140918E-17
   LPB:    3  -0.472145443021240E+00   0.108526384155534E-01   0.321252E-01   0.269046E+00   0.521788E+04  -0.141373E-16
   LPB:    4  -0.472111316780170E+00   0.259810957377265E-01   0.321974E-01   0.411456E+00   0.723150E+03  -0.673877E-17
   LPB:    5  -0.472097190337563E+00   0.251338940722441E-01   0.210356E-01   0.633592E+00   0.134269E+03  -0.242905E-16
   LPB:    6  -0.472085897067746E+00   0.109298819683073E-01   0.234984E-01   0.715653E+00   0.321181E+03   0.546801E-16
   LPB:    7  -0.472078720910120E+00   0.137355350479661E-01   0.306754E-01   0.486767E+00   0.312303E+03   0.169554E-16
   LPB:    8  -0.472074295013026E+00   0.821969507716335E-02   0.237174E-01   0.797688E+00   0.127176E+03  -0.513695E-16
   LPB:    9  -0.472070587801748E+00   0.291930303685408E-02   0.326327E-01   0.608779E+00   0.645431E+03  -0.148460E-15
  Finished solving LPB equations
  A_corr:   -0.398900078918969     
 End minimization
 Ecorr=   1658.44171659647     
 A_corr= -0.398900078918969     
 Ecorr_band=  -1658.84061667539     
 End Solvation calculations
DAV:   1    -0.138437711876E+03   -0.12496E-02   -0.21545E-01 15516   0.104E+00    0.128E-01
 Begin Solvation calculations
  rms_SCF =   3.432987291178524E-002 tol =   3.432987291178524E-003
 Begin minimization
 Creating dielectric and ionic cavities
  area:      139.253280386795     
  volume:    650.653863901058     
  Acav:     7.310797220306760E-002
  Solving linear dielectric/ionic screening model
        iter                  A_solv                     rms
   LPB:       -0.474145282050641E+00   0.261688670021428E+00
   LPB:    0  -0.474075169427473E+00   0.180942149724129E+00  -0.222257E-02   0.000000E+00   0.283866E+02  -0.630914E-01
   LPB:    1  -0.473905439041837E+00   0.532250821296931E-01   0.126746E-01   0.000000E+00   0.530856E+02  -0.377776E-17
   LPB:    2  -0.473866974763513E+00   0.148920621659988E-01   0.142257E-01   0.201910E+00   0.161177E+03   0.950099E-16
   LPB:    3  -0.473859309966543E+00   0.136678149175140E-01   0.223986E-01   0.126560E+00   0.159399E+03   0.119981E-15
   LPB:    4  -0.473855829139919E+00   0.560158268625164E-02   0.212107E-01   0.479566E+00   0.109901E+03   0.564852E-16
   LPB:    5  -0.473853571948956E+00   0.236734550446910E-02   0.308803E-01   0.445408E+00   0.574771E+03   0.704379E-16
  Finished solving LPB equations
  A_corr:   -0.400745599745888     
 End minimization
 Ecorr=   1658.17601476462     
 A_corr= -0.400745599745888     
 Ecorr_band=  -1658.57676036437     
 End Solvation calculations
RMM:   2    -0.138439178602E+03   -0.14667E-02   -0.16262E-02 16493   0.251E-01    0.114E-01
 Begin Solvation calculations
  rms_SCF =   3.432987291178524E-002 tol =   3.432987291178524E-003
 Begin minimization
 Creating dielectric and ionic cavities
  area:      139.252130800452     
  volume:    650.668753019879     
  Acav:     7.310736867023720E-002
  Solving linear dielectric/ionic screening model
[...]
 End Solvation calculations
  85 F= -.13846245E+03 E0= -.13845903E+03  d E =-.100786E-03
quench:  g(F)=  0.000E+00 g(S)=  0.000E+00 dE (1.order)= 0.000E+00
 bond charge predicted
       N       E                     dE             d eps       ncg     rms          rms(c)
 Begin Solvation calculations
  rms_SCF =   2.023873061614426E-003 tol =   2.023873061614427E-004
 Begin minimization
 Creating dielectric and ionic cavities
  area:      139.419500551413     
  volume:    649.316446653063     
  Acav:     7.319523778949176E-002
  Solving linear dielectric/ionic screening model
        iter                  A_solv                     rms
   LPB:       -0.511151615395563E+00   0.628937642790639E-03
   LPB:    0  -0.511151615386300E+00   0.644727916597156E-03  -0.806968E-06   0.000000E+00   0.284493E+02  -0.229577E-04
   LPB:    1  -0.511127138195922E+00   0.177846508560014E-03   0.152964E-01   0.000000E+00   0.411647E+06  -0.146910E-20
   LPB:    2  -0.511125392689657E+00   0.175220850442334E-03   0.254836E-01   0.428046E-01   0.160072E+06  -0.572461E-18
   LPB:    3  -0.511124906060898E+00   0.331183352438047E-03   0.309609E-01   0.229469E+00   0.306437E+05  -0.112574E-17
   LPB:    4  -0.511124715616744E+00   0.840518485606866E-03   0.338975E-01   0.357450E+00   0.348027E+04  -0.234758E-17
   LPB:    5  -0.511124635147145E+00   0.177171349733406E-02   0.302011E-01   0.474251E+00   0.325619E+03  -0.162961E-17
   LPB:    6  -0.511124595299696E+00   0.108267621898862E-02   0.187303E-01   0.798450E+00   0.151170E+03   0.993437E-18
   LPB:    7  -0.511124559627522E+00   0.552495317156774E-03   0.289921E-01   0.578353E+00   0.445239E+03   0.190036E-17
   LPB:    8  -0.511124538577047E+00   0.756944800896202E-03   0.307874E-01   0.555700E+00   0.218540E+03   0.269452E-17
   LPB:    9  -0.511124523796252E+00   0.435305632358021E-03   0.254011E-01   0.851052E+00   0.154692E+03   0.504336E-17
   LPB:   10  -0.511124510688390E+00   0.134255524571403E-03   0.346961E-01   0.649240E+00   0.641461E+03   0.112756E-16
  Finished solving LPB equations
  A_corr:   -0.437929272898898     
 End minimization
 Ecorr=   1650.77966246026     
 A_corr= -0.437929272898898     
 Ecorr_band=  -1651.21759173316     
 End Solvation calculations
DAV:   1    -0.138462530731E+03   -0.85994E-04   -0.42100E-03 13620   0.197E-01    0.235E-02
 Begin Solvation calculations
  rms_SCF =   2.023873061614426E-003 tol =   2.023873061614427E-004
 Begin minimization
 Creating dielectric and ionic cavities
  area:      139.419555100600     
  volume:    649.315907669813     
  Acav:     7.319526642781488E-002
  Solving linear dielectric/ionic screening model
        iter                  A_solv                     rms
   LPB:       -0.511080965982877E+00   0.379204058296049E-01
   LPB:    0  -0.511080965478852E+00   0.379128176237207E-01   0.595257E-05   0.000000E+00   0.284494E+02   0.169347E-03
   LPB:    1  -0.511077530584891E+00   0.378728097605278E-02   0.881865E-02   0.000000E+00   0.614219E+02  -0.725760E-20
   LPB:    2  -0.511077192439992E+00   0.757819667101873E-03   0.165220E-01   0.525447E-01   0.112665E+03  -0.125059E-17
   LPB:    3  -0.511077146926311E+00   0.377760860421802E-03   0.221837E-01   0.100246E+00   0.166609E+03  -0.223454E-17
   LPB:    4  -0.511077131428084E+00   0.274688282208960E-03   0.296315E-01   0.254929E+00   0.276723E+03  -0.209445E-17
   LPB:    5  -0.511077123880600E+00   0.315545969304044E-03   0.290216E-01   0.497225E+00   0.261798E+03  -0.255689E-17
   LPB:    6  -0.511077118550365E+00   0.293571437239063E-03   0.294292E-01   0.696445E+00   0.169178E+03  -0.345690E-17
   LPB:    7  -0.511077113905501E+00   0.205752671574445E-03   0.324687E-01   0.789841E+00   0.238650E+03  -0.369986E-17
   LPB:    8  -0.511077109084908E+00   0.104681763237232E-03   0.409433E-01   0.823020E+00   0.344297E+03  -0.333180E-17
  Finished solving LPB equations
  A_corr:   -0.437881842657093     
 End minimization
 Ecorr=   1650.79223976943     
 A_corr= -0.437881842657093     
 Ecorr_band=  -1651.23012161208     
 End Solvation calculations
RMM:   2    -0.138462599588E+03   -0.68857E-04   -0.61452E-04  7995   0.557E-02
 Begin Solvation calculations
  rms_SCF =   2.023873061614426E-003 tol =   2.023873061614427E-004
 Begin minimization
 Creating dielectric and ionic cavities
  area:      139.418024095480     
  volume:    649.316309028133     
  Acav:     7.319446265012701E-002
  Solving linear dielectric/ionic screening model
        iter                  A_solv                     rms
   LPB:       -0.511120624541711E+00   0.611002836732353E-01
   LPB:    0  -0.511120622185242E+00   0.610917877407030E-01   0.128709E-04   0.000000E+00   0.284493E+02   0.366169E-03
   LPB:    1  -0.511111791902400E+00   0.575621483284380E-02   0.871836E-02   0.000000E+00   0.622543E+02   0.199887E-19
   LPB:    2  -0.511111069667779E+00   0.120774214544971E-02   0.159072E-01   0.448274E-01   0.114592E+03   0.161448E-17
   LPB:    3  -0.511110980642517E+00   0.577690502075505E-03   0.217810E-01   0.900224E-01   0.137797E+03   0.903088E-18
   LPB:    4  -0.511110953980290E+00   0.443912117369804E-03   0.280973E-01   0.232165E+00   0.190833E+03   0.327953E-17
   LPB:    5  -0.511110942705495E+00   0.383679476766729E-03   0.245518E-01   0.483941E+00   0.210667E+03   0.455517E-17
   LPB:    6  -0.511110936588485E+00   0.244728834579480E-03   0.257013E-01   0.518275E+00   0.150929E+03   0.511161E-17
   LPB:    7  -0.511110932709575E+00   0.138652525184482E-03   0.299544E-01   0.544082E+00   0.270409E+03   0.514822E-17
  Finished solving LPB equations
  A_corr:   -0.437916470059448     
 End minimization
 Ecorr=   1650.78346858958     
 A_corr= -0.437916470059448     
 Ecorr_band=  -1651.22138505964     
 End Solvation calculations
  86 F= -.13846260E+03 E0= -.13845923E+03  d E =-.151641E-03
quench:  g(F)=  0.000E+00 g(S)=  0.000E+00 dE (1.order)= 0.000E+00
 bond charge predicted
       N       E                     dE             d eps       ncg     rms          rms(c)
 Begin Solvation calculations
  rms_SCF =   2.023873061614426E-003 tol =   2.023873061614427E-004
 Begin minimization
 Creating dielectric and ionic cavities
  area:      139.415808862810     
  volume:    649.309296374333     
  Acav:     7.319329965297530E-002
  Solving linear dielectric/ionic screening model
        iter                  A_solv                     rms
   LPB:       -0.511178933587345E+00   0.657789174733273E-03
   LPB:    0  -0.511178933581077E+00   0.674223685154713E-03  -0.663814E-06   0.000000E+00   0.284497E+02  -0.188853E-04
   LPB:    1  -0.511155609097305E+00   0.252304406228581E-03   0.155889E-01   0.000000E+00   0.327798E+06   0.951194E-21
   LPB:    2  -0.511153515494435E+00   0.274526041747105E-03   0.259880E-01   0.538425E-01   0.859897E+05   0.263506E-17
   LPB:    3  -0.511152912215450E+00   0.508712712198044E-03   0.312101E-01   0.239939E+00   0.150718E+05   0.238218E-17
   LPB:    4  -0.511152677753824E+00   0.107548563528037E-02   0.335225E-01   0.361837E+00   0.164506E+04   0.417871E-17
   LPB:    5  -0.511152579564260E+00   0.181845628258989E-02   0.288903E-01   0.485935E+00   0.243209E+03   0.121594E-16
   LPB:    6  -0.511152526065511E+00   0.114082160217952E-02   0.206810E-01   0.761130E+00   0.158910E+03   0.122692E-16
   LPB:    7  -0.511152484611583E+00   0.101232335580259E-02   0.281261E-01   0.569749E+00   0.311327E+03   0.116971E-16
   LPB:    8  -0.511152460814887E+00   0.867660041397034E-03   0.234233E-01   0.689306E+00   0.145668E+03   0.152648E-16
   LPB:    9  -0.511152438475373E+00   0.281862474376744E-03   0.289501E-01   0.759549E+00   0.291406E+03   0.184601E-16
   LPB:   10  -0.511152420734359E+00   0.781172437477470E-04   0.399164E-01   0.575975E+00   0.208454E+04   0.244944E-16
  Finished solving LPB equations
  A_corr:   -0.437959121081384     
 End minimization
 Ecorr=   1650.78371089251     
 A_corr= -0.437959121081384     
 Ecorr_band=  -1651.22167001359     
 End Solvation calculations
DAV:   1    -0.138462681487E+03   -0.15076E-03   -0.23944E-03 13248   0.195E-01    0.345E-02
 Begin Solvation calculations
  rms_SCF =   2.023873061614426E-003 tol =   2.023873061614427E-004
 Begin minimization
 Creating dielectric and ionic cavities
  area:      139.418731162488     
  volume:    649.310116357655     
  Acav:     7.319483386030637E-002
  Solving linear dielectric/ionic screening model
        iter                  A_solv                     rms
   LPB:       -0.511096439060452E+00   0.176515449864218E+00
   LPB:    0  -0.511096439040831E+00   0.176515195761465E+00   0.117445E-05   0.000000E+00   0.284496E+02   0.334127E-04
   LPB:    1  -0.511022772609481E+00   0.169470504530556E-01   0.873783E-02   0.000000E+00   0.619294E+02  -0.258225E-20
   LPB:    2  -0.511016515410060E+00   0.342224684789049E-02   0.160118E-01   0.463526E-01   0.112576E+03   0.302783E-17
   LPB:    3  -0.511015768331569E+00   0.153039067755252E-02   0.214130E-01   0.892791E-01   0.146765E+03   0.218938E-17
   LPB:    4  -0.511015566154380E+00   0.102426035568389E-02   0.269797E-01   0.214786E+00   0.219831E+03   0.130867E-16
   LPB:    5  -0.511015490806046E+00   0.972935670642521E-03   0.248319E-01   0.404920E+00   0.231570E+03   0.283520E-16
   LPB:    6  -0.511015452411902E+00   0.679669228938799E-03   0.251485E-01   0.503139E+00   0.136799E+03   0.342048E-16
   LPB:    7  -0.511015429580647E+00   0.366551827637911E-03   0.276689E-01   0.540488E+00   0.218333E+03   0.386000E-16
   LPB:    8  -0.511015414416118E+00   0.136640994278715E-03   0.343515E-01   0.534989E+00   0.240300E+03   0.431349E-16
  Finished solving LPB equations
  A_corr:   -0.437820580555812     
 End minimization
 Ecorr=   1650.81002240678     
 A_corr= -0.437820580555812     
 Ecorr_band=  -1651.24784298733     
 End Solvation calculations
RMM:   2    -0.138462985782E+03   -0.30430E-03   -0.37770E-04  8159   0.652E-02    0.155E-01
 Begin Solvation calculations
  rms_SCF =   2.023873061614426E-003 tol =   2.023873061614427E-004
 Begin minimization
 Creating dielectric and ionic cavities
  area:      139.415015002979     
  volume:    649.310961637923     
  Acav:     7.319288287656407E-002
  Solving linear dielectric/ionic screening model
        iter                  A_solv                     rms
   LPB:       -0.511160176325527E+00   0.151533750658986E+00
   LPB:    0  -0.511160157522299E+00   0.151510837258866E+00   0.363574E-04   0.000000E+00   0.284496E+02   0.103435E-02
   LPB:    1  -0.511105827569470E+00   0.143570534030553E-01   0.872514E-02   0.000000E+00   0.621781E+02   0.641984E-19
   LPB:    2  -0.511101295449296E+00   0.301300710952977E-02   0.159981E-01   0.454952E-01   0.114080E+03   0.563056E-17
   LPB:    3  -0.511100743505535E+00   0.143315320058855E-02   0.215291E-01   0.904974E-01   0.140700E+03   0.829008E-17
   LPB:    4  -0.511100590037561E+00   0.103798852844925E-02   0.268553E-01   0.222905E+00   0.206034E+03   0.216881E-16
   LPB:    5  -0.511100533901611E+00   0.825040591054555E-03   0.231297E-01   0.424702E+00   0.222494E+03   0.379632E-16
   LPB:    6  -0.511100507454667E+00   0.477831324494078E-03   0.241718E-01   0.450812E+00   0.165341E+03   0.463147E-16
   LPB:    7  -0.511100493655430E+00   0.237100174164914E-03   0.274539E-01   0.459393E+00   0.291597E+03   0.424953E-16
   LPB:    8  -0.511100485397005E+00   0.947792194444144E-04   0.339336E-01   0.484190E+00   0.367022E+03   0.426864E-16
  Finished solving LPB equations
  A_corr:   -0.437907602520441     
 End minimization
 Ecorr=   1650.78397754606     
 A_corr= -0.437907602520441     
 Ecorr_band=  -1651.22188514858     
 End Solvation calculations
RMM:   3    -0.138462697316E+03    0.28847E-03   -0.14840E-04  7218   0.493E-02    0.117E-02
 Begin Solvation calculations
  rms_SCF =   2.023873061614426E-003 tol =   2.023873061614427E-004
 Begin minimization
 Creating dielectric and ionic cavities
  area:      139.414941762973     
  volume:    649.310568016101     
  Acav:     7.319284442556058E-002
  Solving linear dielectric/ionic screening model
        iter                  A_solv                     rms
   LPB:       -0.511078602343777E+00   0.688975718689118E-02
   LPB:    0  -0.511078601945225E+00   0.685717126594954E-02   0.529321E-05   0.000000E+00   0.284496E+02   0.150590E-03
   LPB:    1  -0.511078427270778E+00   0.117386198160172E-02   0.990544E-02   0.000000E+00   0.753232E+02   0.664969E-20
   LPB:    2  -0.511078397493795E+00   0.219579488249569E-03   0.159955E-01   0.105567E+00   0.286664E+03  -0.152773E-18
   LPB:    3  -0.511078387619884E+00   0.133840426755607E-03   0.291948E-01   0.181677E+00   0.654104E+03   0.152841E-17
   LPB:    4  -0.511078382229623E+00   0.103823490219878E-03   0.371977E-01   0.428460E+00   0.649664E+03   0.194576E-17
  Finished solving LPB equations
  A_corr:   -0.437885537804062     
 End minimization
 Ecorr=   1650.79477869442     
 A_corr= -0.437885537804062     
 Ecorr_band=  -1651.23266423223     
 End Solvation calculations
RMM:   4    -0.138462700654E+03   -0.33381E-05   -0.28445E-05  6496   0.214E-02
 Begin Solvation calculations
  rms_SCF =   2.023873061614426E-003 tol =   2.023873061614427E-004
 Begin minimization
 Creating dielectric and ionic cavities
  area:      139.414274258250     
  volume:    649.312102578949     
  Acav:     7.319249398558141E-002
  Solving linear dielectric/ionic screening model
        iter                  A_solv                     rms
   LPB:       -0.511033732451517E+00   0.118426827187274E-01
   LPB:    0  -0.511033682316005E+00   0.109242437279095E-01   0.593677E-04   0.000000E+00   0.284495E+02   0.168898E-02
   LPB:    1  -0.511033371514240E+00   0.140542385711106E-02   0.937984E-02   0.000000E+00   0.579120E+02  -0.442102E-20
   LPB:    2  -0.511033320905700E+00   0.253173360364380E-03   0.172262E-01   0.886639E-01   0.110652E+03   0.895416E-17
   LPB:    3  -0.511033312796318E+00   0.190842629829598E-03   0.234791E-01   0.117563E+00   0.391073E+03   0.953895E-17
   LPB:    4  -0.511033308439314E+00   0.264092548512698E-03   0.303501E-01   0.415644E+00   0.220265E+03   0.971434E-17
   LPB:    5  -0.511033305122783E+00   0.301762873889378E-03   0.314273E-01   0.735105E+00   0.154460E+03   0.896544E-17
   LPB:    6  -0.511033301583652E+00   0.157587810647407E-03   0.350326E-01   0.957300E+00   0.151913E+03   0.939701E-17
  Finished solving LPB equations
  A_corr:   -0.437840807598070     
 End minimization
 Ecorr=   1650.79363006543     
 A_corr= -0.437840807598070     
 Ecorr_band=  -1651.23147087303     
 End Solvation calculations
  87 F= -.13846270E+03 E0= -.13845929E+03  d E =-.101067E-03
quench:  g(F)=  0.000E+00 g(S)=  0.000E+00 dE (1.order)= 0.000E+00
 bond charge predicted
       N       E                     dE             d eps       ncg     rms          rms(c)
 Begin Solvation calculations
  rms_SCF =   2.023873061614426E-003 tol =   2.023873061614427E-004
 Begin minimization
 Creating dielectric and ionic cavities
  area:      139.412568699212     
  volume:    649.305881415349     
  Acav:     7.319159856708654E-002
  Solving linear dielectric/ionic screening model
        iter                  A_solv                     rms
   LPB:       -0.511092187484174E+00   0.609974285785314E-03
   LPB:    0  -0.511092187475640E+00   0.616979666654156E-03  -0.774553E-06   0.000000E+00   0.284498E+02  -0.220359E-04
   LPB:    1  -0.511066793333692E+00   0.155485110450320E-03   0.153024E-01   0.000000E+00   0.521030E+06  -0.143930E-20
   LPB:    2  -0.511064982320138E+00   0.106521324084899E-03   0.254943E-01   0.428060E-01   0.208627E+06   0.458013E-18
   LPB:    3  -0.511064476362529E+00   0.179534166642527E-03   0.310043E-01   0.229728E+00   0.767122E+05   0.370182E-18
   LPB:    4  -0.511064276563622E+00   0.490503032051715E-03   0.343095E-01   0.356851E+00   0.121300E+05   0.386878E-18
   LPB:    5  -0.511064186109021E+00   0.133972473762772E-02   0.341829E-01   0.454405E+00   0.856791E+03   0.408387E-18
   LPB:    6  -0.511064147999160E+00   0.146618990688611E-02   0.212149E-01   0.678852E+00   0.152087E+03   0.262976E-18
   LPB:    7  -0.511064113717891E+00   0.389872202266798E-03   0.236730E-01   0.806134E+00   0.317401E+03   0.206939E-18
   LPB:    8  -0.511064088040403E+00   0.156121214640499E-03   0.386398E-01   0.458896E+00   0.223176E+04  -0.154071E-18
  Finished solving LPB equations
  A_corr:   -0.437872489473317     
 End minimization
 Ecorr=   1650.79434095471     
 A_corr= -0.437872489473317     
 Ecorr_band=  -1651.23221344419     
 End Solvation calculations
DAV:   1    -0.138462785537E+03   -0.88221E-04   -0.43940E-03 12102   0.179E-01    0.245E-02
 Begin Solvation calculations
  rms_SCF =   1.806973314935759E-003 tol =   1.806973314935759E-004
 Begin minimization
 Creating dielectric and ionic cavities
  area:      139.412338013850     
  volume:    649.303338182647     
  Acav:     7.319147745727114E-002
  Solving linear dielectric/ionic screening model
        iter                  A_solv                     rms
   LPB:       -0.511057364690304E+00   0.722808334374232E-02
   LPB:    0  -0.511057325296674E+00   0.630618974704758E-02  -0.526244E-04   0.000000E+00   0.284500E+02  -0.149716E-02
   LPB:    1  -0.511057167068530E+00   0.127127245170915E-02   0.103332E-01   0.000000E+00   0.734568E+02   0.208963E-19
   LPB:    2  -0.511057123409002E+00   0.468795973137845E-03   0.191897E-01   0.148581E+00   0.322347E+03  -0.445240E-18
   LPB:    3  -0.511057110331720E+00   0.606836480853191E-03   0.251816E-01   0.228256E+00   0.127176E+03  -0.636460E-18
   LPB:    4  -0.511057100907428E+00   0.382967717952171E-03   0.277840E-01   0.653163E+00   0.141378E+03  -0.619733E-18
   LPB:    5  -0.511057092630665E+00   0.212317654047026E-03   0.342324E-01   0.712801E+00   0.406310E+03  -0.237643E-17
   LPB:    6  -0.511057084326882E+00   0.129970278205526E-03   0.395845E-01   0.867618E+00   0.116914E+04  -0.717241E-17
  Finished solving LPB equations
  A_corr:   -0.437865606869611     
 End minimization
 Ecorr=   1650.81538534760     
 A_corr= -0.437865606869611     
 Ecorr_band=  -1651.25325095447     
 End Solvation calculations
RMM:   2    -0.138462848322E+03   -0.62784E-04   -0.60849E-04  7827   0.550E-02
 Begin Solvation calculations
  rms_SCF =   1.806973314935759E-003 tol =   1.806973314935759E-004
 Begin minimization
 Creating dielectric and ionic cavities
  area:      139.410971280150     
  volume:    649.305041435612     
  Acav:     7.319075992207873E-002
  Solving linear dielectric/ionic screening model
        iter                  A_solv                     rms
   LPB:       -0.511055692274158E+00   0.415998244554673E-01
   LPB:    0  -0.511055619338920E+00   0.412072876144262E-01   0.716050E-04   0.000000E+00   0.284499E+02   0.203715E-02
   LPB:    1  -0.511051560039303E+00   0.372533387331882E-02   0.871960E-02   0.000000E+00   0.627372E+02  -0.189043E-18
   LPB:    2  -0.511051245849044E+00   0.930541462398545E-03   0.155813E-01   0.433147E-01   0.123489E+03   0.387908E-17
   LPB:    3  -0.511051202777334E+00   0.604768975407305E-03   0.224760E-01   0.950352E-01   0.116646E+03   0.909567E-17
   LPB:    4  -0.511051188723988E+00   0.429908693043993E-03   0.250666E-01   0.292557E+00   0.138566E+03   0.353898E-17
   LPB:    5  -0.511051181506307E+00   0.238244944983200E-03   0.239089E-01   0.538461E+00   0.247783E+03   0.753474E-17
   LPB:    6  -0.511051176654340E+00   0.150340536707983E-03   0.322044E-01   0.499073E+00   0.241815E+03   0.860111E-17
  Finished solving LPB equations
  A_corr:   -0.437860416732261     
 End minimization
 Ecorr=   1650.80637644368     
 A_corr= -0.437860416732261     
 Ecorr_band=  -1651.24423686041     
 End Solvation calculations
  88 F= -.13846285E+03 E0= -.13845947E+03  d E =-.147667E-03
quench:  g(F)=  0.000E+00 g(S)=  0.000E+00 dE (1.order)= 0.000E+00
 reached required accuracy - stopping structural energy minimisation
