 vasp.5.4.4.18Apr17-6-g9f103f2a35 (build Feb 06 2024 13:54:16) complex          
  
 POSCAR found type information on POSCAR  Pd N  O 
 02/POSCAR found :  3 types and      40 ions
 scaLAPACK will be used

 ----------------------------------------------------------------------------- 
|                                                                             |
|  ADVICE TO THIS USER RUNNING 'VASP/VAMP'   (HEAR YOUR MASTER'S VOICE ...):  |
|                                                                             |
|      You enforced a specific xc-type in the INCAR file,                     |
|      a different type was found on the POTCAR file                          |
|          I HOPE YOU KNOW, WHAT YOU ARE  DOING                               |
|                                                                             |
 ----------------------------------------------------------------------------- 

 LDA part: xc-table for Pade appr. of Perdew
 POSCAR found type information on POSCAR  Pd N  O 
 00/POSCAR found :  3 types and      40 ions
 POSCAR found type information on POSCAR  Pd N  O 
 06/POSCAR found :  3 types and      40 ions
 Jacobian:    21.7506536142030     
 POSCAR, INCAR and KPOINTS ok, starting setup
 FFT: planning ...
 WAVECAR not read
 entering main loop
       N       E                     dE             d eps       ncg     rms          rms(c)
  Solvation turned off during non-self-consistent phase (first NELMDL steps)
DAV:   1     0.264620717500E+04    0.26462E+04   -0.17599E+05  3696   0.147E+03
DAV:   2     0.423572291349E+01   -0.26420E+04   -0.24709E+04  4116   0.314E+02
DAV:   3    -0.179680756144E+03   -0.18392E+03   -0.16519E+03  4431   0.730E+01
DAV:   4    -0.187543059435E+03   -0.78623E+01   -0.74348E+01  4377   0.148E+01
DAV:   5    -0.187820149859E+03   -0.27709E+00   -0.26840E+00  4809   0.283E+00    0.351E+01
 Begin Solvation calculations
  rms_SCF =    2.69194122436719      tol =   0.269194122436719     
 Begin minimization
 Creating dielectric and ionic cavities
  area:      192.127863668517     
  volume:    854.649886841568     
  Acav:     0.100867128425971     
  Solving linear dielectric/ionic screening model
        iter                  A_solv                     rms
   LPB:       -0.553946962615896E+03   0.276576121372618E+03
   LPB:    0  -0.178181466216836E+01   0.425323306086913E+01  -0.552257E+01   0.000000E+00   0.362089E+02  -0.199967E+03
   LPB:    1  -0.532167691534369E+00   0.187305742679388E+01   0.171234E-01   0.000000E+00   0.275157E+03   0.112626E-13
   LPB:    2  -0.315788669296467E+00   0.153012359164273E+01   0.244006E-01   0.121511E+00   0.864405E+02   0.568926E-13
   LPB:    3  -0.238739179385220E+00   0.113364397219280E+01   0.200579E-01   0.433181E+00   0.285376E+03   0.708973E-13
   LPB:    4  -0.193598867115611E+00   0.786734724597948E+00   0.250014E-01   0.470019E+00   0.103913E+03   0.757891E-13
   LPB:    5  -0.171075711809863E+00   0.691707941024080E+00   0.236470E-01   0.527537E+00   0.820882E+02   0.859290E-13
   LPB:    6  -0.155969982241231E+00   0.369142535559315E+00   0.239867E-01   0.661179E+00   0.283145E+03   0.914643E-13
   LPB:    7  -0.145404538817388E+00   0.131136893771963E+00   0.332822E-01   0.504084E+00   0.724219E+02   0.944925E-13
  Finished solving LPB equations
  A_corr:   -4.453741039141683E-002
 End minimization
 Ecorr=   1988.74760357648     
 A_corr= -4.453741039141683E-002
 Ecorr_band=  -1988.79214098687     
 End Solvation calculations
RMM:   6    -0.180802793847E+03    0.70174E+01   -0.33600E+01  3704   0.121E+01    0.215E+01
 Begin Solvation calculations
  rms_SCF =    2.69194122436719      tol =   0.269194122436719     
 Begin minimization
 Creating dielectric and ionic cavities
  area:      183.078725335786     
  volume:    864.648708214092     
  Acav:     9.611633080128744E-002
  Solving linear dielectric/ionic screening model
        iter                  A_solv                     rms
   LPB:       -0.653124454519874E+01   0.399953236524042E+02
   LPB:    0  -0.554699527883426E+01   0.372881652127907E+02   0.234687E+00   0.000000E+00   0.357402E+02   0.838776E+01
   LPB:    1  -0.705317182103973E+00   0.351673671296955E+01   0.915879E-02   0.000000E+00   0.825032E+02   0.155862E-15
   LPB:    2  -0.330074836698294E+00   0.724040907626543E+00   0.161187E-01   0.440377E-01   0.156334E+03   0.153241E-13
   LPB:    3  -0.272064680695996E+00   0.390458895032299E+00   0.227672E-01   0.109449E+00   0.222034E+03   0.162958E-13
   LPB:    4  -0.253949843486363E+00   0.509818712899872E+00   0.252779E-01   0.281254E+00   0.294140E+03   0.152149E-13
   LPB:    5  -0.245434172437897E+00   0.242882673973961E+00   0.246546E-01   0.481979E+00   0.838787E+02   0.147868E-13
  Finished solving LPB equations
  A_corr:   -0.149317841636610     
 End minimization
 Ecorr=   1911.34418932414     
 A_corr= -0.149317841636610     
 Ecorr_band=  -1911.49350716578     
 End Solvation calculations
RMM:   7    -0.197395696155E+03   -0.16593E+02   -0.18085E+01  3712   0.718E+00    0.339E+01
 Begin Solvation calculations
  rms_SCF =    2.69194122436719      tol =   0.269194122436719     
 Begin minimization
 Creating dielectric and ionic cavities
  area:      176.152237298455     
  volume:    862.699988676839     
  Acav:     9.247992458168892E-002
  Solving linear dielectric/ionic screening model
        iter                  A_solv                     rms
   LPB:       -0.981799182309383E+01   0.508884320071449E+02
   LPB:    0  -0.981706778991251E+01   0.508988898253793E+02   0.718168E-02   0.000000E+00   0.358315E+02   0.257331E+00
   LPB:    1  -0.101970835331669E+01   0.489890938232231E+01   0.906187E-02   0.000000E+00   0.826096E+02  -0.561366E-17
   LPB:    2  -0.328935879843131E+00   0.896275889866494E+00   0.168126E-01   0.423220E-01   0.134512E+03  -0.308846E-16
   LPB:    3  -0.223922092968897E+00   0.304841993718579E+00   0.225572E-01   0.113308E+00   0.240531E+03   0.301784E-14
   LPB:    4  -0.196581664255866E+00   0.171179660118673E+00   0.273086E-01   0.215053E+00   0.333207E+03   0.343237E-14
  Finished solving LPB equations
  A_corr:   -0.104101739674178     
 End minimization
 Ecorr=   1878.31209034751     
 A_corr= -0.104101739674178     
 Ecorr_band=  -1878.41619208718     
 End Solvation calculations
RMM:   8    -0.188217677997E+03    0.91780E+01   -0.13422E+01  3696   0.657E+00    0.246E+01
 Begin Solvation calculations
  rms_SCF =    2.69194122436719      tol =   0.269194122436719     
 Begin minimization
 Creating dielectric and ionic cavities
  area:      178.888812697546     
  volume:    851.870079617966     
  Acav:     9.391662666621163E-002
  Solving linear dielectric/ionic screening model
        iter                  A_solv                     rms
   LPB:       -0.307853729551517E+01   0.275599869255047E+02
   LPB:    0  -0.301391169268517E+01   0.270209878921392E+02  -0.596388E-01   0.000000E+00   0.363393E+02  -0.216723E+01
   LPB:    1  -0.464034868514721E+00   0.242972646979999E+01   0.910004E-02   0.000000E+00   0.832737E+02   0.630706E-16
   LPB:    2  -0.267857316294321E+00   0.626614626906003E+00   0.158285E-01   0.442316E-01   0.171684E+03   0.893833E-15
   LPB:    3  -0.237330196207838E+00   0.471123112860052E+00   0.212564E-01   0.115874E+00   0.246636E+03   0.185905E-14
   LPB:    4  -0.228238411117141E+00   0.273879095555095E+00   0.244545E-01   0.258878E+00   0.121806E+03   0.496245E-14
   LPB:    5  -0.221709985868241E+00   0.248812421280380E+00   0.296705E-01   0.591824E+00   0.330758E+03   0.488965E-14
  Finished solving LPB equations
  A_corr:   -0.127793359202029     
 End minimization
 Ecorr=   1867.84170786277     
 A_corr= -0.127793359202029     
 Ecorr_band=  -1867.96950122198     
 End Solvation calculations
RMM:   9    -0.183450928282E+03    0.47667E+01   -0.90473E+00  3704   0.550E+00    0.232E+01
 Begin Solvation calculations
  rms_SCF =    2.69194122436719      tol =   0.269194122436719     
 Begin minimization
 Creating dielectric and ionic cavities
  area:      174.708066814796     
  volume:    850.061236332706     
  Acav:     9.172173507776790E-002
  Solving linear dielectric/ionic screening model
        iter                  A_solv                     rms
   LPB:       -0.493643884381764E+00   0.808380609893060E+01
   LPB:    0  -0.486438457910189E+00   0.812068562705731E+01   0.198907E-01   0.000000E+00   0.364241E+02   0.724501E+00
   LPB:    1  -0.257358758824533E+00   0.865221452628424E+00   0.917487E-02   0.000000E+00   0.818475E+02   0.321058E-16
   LPB:    2  -0.228542131331747E+00   0.209953785900144E+00   0.192957E-01   0.598129E-01   0.127815E+03   0.105217E-14
   LPB:    3  -0.220704631560747E+00   0.130338884875600E+00   0.264243E-01   0.198606E+00   0.341221E+03   0.221209E-14
   LPB:    4  -0.216421450909327E+00   0.113743048724055E+00   0.358500E-01   0.402812E+00   0.180573E+03   0.260717E-14
  Finished solving LPB equations
  A_corr:   -0.124699715831559     
 End minimization
 Ecorr=   1845.68843270242     
 A_corr= -0.124699715831559     
 Ecorr_band=  -1845.81313241825     
 End Solvation calculations
RMM:  10    -0.180635314371E+03    0.28156E+01   -0.43639E+00  3708   0.388E+00    0.140E+01
 Begin Solvation calculations
  rms_SCF =    2.69194122436719      tol =   0.269194122436719     
 Begin minimization
 Creating dielectric and ionic cavities
  area:      173.896106920536     
  volume:    847.392418786183     
  Acav:     9.129545613328131E-002
  Solving linear dielectric/ionic screening model
        iter                  A_solv                     rms
   LPB:       -0.591381470124109E+00   0.933112987888832E+01
   LPB:    0  -0.558759987743169E+00   0.905030629881608E+01   0.422501E-01   0.000000E+00   0.365492E+02   0.154421E+01
   LPB:    1  -0.275624733872119E+00   0.885698278690470E+00   0.914215E-02   0.000000E+00   0.826758E+02  -0.107390E-15
   LPB:    2  -0.245191409934681E+00   0.205092378119878E+00   0.178849E-01   0.549436E-01   0.159321E+03  -0.665981E-16
   LPB:    3  -0.237631640735666E+00   0.101416123247823E+00   0.251748E-01   0.176474E+00   0.371410E+03  -0.130686E-15
   LPB:    4  -0.234092345779603E+00   0.114775587339612E+00   0.363508E-01   0.324236E+00   0.461574E+03  -0.226999E-15
  Finished solving LPB equations
  A_corr:   -0.142796889646321     
 End minimization
 Ecorr=   1829.31879569442     
 A_corr= -0.142796889646321     
 Ecorr_band=  -1829.46159258407     
 End Solvation calculations
RMM:  11    -0.179579114957E+03    0.10562E+01   -0.29066E+00  3708   0.321E+00    0.875E+00
 Begin Solvation calculations
  rms_SCF =    2.69194122436719      tol =   0.269194122436719     
 Begin minimization
 Creating dielectric and ionic cavities
  area:      172.749008994191     
  volume:    843.115580737998     
  Acav:     9.069322972195042E-002
  Solving linear dielectric/ionic screening model
        iter                  A_solv                     rms
   LPB:       -0.284630537729529E+00   0.307085629743540E+01
   LPB:    0  -0.282040089921020E+00   0.315927563332657E+01   0.118734E-01   0.000000E+00   0.367497E+02   0.436344E+00
   LPB:    1  -0.242999610090283E+00   0.397224969223571E+00   0.961559E-02   0.000000E+00   0.810452E+02   0.242912E-16
   LPB:    2  -0.235523582511838E+00   0.152988954623953E+00   0.203070E-01   0.906745E-01   0.150755E+03  -0.565519E-15
   LPB:    3  -0.233195685202119E+00   0.192051790472679E+00   0.261532E-01   0.241777E+00   0.333164E+03   0.119054E-15
   LPB:    4  -0.231146199643096E+00   0.158868985174329E+00   0.349221E-01   0.659333E+00   0.953324E+02  -0.429808E-15
  Finished solving LPB equations
  A_corr:   -0.140452969921146     
 End minimization
 Ecorr=   1814.84636126032     
 A_corr= -0.140452969921146     
 Ecorr_band=  -1814.98681423024     
 End Solvation calculations
RMM:  12    -0.178959495650E+03    0.61962E+00   -0.12714E+00  3708   0.213E+00    0.684E+00
 Begin Solvation calculations
  rms_SCF =    2.34818769260636      tol =   0.234818769260636     
 Begin minimization
 Creating dielectric and ionic cavities
  area:      171.895637405484     
  volume:    840.211776996754     
  Acav:     9.024520963787928E-002
  Solving linear dielectric/ionic screening model
        iter                  A_solv                     rms
   LPB:       -0.240724095126595E+00   0.882462264033487E+00
   LPB:    0  -0.237750212051085E+00   0.768939701238876E+00   0.126983E-01   0.000000E+00   0.368858E+02   0.468389E+00
   LPB:    1  -0.232651407749821E+00   0.241585060889505E+00   0.126568E-01   0.000000E+00   0.104943E+03   0.315001E-16
   LPB:    2  -0.231416346416511E+00   0.863419212159082E-01   0.162501E-01   0.188663E+00   0.338851E+03   0.417030E-15
   LPB:    3  -0.229727201178807E+00   0.142368076890846E+00   0.585002E-01   0.379907E+00   0.246981E+03   0.526558E-15
   LPB:    4  -0.227930936375988E+00   0.105225333903296E+00   0.373323E-01   0.166639E+01   0.850220E+02   0.662666E-15
  Finished solving LPB equations
  A_corr:   -0.137685726738109     
 End minimization
 Ecorr=   1804.09228394968     
 A_corr= -0.137685726738109     
 Ecorr_band=  -1804.22996967641     
 End Solvation calculations
RMM:  13    -0.178636729168E+03    0.32277E+00   -0.53515E-01  3705   0.141E+00    0.361E+00
 Begin Solvation calculations
  rms_SCF =    1.07481406312737      tol =   0.107481406312737     
 Begin minimization
 Creating dielectric and ionic cavities
  area:      172.040816892714     
  volume:    837.357995662887     
  Acav:     9.032142886867478E-002
  Solving linear dielectric/ionic screening model
        iter                  A_solv                     rms
   LPB:       -0.236312352748035E+00   0.482553412624061E+00
   LPB:    0  -0.234125825990598E+00   0.342299290717692E+00   0.108687E-01   0.000000E+00   0.370196E+02   0.402354E+00
   LPB:    1  -0.230435623916476E+00   0.227897826940412E+00   0.148440E-01   0.000000E+00   0.261346E+03  -0.296755E-16
   LPB:    2  -0.229612188150101E+00   0.126286715706471E+00   0.176402E-01   0.187770E+00   0.137675E+03   0.560130E-15
   LPB:    3  -0.229058652507693E+00   0.784799312531624E-01   0.263092E-01   0.450726E+00   0.314907E+03   0.724126E-16
   LPB:    4  -0.228687702242979E+00   0.845290599223324E-01   0.293094E-01   0.601549E+00   0.121160E+03  -0.397493E-15
  Finished solving LPB equations
  A_corr:   -0.138366273374304     
 End minimization
 Ecorr=   1797.97034795503     
 A_corr= -0.138366273374304     
 Ecorr_band=  -1798.10871422841     
 End Solvation calculations
RMM:  14    -0.178605613160E+03    0.31116E-01   -0.17343E-01  3711   0.794E-01    0.309E+00
 Begin Solvation calculations
  rms_SCF =   0.945556380042145      tol =   9.455563800421447E-002
 Begin minimization
 Creating dielectric and ionic cavities
  area:      172.373863236938     
  volume:    834.158859746701     
  Acav:     9.049627819939247E-002
  Solving linear dielectric/ionic screening model
        iter                  A_solv                     rms
   LPB:       -0.236124406529761E+00   0.343711096027800E+00
   LPB:    0  -0.235251294371735E+00   0.436091218421666E+00   0.685419E-02   0.000000E+00   0.371696E+02   0.254767E+00
   LPB:    1  -0.230750895291246E+00   0.220922210931272E+00   0.132042E-01   0.000000E+00   0.227920E+03   0.155835E-17
   LPB:    2  -0.230012406980964E+00   0.856139361071586E-01   0.173107E-01   0.125167E+00   0.108157E+03   0.943702E-15
   LPB:    3  -0.229614535881430E+00   0.845538669612978E-01   0.278984E-01   0.334298E+00   0.370341E+03   0.108747E-14
   LPB:    4  -0.229301860780425E+00   0.925248628047146E-01   0.267715E-01   0.818951E+00   0.176615E+03   0.106606E-14
  Finished solving LPB equations
  A_corr:   -0.138805582581033     
 End minimization
 Ecorr=   1794.10906019591     
 A_corr= -0.138805582581033     
 Ecorr_band=  -1794.24786577849     
 End Solvation calculations
RMM:  15    -0.178543493839E+03    0.62119E-01   -0.78982E-02  3708   0.537E-01    0.191E+00
 Begin Solvation calculations
  rms_SCF =   0.902893904501951      tol =   9.028939045019514E-002
 Begin minimization
 Creating dielectric and ionic cavities
  area:      172.875414619409     
  volume:    830.247488692720     
  Acav:     9.075959267518956E-002
  Solving linear dielectric/ionic screening model
        iter                  A_solv                     rms
   LPB:       -0.239737476888732E+00   0.528215075045843E+00
   LPB:    0  -0.237320816121551E+00   0.514011509527861E+00   0.113752E-01   0.000000E+00   0.373530E+02   0.424899E+00
   LPB:    1  -0.230274450876431E+00   0.273773067440044E+00   0.127104E-01   0.000000E+00   0.301514E+03   0.966106E-17
   LPB:    2  -0.229396526196203E+00   0.861323985949865E-01   0.157887E-01   0.100301E+00   0.908430E+02   0.984456E-15
   LPB:    3  -0.229011145330397E+00   0.803618397918735E-01   0.253827E-01   0.273049E+00   0.343516E+03   0.216812E-14
   LPB:    4  -0.228717698268940E+00   0.862937580262111E-01   0.264484E-01   0.730764E+00   0.199047E+03   0.283823E-14
  Finished solving LPB equations
  A_corr:   -0.137958105593751     
 End minimization
 Ecorr=   1789.59158798637     
 A_corr= -0.137958105593751     
 Ecorr_band=  -1789.72954609196     
 End Solvation calculations
RMM:  16    -0.178543690236E+03   -0.19640E-03   -0.60108E-02  3711   0.461E-01    0.192E+00
 Begin Solvation calculations
  rms_SCF =   0.902893904501951      tol =   9.028939045019514E-002
 Begin minimization
 Creating dielectric and ionic cavities
  area:      173.628978233737     
  volume:    825.177310656780     
  Acav:     9.115521357271213E-002
  Solving linear dielectric/ionic screening model
        iter                  A_solv                     rms
   LPB:       -0.259554082655856E+00   0.103341427361558E+01
   LPB:    0  -0.250633066254344E+00   0.763381924362653E+00   0.217862E-01   0.000000E+00   0.375907E+02   0.818959E+00
   LPB:    1  -0.233390181414621E+00   0.353169600622117E+00   0.137030E-01   0.000000E+00   0.303370E+03   0.343942E-16
   LPB:    2  -0.231253004043417E+00   0.116631860021455E+00   0.168836E-01   0.100596E+00   0.926239E+02  -0.232522E-16
   LPB:    3  -0.230423185105672E+00   0.625976388457705E-01   0.257547E-01   0.254538E+00   0.388122E+03  -0.113871E-14
   LPB:    4  -0.229927060211154E+00   0.863526662506037E-01   0.318166E-01   0.483962E+00   0.251220E+03  -0.206978E-14
  Finished solving LPB equations
  A_corr:   -0.138771846638441     
 End minimization
 Ecorr=   1782.57605950080     
 A_corr= -0.138771846638441     
 Ecorr_band=  -1782.71483134744     
 End Solvation calculations
RMM:  17    -0.178528631395E+03    0.15059E-01   -0.31823E-02  3710   0.348E-01    0.164E+00
 Begin Solvation calculations
  rms_SCF =   0.902893904501951      tol =   9.028939045019514E-002
 Begin minimization
 Creating dielectric and ionic cavities
  area:      173.848337657350     
  volume:    823.437562357009     
  Acav:     9.127037727010887E-002
  Solving linear dielectric/ionic screening model
        iter                  A_solv                     rms
   LPB:       -0.234823010108679E+00   0.365341269101660E+00
   LPB:    0  -0.233895565033140E+00   0.348336846296236E+00   0.701695E-02   0.000000E+00   0.376722E+02   0.264344E+00
   LPB:    1  -0.230879076759816E+00   0.153707101898872E+00   0.137256E-01   0.000000E+00   0.248528E+03   0.763565E-17
   LPB:    2  -0.230467956609712E+00   0.587037317296687E-01   0.172938E-01   0.108170E+00   0.919567E+02   0.110564E-14
   LPB:    3  -0.230101460744765E+00   0.521103503495274E-01   0.440302E-01   0.350139E+00   0.279584E+03   0.155232E-14
   LPB:    4  -0.229718984215074E+00   0.940494488384069E-01   0.357830E-01   0.128413E+01   0.195644E+03   0.189547E-14
   LPB:    5  -0.229509482156760E+00   0.846312903331876E-01   0.209384E-01   0.936088E+00   0.219854E+03   0.181513E-14
  Finished solving LPB equations
  A_corr:   -0.138239104886651     
 End minimization
 Ecorr=   1780.29665966656     
 A_corr= -0.138239104886651     
 Ecorr_band=  -1780.43489877145     
 End Solvation calculations
RMM:  18    -0.178513959132E+03    0.14672E-01   -0.14796E-02  3709   0.231E-01    0.112E+00
 Begin Solvation calculations
  rms_SCF =   0.902893904501951      tol =   9.028939045019514E-002
 Begin minimization
 Creating dielectric and ionic cavities
  area:      174.156964675493     
  volume:    821.418798273968     
  Acav:     9.143240645463381E-002
  Solving linear dielectric/ionic screening model
        iter                  A_solv                     rms
   LPB:       -0.238523060993138E+00   0.864001122331799E+00
   LPB:    0  -0.237498867423786E+00   0.883479575175750E+00   0.736462E-02   0.000000E+00   0.377669E+02   0.278139E+00
   LPB:    1  -0.230208520380953E+00   0.223640784732493E+00   0.123315E-01   0.000000E+00   0.120264E+03   0.163760E-16
   LPB:    2  -0.229286883227115E+00   0.818809765090008E-01   0.133516E-01   0.116760E+00   0.223167E+03  -0.593327E-15
   LPB:    3  -0.229116393229554E+00   0.493056354329391E-01   0.181112E-01   0.136372E+00   0.151901E+03   0.337935E-15
   LPB:    4  -0.229024105756080E+00   0.420646329468100E-01   0.256679E-01   0.381944E+00   0.255657E+03   0.487432E-15
  Finished solving LPB equations
  A_corr:   -0.137591699301446     
 End minimization
 Ecorr=   1777.08955073301     
 A_corr= -0.137591699301446     
 Ecorr_band=  -1777.22714243232     
 End Solvation calculations
RMM:  19    -0.178503731739E+03    0.10227E-01   -0.64844E-03  3705   0.141E-01    0.616E-01
 Begin Solvation calculations
  rms_SCF =   0.589513956056338      tol =   5.895139560563380E-002
 Begin minimization
 Creating dielectric and ionic cavities
  area:      174.355591374892     
  volume:    820.263324762289     
  Acav:     9.153668547181823E-002
  Solving linear dielectric/ionic screening model
        iter                  A_solv                     rms
   LPB:       -0.232950577887364E+00   0.485892483549967E+00
   LPB:    0  -0.232366146583518E+00   0.438350152931861E+00   0.555923E-02   0.000000E+00   0.378210E+02   0.210256E+00
   LPB:    1  -0.229312230306519E+00   0.117763862849021E+00   0.134433E-01   0.000000E+00   0.175884E+03  -0.814833E-17
   LPB:    2  -0.228993439650315E+00   0.663758413236780E-01   0.152362E-01   0.921038E-01   0.152451E+03  -0.110249E-15
   LPB:    3  -0.228852811749432E+00   0.574097077077814E-01   0.235175E-01   0.285794E+00   0.125340E+03   0.137394E-15
   LPB:    4  -0.228739792225815E+00   0.530540281065318E-01   0.283430E-01   0.666848E+00   0.294256E+03   0.172222E-15
  Finished solving LPB equations
  A_corr:   -0.137203106753997     
 End minimization
 Ecorr=   1775.77687751304     
 A_corr= -0.137203106753997     
 Ecorr_band=  -1775.91408061979     
 End Solvation calculations
RMM:  20    -0.178500917156E+03    0.28146E-02   -0.29745E-03  3707   0.998E-02    0.418E-01
 Begin Solvation calculations
  rms_SCF =   0.589513956056338      tol =   5.895139560563380E-002
 Begin minimization
 Creating dielectric and ionic cavities
  area:      174.435752333209     
  volume:    819.812850423558     
  Acav:     9.157876997493472E-002
  Solving linear dielectric/ionic screening model
        iter                  A_solv                     rms
   LPB:       -0.229678010111879E+00   0.365252871717700E+00
   LPB:    0  -0.229611397534095E+00   0.355824730345599E+00   0.187631E-02   0.000000E+00   0.378422E+02   0.710037E-01
   LPB:    1  -0.228463614383776E+00   0.844956354290828E-01   0.126319E-01   0.000000E+00   0.113326E+03   0.822172E-18
   LPB:    2  -0.228336566052947E+00   0.377131771151845E-01   0.130755E-01   0.106935E+00   0.230933E+03  -0.314873E-16
   LPB:    3  -0.228265216261844E+00   0.344756145219927E-01   0.311203E-01   0.235960E+00   0.113939E+03   0.360249E-16
   LPB:    4  -0.228159530404289E+00   0.446613622318150E-01   0.434413E-01   0.106112E+01   0.214564E+03   0.178388E-15
  Finished solving LPB equations
  A_corr:   -0.136580760429354     
 End minimization
 Ecorr=   1775.51150058989     
 A_corr= -0.136580760429354     
 Ecorr_band=  -1775.64808135032     
 End Solvation calculations
RMM:  21    -0.178500442849E+03    0.47431E-03   -0.89758E-04  3712   0.537E-02    0.382E-01
 Begin Solvation calculations
  rms_SCF =   0.557157112256449      tol =   5.571571122564493E-002
 Begin minimization
 Creating dielectric and ionic cavities
  area:      174.652111296845     
  volume:    818.635705294263     
  Acav:     9.169235843084350E-002
  Solving linear dielectric/ionic screening model
        iter                  A_solv                     rms
   LPB:       -0.238014289840222E+00   0.956162093152891E+00
   LPB:    0  -0.237326601418303E+00   0.924257046656790E+00   0.602430E-02   0.000000E+00   0.378974E+02   0.228305E+00
   LPB:    1  -0.228154367172467E+00   0.214262667772870E+00   0.129525E-01   0.000000E+00   0.127773E+03   0.738726E-17
   LPB:    2  -0.227319554667792E+00   0.988594113237085E-01   0.128343E-01   0.918536E-01   0.206837E+03  -0.886407E-16
   LPB:    3  -0.227109673503979E+00   0.441346143308293E-01   0.185731E-01   0.173729E+00   0.134094E+03  -0.402865E-15
   LPB:    4  -0.227010222082264E+00   0.462483497712703E-01   0.255736E-01   0.344136E+00   0.362363E+03  -0.317047E-15
  Finished solving LPB equations
  A_corr:   -0.135317863651421     
 End minimization
 Ecorr=   1774.58815234629     
 A_corr= -0.135317863651421     
 Ecorr_band=  -1774.72347020994     
 End Solvation calculations
RMM:  22    -0.178499211222E+03    0.12316E-02   -0.11675E-03  3709   0.589E-02    0.283E-01
 Begin Solvation calculations
  rms_SCF =   0.302465173734823      tol =   3.024651737348234E-002
 Begin minimization
 Creating dielectric and ionic cavities
  area:      174.800792751416     
  volume:    817.941902773842     
  Acav:     9.177041619449318E-002
  Solving linear dielectric/ionic screening model
        iter                  A_solv                     rms
   LPB:       -0.231799989881814E+00   0.626471707711086E+00
   LPB:    0  -0.231447611164609E+00   0.591450800810005E+00   0.431051E-02   0.000000E+00   0.379299E+02   0.163497E+00
   LPB:    1  -0.227090922150044E+00   0.132417274506702E+00   0.132839E-01   0.000000E+00   0.140065E+03   0.136191E-16
   LPB:    2  -0.226700368418439E+00   0.786393349487403E-01   0.141134E-01   0.843764E-01   0.182588E+03   0.311595E-17
   LPB:    3  -0.226552466214959E+00   0.481779867567399E-01   0.209702E-01   0.254872E+00   0.114830E+03   0.321503E-15
   LPB:    4  -0.226447417734698E+00   0.474614934846669E-01   0.286684E-01   0.519533E+00   0.303878E+03   0.492791E-15
   LPB:    5  -0.226373007370576E+00   0.362541361902412E-01   0.266517E-01   0.761944E+00   0.687673E+02   0.577953E-15
   LPB:    6  -0.226308280142192E+00   0.148156519358322E-01   0.327471E-01   0.707954E+00   0.269548E+03   0.727415E-15
  Finished solving LPB equations
  A_corr:   -0.134537863947699     
 End minimization
 Ecorr=   1774.90623130708     
 A_corr= -0.134537863947699     
 Ecorr_band=  -1775.04076917103     
 End Solvation calculations
RMM:  23    -0.178499492047E+03   -0.28083E-03   -0.86019E-04  3707   0.562E-02    0.357E-01
 Begin Solvation calculations
  rms_SCF =   0.302465173734823      tol =   3.024651737348234E-002
 Begin minimization
 Creating dielectric and ionic cavities
  area:      175.038685841236     
  volume:    816.882348153357     
  Acav:     9.189531006664878E-002
  Solving linear dielectric/ionic screening model
        iter                  A_solv                     rms
   LPB:       -0.242325129699217E+00   0.119837388092179E+01
   LPB:    0  -0.241635216464451E+00   0.118207432279046E+01   0.602750E-02   0.000000E+00   0.379796E+02   0.228922E+00
   LPB:    1  -0.227764101512913E+00   0.266740328774572E+00   0.128492E-01   0.000000E+00   0.120206E+03  -0.363210E-17
   LPB:    2  -0.226401226004741E+00   0.121882241326223E+00   0.129573E-01   0.974326E-01   0.220609E+03  -0.234895E-15
   LPB:    3  -0.226106040452499E+00   0.465124017483657E-01   0.169885E-01   0.165197E+00   0.147287E+03  -0.576205E-15
   LPB:    4  -0.226002475701041E+00   0.478702192337721E-01   0.231139E-01   0.257868E+00   0.385457E+03  -0.675795E-15
   LPB:    5  -0.225940537213777E+00   0.286958178916027E-01   0.262267E-01   0.527082E+00   0.663342E+02  -0.705577E-15
  Finished solving LPB equations
  A_corr:   -0.134045227147128     
 End minimization
 Ecorr=   1774.54344697712     
 A_corr= -0.134045227147128     
 Ecorr_band=  -1774.67749220426     
 End Solvation calculations
RMM:  24    -0.178498872687E+03    0.61936E-03   -0.88868E-04  3706   0.469E-02    0.216E-01
 Begin Solvation calculations
  rms_SCF =   0.282369267714730      tol =   2.823692677147296E-002
 Begin minimization
 Creating dielectric and ionic cavities
  area:      175.123778916556     
  volume:    816.600515815315     
  Acav:     9.193998393119197E-002
  Solving linear dielectric/ionic screening model
        iter                  A_solv                     rms
   LPB:       -0.228872743159166E+00   0.497179275050003E+00
   LPB:    0  -0.228717065938717E+00   0.486892594045579E+00   0.286271E-02   0.000000E+00   0.379928E+02   0.108762E+00
   LPB:    1  -0.226176758459439E+00   0.105183571341417E+00   0.131172E-01   0.000000E+00   0.124501E+03  -0.114246E-17
   LPB:    2  -0.225953313272544E+00   0.538129750535969E-01   0.132901E-01   0.868160E-01   0.198728E+03   0.832040E-18
   LPB:    3  -0.225886369305279E+00   0.315066815079890E-01   0.201835E-01   0.197275E+00   0.115056E+03  -0.752493E-16
   LPB:    4  -0.225828285483491E+00   0.398719227667876E-01   0.328096E-01   0.533751E+00   0.244772E+03   0.242862E-17
   LPB:    5  -0.225778050455405E+00   0.284315044393844E-01   0.281672E-01   0.100742E+01   0.531809E+02  -0.280380E-16
   LPB:    6  -0.225737707491750E+00   0.104289510834294E-01   0.317064E-01   0.713439E+00   0.255408E+03  -0.828986E-16
  Finished solving LPB equations
  A_corr:   -0.133797723560558     
 End minimization
 Ecorr=   1774.70901726558     
 A_corr= -0.133797723560558     
 Ecorr_band=  -1774.84281498914     
 End Solvation calculations
RMM:  25    -0.178499316966E+03   -0.44428E-03   -0.35634E-04  3692   0.363E-02    0.264E-01
 Begin Solvation calculations
  rms_SCF =   0.282369267714730      tol =   2.823692677147296E-002
 Begin minimization
 Creating dielectric and ionic cavities
  area:      175.213935484923     
  volume:    816.361222400534     
  Acav:     9.198731612958447E-002
  Solving linear dielectric/ionic screening model
        iter                  A_solv                     rms
   LPB:       -0.231700235544203E+00   0.823000487256949E+00
   LPB:    0  -0.231600367452136E+00   0.817571740987452E+00   0.229252E-02   0.000000E+00   0.380040E+02   0.871250E-01
   LPB:    1  -0.226336086362462E+00   0.168669799141010E+00   0.124704E-01   0.000000E+00   0.101101E+03  -0.511323E-17
   LPB:    2  -0.225825572389408E+00   0.683276496038167E-01   0.122672E-01   0.985833E-01   0.266418E+03  -0.140751E-15
   LPB:    3  -0.225726762544415E+00   0.194048873556434E-01   0.169964E-01   0.139695E+00   0.155369E+03  -0.432850E-15
   LPB:    4  -0.225695540840005E+00   0.248484198403836E-01   0.251961E-01   0.213148E+00   0.393196E+03  -0.287098E-15
  Finished solving LPB equations
  A_corr:   -0.133708224710420     
 End minimization
 Ecorr=   1774.56445509352     
 A_corr= -0.133708224710420     
 Ecorr_band=  -1774.69816331823     
 End Solvation calculations
RMM:  26    -0.178499471842E+03   -0.15488E-03   -0.31786E-04  3688   0.293E-02    0.152E-01
 Begin Solvation calculations
  rms_SCF =   0.207793393729273      tol =   2.077933937292728E-002
 Begin minimization
 Creating dielectric and ionic cavities
  area:      175.316807490455     
  volume:    816.208600094604     
  Acav:     9.204132393248889E-002
  Solving linear dielectric/ionic screening model
        iter                  A_solv                     rms
   LPB:       -0.236036034532250E+00   0.107760816206203E+01
   LPB:    0  -0.235894475464136E+00   0.106782309944332E+01   0.272916E-02   0.000000E+00   0.380111E+02   0.103738E+00
   LPB:    1  -0.226967561922187E+00   0.214568869053186E+00   0.125510E-01   0.000000E+00   0.989490E+02  -0.661065E-17
   LPB:    2  -0.226150509072179E+00   0.924753664070393E-01   0.122198E-01   0.940074E-01   0.263549E+03   0.150178E-15
   LPB:    3  -0.225954110479853E+00   0.297189424207654E-01   0.187407E-01   0.156735E+00   0.137676E+03   0.148980E-15
   LPB:    4  -0.225869483962749E+00   0.368612162509637E-01   0.277469E-01   0.291031E+00   0.375398E+03   0.565653E-16
   LPB:    5  -0.225823224890889E+00   0.285851910617758E-01   0.263024E-01   0.576648E+00   0.655268E+02   0.300723E-16
   LPB:    6  -0.225786483533690E+00   0.142901294085200E-01   0.303391E-01   0.688573E+00   0.224372E+03  -0.729396E-16
  Finished solving LPB equations
  A_corr:   -0.133745159601201     
 End minimization
 Ecorr=   1775.27614549756     
 A_corr= -0.133745159601201     
 Ecorr_band=  -1775.40989065716     
 End Solvation calculations
RMM:  27    -0.178500397153E+03   -0.92531E-03   -0.35028E-04  3692   0.323E-02    0.123E-01
 Begin Solvation calculations
  rms_SCF =   0.195103026838935      tol =   1.951030268389354E-002
 Begin minimization
 Creating dielectric and ionic cavities
  area:      175.392939350818     
  volume:    816.132331240108     
  Acav:     9.208129315917936E-002
  Solving linear dielectric/ionic screening model
        iter                  A_solv                     rms
   LPB:       -0.232419006086722E+00   0.859893397033714E+00
   LPB:    0  -0.232332537075038E+00   0.852676338918791E+00   0.213289E-02   0.000000E+00   0.380147E+02   0.810814E-01
   LPB:    1  -0.226922586828352E+00   0.169561031265042E+00   0.124457E-01   0.000000E+00   0.957299E+02  -0.430971E-17
   LPB:    2  -0.226412435964141E+00   0.687273473966054E-01   0.121088E-01   0.969227E-01   0.280861E+03   0.449119E-16
   LPB:    3  -0.226309934214166E+00   0.180120569517946E-01   0.174390E-01   0.139512E+00   0.149949E+03   0.314155E-15
   LPB:    4  -0.226270832160794E+00   0.260744649872920E-01   0.290318E-01   0.229148E+00   0.359300E+03   0.453313E-15
   LPB:    5  -0.226241771671810E+00   0.255290010168213E-01   0.314669E-01   0.685683E+00   0.565569E+02   0.488146E-15
   LPB:    6  -0.226212959131521E+00   0.129525092993125E-01   0.321504E-01   0.970388E+00   0.150112E+03   0.227746E-15
  Finished solving LPB equations
  A_corr:   -0.134131665972342     
 End minimization
 Ecorr=   1775.69542136692     
 A_corr= -0.134131665972342     
 Ecorr_band=  -1775.82955303289     
 End Solvation calculations
RMM:  28    -0.178501030328E+03   -0.63317E-03   -0.25472E-04  3665   0.229E-02    0.108E-01
 Begin Solvation calculations
  rms_SCF =   0.167581016862738      tol =   1.675810168627381E-002
 Begin minimization
 Creating dielectric and ionic cavities
  area:      175.433503253715     
  volume:    816.157568307696     
  Acav:     9.210258920820018E-002
  Solving linear dielectric/ionic screening model
        iter                  A_solv                     rms
   LPB:       -0.229442855757480E+00   0.606570977495365E+00
   LPB:    0  -0.229426928255132E+00   0.604272748110658E+00   0.915419E-03   0.000000E+00   0.380135E+02   0.347983E-01
   LPB:    1  -0.226967114128085E+00   0.115629777761358E+00   0.122054E-01   0.000000E+00   0.901666E+02  -0.151219E-17
   LPB:    2  -0.226735007804444E+00   0.429496265126256E-01   0.118815E-01   0.969311E-01   0.299899E+03   0.263897E-16
   LPB:    3  -0.226693491772376E+00   0.953566842066123E-02   0.172453E-01   0.123234E+00   0.154714E+03  -0.508673E-16
   LPB:    4  -0.226677771258787E+00   0.149858210561749E-01   0.318415E-01   0.205083E+00   0.324139E+03  -0.861239E-17
  Finished solving LPB equations
  A_corr:   -0.134575182050587     
 End minimization
 Ecorr=   1775.77006664143     
 A_corr= -0.134575182050587     
 Ecorr_band=  -1775.90464182348     
 End Solvation calculations
RMM:  29    -0.178501320833E+03   -0.29050E-03   -0.17484E-04  3564   0.175E-02    0.568E-02
 Begin Solvation calculations
  rms_SCF =   9.186467315041857E-002 tol =   9.186467315041857E-003
 Begin minimization
 Creating dielectric and ionic cavities
  area:      175.443643748150     
  volume:    816.288522489684     
  Acav:     9.210791296777883E-002
  Solving linear dielectric/ionic screening model
        iter                  A_solv                     rms
   LPB:       -0.227908178750950E+00   0.363052655300436E+00
   LPB:    0  -0.227907819238238E+00   0.363292198794184E+00  -0.137543E-03   0.000000E+00   0.380074E+02  -0.522765E-02
   LPB:    1  -0.227140494906084E+00   0.640530908950360E-01   0.118099E-01   0.000000E+00   0.831143E+02   0.180374E-19
   LPB:    2  -0.227073449808392E+00   0.230741139941818E-01   0.115800E-01   0.891099E-01   0.301758E+03  -0.786665E-16
   LPB:    3  -0.227057304103211E+00   0.808775680648732E-02   0.223358E-01   0.124852E+00   0.110166E+03  -0.936639E-16
   LPB:    4  -0.227040453202925E+00   0.536928384167540E-02   0.503082E-01   0.463370E+00   0.129738E+03  -0.803779E-16
  Finished solving LPB equations
  A_corr:   -0.134932540235146     
 End minimization
 Ecorr=   1775.99080101069     
 A_corr= -0.134932540235146     
 Ecorr_band=  -1776.12573355092     
 End Solvation calculations
RMM:  30    -0.178501720404E+03   -0.39957E-03   -0.81398E-05  3145   0.140E-02    0.132E-01
 Begin Solvation calculations
  rms_SCF =   9.186467315041857E-002 tol =   9.186467315041857E-003
 Begin minimization
 Creating dielectric and ionic cavities
  area:      175.455623585155     
  volume:    816.386034117293     
  Acav:     9.211420238220620E-002
  Solving linear dielectric/ionic screening model
        iter                  A_solv                     rms
   LPB:       -0.228256940935108E+00   0.368610196082323E+00
   LPB:    0  -0.228256939066312E+00   0.368614601860655E+00  -0.991718E-05   0.000000E+00   0.380028E+02  -0.376881E-03
   LPB:    1  -0.227514858013531E+00   0.644648980973478E-01   0.115707E-01   0.000000E+00   0.815213E+02  -0.206026E-19
   LPB:    2  -0.227445872645788E+00   0.194292041564044E-01   0.114973E-01   0.935556E-01   0.310533E+03  -0.425572E-16
   LPB:    3  -0.227433706117411E+00   0.557314886947797E-02   0.209156E-01   0.969475E-01   0.133593E+03  -0.601250E-16
   LPB:    4  -0.227422274281100E+00   0.737793036900931E-02   0.509730E-01   0.385548E+00   0.134850E+03  -0.625143E-16
  Finished solving LPB equations
  A_corr:   -0.135308071898894     
 End minimization
 Ecorr=   1776.08162156035     
 A_corr= -0.135308071898894     
 Ecorr_band=  -1776.21692963225     
 End Solvation calculations
RMM:  31    -0.178501856945E+03   -0.13654E-03   -0.50958E-05  2720   0.105E-02    0.120E-01
 Begin Solvation calculations
  rms_SCF =   9.186467315041857E-002 tol =   9.186467315041857E-003
 Begin minimization
 Creating dielectric and ionic cavities
  area:      175.463455182196     
  volume:    816.429244357411     
  Acav:     9.211831397065316E-002
  Solving linear dielectric/ionic screening model
        iter                  A_solv                     rms
   LPB:       -0.228011189298627E+00   0.244719968333195E+00
   LPB:    0  -0.228011182691746E+00   0.244701030496210E+00   0.186473E-04   0.000000E+00   0.380008E+02   0.708614E-03
   LPB:    1  -0.227711114702171E+00   0.419139636898304E-01   0.112798E-01   0.000000E+00   0.786764E+02  -0.235189E-20
   LPB:    2  -0.227679957803183E+00   0.118909507837306E-01   0.118355E-01   0.989576E-01   0.297784E+03   0.517072E-17
   LPB:    3  -0.227673269928842E+00   0.499775101133593E-02   0.251083E-01   0.101182E+00   0.126362E+03   0.100621E-16
   LPB:    4  -0.227663492681312E+00   0.567973918686194E-02   0.598048E-01   0.613776E+00   0.971648E+02   0.250085E-16
  Finished solving LPB equations
  A_corr:   -0.135545178710659     
 End minimization
 Ecorr=   1776.17900812134     
 A_corr= -0.135545178710659     
 Ecorr_band=  -1776.31455330005     
 End Solvation calculations
RMM:  32    -0.178501832654E+03    0.24291E-04   -0.27549E-05  2413   0.698E-03    0.947E-02
 Begin Solvation calculations
  rms_SCF =   9.186467315041857E-002 tol =   9.186467315041857E-003
 Begin minimization
 Creating dielectric and ionic cavities
  area:      175.472888023040     
  volume:    816.512216941901     
  Acav:     9.212326621209599E-002
  Solving linear dielectric/ionic screening model
        iter                  A_solv                     rms
   LPB:       -0.229035007449682E+00   0.410691986589960E+00
   LPB:    0  -0.229034179106420E+00   0.410552996044549E+00  -0.208807E-03   0.000000E+00   0.379969E+02  -0.793404E-02
   LPB:    1  -0.228241790301232E+00   0.662434266717770E-01   0.109692E-01   0.000000E+00   0.781317E+02   0.105169E-18
   LPB:    2  -0.228159790828048E+00   0.173810161949536E-01   0.118764E-01   0.955793E-01   0.297242E+03   0.122803E-16
   LPB:    3  -0.228149163231573E+00   0.419390366761517E-02   0.195203E-01   0.788536E-01   0.149302E+03   0.922754E-17
   LPB:    4  -0.228143238743906E+00   0.359996539870262E-02   0.410578E-01   0.265037E+00   0.180206E+03   0.274931E-16
  Finished solving LPB equations
  A_corr:   -0.136019972531810     
 End minimization
 Ecorr=   1776.21723352296     
 A_corr= -0.136019972531810     
 Ecorr_band=  -1776.35325349549     
 End Solvation calculations
RMM:  33    -0.178501864963E+03   -0.32309E-04   -0.77851E-05  2801   0.903E-03    0.107E-01
 Begin Solvation calculations
  rms_SCF =   9.186467315041857E-002 tol =   9.186467315041857E-003
 Begin minimization
 Creating dielectric and ionic cavities
  area:      175.473447210283     
  volume:    816.512629147144     
  Acav:     9.212355978539856E-002
  Solving linear dielectric/ionic screening model
        iter                  A_solv                     rms
   LPB:       -0.228164851831492E+00   0.190547340647947E-01
   LPB:    0  -0.228164851007599E+00   0.190282973329740E-01   0.658531E-05   0.000000E+00   0.379969E+02   0.250221E-03
   LPB:    1  -0.228161103493074E+00   0.870343277496988E-02   0.144481E-01   0.000000E+00   0.986470E+02   0.120262E-19
   LPB:    2  -0.228158965607978E+00   0.635667684452931E-02   0.253115E-01   0.325636E+00   0.278256E+03  -0.512635E-17
   LPB:    3  -0.228149966293661E+00   0.491635464929674E-02   0.807198E-01   0.131997E+01   0.971770E+02  -0.549295E-17
   LPB:    4  -0.228144295268461E+00   0.400673169504738E-02   0.328468E-01   0.154860E+01   0.725815E+02   0.802250E-17
  Finished solving LPB equations
  A_corr:   -0.136020735483063     
 End minimization
 Ecorr=   1776.37927097263     
 A_corr= -0.136020735483063     
 Ecorr_band=  -1776.51529170811     
 End Solvation calculations
RMM:  34    -0.178502357634E+03   -0.49267E-03   -0.50287E-05  2817   0.940E-03    0.236E-01
 Begin Solvation calculations
  rms_SCF =   9.186467315041857E-002 tol =   9.186467315041857E-003
 Begin minimization
 Creating dielectric and ionic cavities
  area:      175.470427721529     
  volume:    816.553840505073     
  Acav:     9.212197455380289E-002
  Solving linear dielectric/ionic screening model
        iter                  A_solv                     rms
   LPB:       -0.228187612746549E+00   0.259528569590143E-01
   LPB:    0  -0.228186665003182E+00   0.237556297543835E-01  -0.223356E-03   0.000000E+00   0.379950E+02  -0.848640E-02
   LPB:    1  -0.228175396324579E+00   0.787901959234470E-02   0.121915E-01   0.000000E+00   0.266227E+03   0.177333E-18
   LPB:    2  -0.228174099225175E+00   0.531255563031114E-02   0.190366E-01   0.737173E-01   0.918386E+02   0.777663E-17
   LPB:    3  -0.228172937729884E+00   0.532622812375432E-02   0.275757E-01   0.618168E+00   0.275673E+03  -0.372116E-16
   LPB:    4  -0.228172097146955E+00   0.441979498335947E-02   0.274707E-01   0.726475E+00   0.148302E+03  -0.136316E-15
  Finished solving LPB equations
  A_corr:   -0.136050122593152     
 End minimization
 Ecorr=   1776.36290859630     
 A_corr= -0.136050122593152     
 Ecorr_band=  -1776.49895871890     
 End Solvation calculations
RMM:  35    -0.178502757054E+03   -0.39942E-03   -0.16914E-05  2155   0.653E-03    0.292E-01
 Begin Solvation calculations
  rms_SCF =   9.186467315041857E-002 tol =   9.186467315041857E-003
 Begin minimization
 Creating dielectric and ionic cavities
  area:      175.469510621627     
  volume:    816.595041338906     
  Acav:     9.212149307635417E-002
  Solving linear dielectric/ionic screening model
        iter                  A_solv                     rms
   LPB:       -0.228299202866297E+00   0.588943404311802E-01
   LPB:    0  -0.228297744019276E+00   0.568028642020120E-01  -0.277120E-03   0.000000E+00   0.379930E+02  -0.105286E-01
   LPB:    1  -0.228272395918228E+00   0.114390831437623E-01   0.109473E-01   0.000000E+00   0.130166E+03   0.688939E-19
   LPB:    2  -0.228270929119622E+00   0.293374723945000E-02   0.109959E-01   0.576108E-01   0.196597E+03   0.139208E-16
   LPB:    3  -0.228270551318073E+00   0.220745486457161E-02   0.255784E-01   0.110726E+00   0.886598E+02   0.298357E-16
   LPB:    4  -0.228270066095418E+00   0.313590892249991E-02   0.499559E-01   0.657605E+00   0.451422E+03   0.258254E-16
  Finished solving LPB equations
  A_corr:   -0.136148573019064     
 End minimization
 Ecorr=   1776.33392329277     
 A_corr= -0.136148573019064     
 Ecorr_band=  -1776.47007186579     
 End Solvation calculations
RMM:  36    -0.178502241612E+03    0.51544E-03   -0.27772E-05  2422   0.718E-03    0.189E-01
 Begin Solvation calculations
  rms_SCF =   9.186467315041857E-002 tol =   9.186467315041857E-003
 Begin minimization
 Creating dielectric and ionic cavities
  area:      175.465857865321     
  volume:    816.620223604695     
  Acav:     9.211957537929349E-002
  Solving linear dielectric/ionic screening model
        iter                  A_solv                     rms
   LPB:       -0.228402204240246E+00   0.402031207361487E-01
   LPB:    0  -0.228398731021708E+00   0.294802115613416E-01  -0.427598E-03   0.000000E+00   0.379918E+02  -0.162452E-01
   LPB:    1  -0.228376934892035E+00   0.134558609488783E-01   0.116956E-01   0.000000E+00   0.323467E+03   0.300842E-18
   LPB:    2  -0.228375638102575E+00   0.328070517992864E-02   0.126784E-01   0.548844E-01   0.788073E+02  -0.295865E-16
   LPB:    3  -0.228375094381495E+00   0.202303240493949E-02   0.228912E-01   0.232221E+00   0.173924E+03  -0.267043E-16
   LPB:    4  -0.228374753591514E+00   0.309208585867674E-02   0.304500E-01   0.471185E+00   0.361606E+03  -0.285236E-16
  Finished solving LPB equations
  A_corr:   -0.136255178212221     
 End minimization
 Ecorr=   1776.30171245795     
 A_corr= -0.136255178212221     
 Ecorr_band=  -1776.43796763616     
 End Solvation calculations
RMM:  37    -0.178502258735E+03   -0.17123E-04   -0.14474E-05  2182   0.531E-03    0.168E-01
 Begin Solvation calculations
  rms_SCF =   9.186467315041857E-002 tol =   9.186467315041857E-003
 Begin minimization
 Creating dielectric and ionic cavities
  area:      175.465313107452     
  volume:    816.640344831627     
  Acav:     9.211928938141208E-002
  Solving linear dielectric/ionic screening model
        iter                  A_solv                     rms
   LPB:       -0.228551759296793E+00   0.633769904082132E-01
   LPB:    0  -0.228548907795010E+00   0.576365706744121E-01  -0.387447E-03   0.000000E+00   0.379909E+02  -0.147195E-01
   LPB:    1  -0.228522118171693E+00   0.132437041205325E-01   0.105428E-01   0.000000E+00   0.139783E+03  -0.385562E-18
   LPB:    2  -0.228520397924440E+00   0.309981726263930E-02   0.113568E-01   0.596111E-01   0.142766E+03  -0.368350E-16
   LPB:    3  -0.228519944256136E+00   0.206317833062997E-02   0.257817E-01   0.116169E+00   0.709807E+02  -0.706891E-16
   LPB:    4  -0.228519603760090E+00   0.259065083108878E-02   0.366430E-01   0.528074E+00   0.332798E+03  -0.833875E-16
  Finished solving LPB equations
  A_corr:   -0.136400314378678     
 End minimization
 Ecorr=   1776.22473885745     
 A_corr= -0.136400314378678     
 Ecorr_band=  -1776.36113917183     
 End Solvation calculations
RMM:  38    -0.178502577356E+03   -0.31862E-03   -0.12603E-05  2170   0.471E-03    0.222E-01
 Begin Solvation calculations
  rms_SCF =   9.186467315041857E-002 tol =   9.186467315041857E-003
 Begin minimization
 Creating dielectric and ionic cavities
  area:      175.468508853862     
  volume:    816.638081638710     
  Acav:     9.212096714827780E-002
  Solving linear dielectric/ionic screening model
        iter                  A_solv                     rms
   LPB:       -0.228721142332758E+00   0.467354492170891E-01
   LPB:    0  -0.228716916610291E+00   0.315694972067185E-01  -0.471656E-03   0.000000E+00   0.379910E+02  -0.179187E-01
   LPB:    1  -0.228679409192994E+00   0.167888294475027E-01   0.122118E-01   0.000000E+00   0.382864E+03   0.992307E-18
   LPB:    2  -0.228677243593978E+00   0.522550846943082E-02   0.139842E-01   0.504201E-01   0.652400E+02  -0.177465E-15
   LPB:    3  -0.228676393148510E+00   0.220963009561888E-02   0.196627E-01   0.279294E+00   0.271618E+03  -0.259257E-15
   LPB:    4  -0.228675942395702E+00   0.344077752621816E-02   0.275284E-01   0.378576E+00   0.329939E+03  -0.297994E-15
  Finished solving LPB equations
  A_corr:   -0.136554975247424     
 End minimization
 Ecorr=   1776.12274498404     
 A_corr= -0.136554975247424     
 Ecorr_band=  -1776.25929995929     
 End Solvation calculations
RMM:  39    -0.178502810325E+03   -0.23297E-03   -0.21508E-05  2341   0.453E-03    0.248E-01
 Begin Solvation calculations
  rms_SCF =   9.186467315041857E-002 tol =   9.186467315041857E-003
 Begin minimization
 Creating dielectric and ionic cavities
  area:      175.468812575751     
  volume:    816.635673358595     
  Acav:     9.212112660226932E-002
  Solving linear dielectric/ionic screening model
        iter                  A_solv                     rms
   LPB:       -0.228679361602155E+00   0.247341914387979E-01
   LPB:    0  -0.228679235626376E+00   0.235419977840345E-01  -0.814362E-04   0.000000E+00   0.379911E+02  -0.309385E-02
   LPB:    1  -0.228675385476837E+00   0.487651320718100E-02   0.124427E-01   0.000000E+00   0.851316E+02   0.222182E-18
   LPB:    2  -0.228674954849869E+00   0.204603896474862E-02   0.128338E-01   0.108439E+00   0.274026E+03  -0.141534E-16
   LPB:    3  -0.228674663119436E+00   0.203531467835964E-02   0.346618E-01   0.250832E+00   0.132819E+03  -0.229577E-16
   LPB:    4  -0.228674286555953E+00   0.839875943405390E-03   0.452748E-01   0.988213E+00   0.109090E+03  -0.250024E-16
  Finished solving LPB equations
  A_corr:   -0.136553159953684     
 End minimization
 Ecorr=   1776.04293101561     
 A_corr= -0.136553159953684     
 Ecorr_band=  -1776.17948417556     
 End Solvation calculations
RMM:  40    -0.178502902101E+03   -0.91776E-04   -0.47550E-06  1542   0.244E-03    0.263E-01
 Begin Solvation calculations
  rms_SCF =   9.186467315041857E-002 tol =   9.186467315041857E-003
 Begin minimization
 Creating dielectric and ionic cavities
  area:      175.468695487522     
  volume:    816.635814382540     
  Acav:     9.212106513094902E-002
  Solving linear dielectric/ionic screening model
        iter                  A_solv                     rms
   LPB:       -0.228672969093893E+00   0.252159576517595E-02
   LPB:    0  -0.228672967130446E+00   0.244502179885132E-02   0.101668E-04   0.000000E+00   0.379911E+02   0.386247E-03
   LPB:    1  -0.228672781712606E+00   0.130060286061254E-02   0.181726E-01   0.000000E+00   0.185424E+03  -0.287112E-19
   LPB:    2  -0.228672671384206E+00   0.158806878747789E-02   0.267897E-01   0.403633E+00   0.344475E+03  -0.242894E-17
   LPB:    3  -0.228672590019403E+00   0.181691147635305E-02   0.248575E-01   0.794802E+00   0.112532E+03  -0.499925E-17
   LPB:    4  -0.228672385308252E+00   0.107973152593576E-02   0.558116E-01   0.112057E+01   0.285551E+03  -0.475500E-17
  Finished solving LPB equations
  A_corr:   -0.136551320177303     
 End minimization
 Ecorr=   1776.01521831483     
 A_corr= -0.136551320177303     
 Ecorr_band=  -1776.15176963500     
 End Solvation calculations
RMM:  41    -0.178502928226E+03   -0.26124E-04   -0.13702E-06  1169   0.173E-03    0.267E-01
 Begin Solvation calculations
  rms_SCF =   9.186467315041857E-002 tol =   9.186467315041857E-003
 Begin minimization
 Creating dielectric and ionic cavities
  area:      175.470018573535     
  volume:    816.633133907823     
  Acav:     9.212175975110577E-002
  Solving linear dielectric/ionic screening model
        iter                  A_solv                     rms
   LPB:       -0.228653842238416E+00   0.231471612742249E-01
   LPB:    0  -0.228653837594042E+00   0.231441612206687E-01   0.156364E-04   0.000000E+00   0.379912E+02   0.594046E-03
   LPB:    1  -0.228651723798119E+00   0.335930010808914E-02   0.102709E-01   0.000000E+00   0.747973E+02   0.593419E-19
   LPB:    2  -0.228651385656917E+00   0.832562091843995E-03   0.150110E-01   0.109455E+00   0.227919E+03   0.475352E-18
   LPB:    3  -0.228651258187746E+00   0.669247804211477E-03   0.303438E-01   0.186487E+00   0.248788E+03   0.219758E-18
   LPB:    4  -0.228651195678706E+00   0.257282119424975E-03   0.315883E-01   0.471066E+00   0.531091E+03   0.757153E-17
  Finished solving LPB equations
  A_corr:   -0.136529435927601     
 End minimization
 Ecorr=   1776.00275284427     
 A_corr= -0.136529435927601     
 Ecorr_band=  -1776.13928228020     
 End Solvation calculations
RMM:  42    -0.178503013954E+03   -0.85728E-04   -0.17090E-06  1525   0.192E-03    0.281E-01
 Begin Solvation calculations
  rms_SCF =   9.186467315041857E-002 tol =   9.186467315041857E-003
 Begin minimization
 Creating dielectric and ionic cavities
  area:      175.471129325654     
  volume:    816.630404719480     
  Acav:     9.212234289596856E-002
  Solving linear dielectric/ionic screening model
        iter                  A_solv                     rms
   LPB:       -0.228634071109857E+00   0.194843303024625E-01
   LPB:    0  -0.228634061649512E+00   0.194881567261143E-01   0.223165E-04   0.000000E+00   0.379914E+02   0.847834E-03
   LPB:    1  -0.228632625091441E+00   0.258985517066147E-02   0.100316E-01   0.000000E+00   0.751267E+02  -0.296202E-19
   LPB:    2  -0.228632435834149E+00   0.540990723070167E-03   0.138607E-01   0.953483E-01   0.248751E+03  -0.570760E-17
   LPB:    3  -0.228632393192708E+00   0.567603129372576E-03   0.307766E-01   0.101471E+00   0.185694E+03  -0.527590E-17
   LPB:    4  -0.228632316477816E+00   0.892932678708436E-03   0.664301E-01   0.833497E+00   0.248883E+03  -0.769007E-17
  Finished solving LPB equations
  A_corr:   -0.136509973581847     
 End minimization
 Ecorr=   1775.98963014292     
 A_corr= -0.136509973581847     
 Ecorr_band=  -1776.12614011650     
 End Solvation calculations
RMM:  43    -0.178503084117E+03   -0.70164E-04   -0.10376E-06  1161   0.171E-03    0.292E-01
 Begin Solvation calculations
  rms_SCF =   9.186467315041857E-002 tol =   9.186467315041857E-003
 Begin minimization
 Creating dielectric and ionic cavities
  area:      175.472095875761     
  volume:    816.628336043542     
  Acav:     9.212285033477464E-002
  Solving linear dielectric/ionic screening model
        iter                  A_solv                     rms
   LPB:       -0.228624692419011E+00   0.139356270432853E-01
   LPB:    0  -0.228624692305727E+00   0.139379907548686E-01   0.244206E-05   0.000000E+00   0.379915E+02   0.927774E-04
   LPB:    1  -0.228623910196159E+00   0.189317459404285E-02   0.101510E-01   0.000000E+00   0.780874E+02   0.783511E-20
   LPB:    2  -0.228623810139545E+00   0.303094819967282E-03   0.133924E-01   0.969683E-01   0.302202E+03   0.116006E-17
   LPB:    3  -0.228623781483866E+00   0.439873161112416E-03   0.403800E-01   0.949856E-01   0.261341E+03   0.109787E-17
   LPB:    4  -0.228623682292263E+00   0.684763964864415E-03   0.100684E+00   0.138825E+01   0.254076E+03   0.328241E-17
  Finished solving LPB equations
  A_corr:   -0.136500831957488     
 End minimization
 Ecorr=   1775.97695408496     
 A_corr= -0.136500831957488     
 Ecorr_band=  -1776.11345491692     
 End Solvation calculations
RMM:  44    -0.178502973507E+03    0.11061E-03   -0.72739E-07   909   0.152E-03    0.275E-01
 Begin Solvation calculations
  rms_SCF =   9.186467315041857E-002 tol =   9.186467315041857E-003
 Begin minimization
 Creating dielectric and ionic cavities
  area:      175.477234395024     
  volume:    816.619355522779     
  Acav:     9.212554805738743E-002
  Solving linear dielectric/ionic screening model
        iter                  A_solv                     rms
   LPB:       -0.228681432467180E+00   0.177627396837768E-01
   LPB:    0  -0.228681307223300E+00   0.154142656202382E-01  -0.811985E-04   0.000000E+00   0.379919E+02  -0.308488E-02
   LPB:    1  -0.228678748585497E+00   0.330924723450583E-02   0.117602E-01   0.000000E+00   0.131117E+03   0.206662E-18
   LPB:    2  -0.228678584848221E+00   0.139282270797101E-02   0.113748E-01   0.661621E-01   0.299484E+03   0.889478E-16
   LPB:    3  -0.228678538567306E+00   0.601966767702043E-03   0.226105E-01   0.142196E+00   0.124867E+03   0.940422E-16
   LPB:    4  -0.228678503895522E+00   0.614472110416015E-03   0.370384E-01   0.457334E+00   0.243319E+03   0.949916E-16
  Finished solving LPB equations
  A_corr:   -0.136552955838134     
 End minimization
 Ecorr=   1775.93349790851     
 A_corr= -0.136552955838134     
 Ecorr_band=  -1776.07005086435     
 End Solvation calculations
RMM:  45    -0.178503195191E+03   -0.22168E-03   -0.21944E-06  1628   0.212E-03    0.308E-01
 Begin Solvation calculations
  rms_SCF =   9.186467315041857E-002 tol =   9.186467315041857E-003
 Begin minimization
 Creating dielectric and ionic cavities
  area:      175.478052748991     
  volume:    816.615996312116     
  Acav:     9.212597769322048E-002
  Solving linear dielectric/ionic screening model
        iter                  A_solv                     rms
   LPB:       -0.228682826588462E+00   0.158395876512442E-01
   LPB:    0  -0.228682815945237E+00   0.156301941448490E-01  -0.236704E-04   0.000000E+00   0.379920E+02  -0.899286E-03
   LPB:    1  -0.228681764816319E+00   0.229575234713102E-02   0.104834E-01   0.000000E+00   0.771948E+02   0.421981E-20
   LPB:    2  -0.228681637452568E+00   0.636682147913792E-03   0.129267E-01   0.982661E-01   0.302335E+03  -0.544517E-17
   LPB:    3  -0.228681603520746E+00   0.562103729465280E-03   0.308606E-01   0.111595E+00   0.127243E+03  -0.541161E-17
   LPB:    4  -0.228681565445483E+00   0.759548239985998E-03   0.488037E-01   0.709557E+00   0.149984E+03  -0.183902E-17
  Finished solving LPB equations
  A_corr:   -0.136555587752262     
 End minimization
 Ecorr=   1775.92109526713     
 A_corr= -0.136555587752262     
 Ecorr_band=  -1776.05765085488     
 End Solvation calculations
RMM:  46    -0.178503168849E+03    0.26342E-04   -0.25955E-07   655   0.142E-03    0.303E-01
 Begin Solvation calculations
  rms_SCF =   9.186467315041857E-002 tol =   9.186467315041857E-003
 Begin minimization
 Creating dielectric and ionic cavities
  area:      175.479061725289     
  volume:    816.607429305902     
  Acav:     9.212650740577678E-002
  Solving linear dielectric/ionic screening model
        iter                  A_solv                     rms
   LPB:       -0.228674629534711E+00   0.502402718752801E-01
   LPB:    0  -0.228674602794192E+00   0.500314056416044E-01  -0.375190E-04   0.000000E+00   0.379924E+02  -0.142544E-02
   LPB:    1  -0.228664551128401E+00   0.709321251989677E-02   0.103649E-01   0.000000E+00   0.742866E+02   0.912901E-19
   LPB:    2  -0.228663330684865E+00   0.178288553374625E-02   0.129256E-01   0.973631E-01   0.273051E+03   0.620608E-17
   LPB:    3  -0.228663168927569E+00   0.781270268825513E-03   0.213732E-01   0.801541E-01   0.153279E+03   0.663829E-17
   LPB:    4  -0.228663110024422E+00   0.732447279167554E-03   0.298354E-01   0.260863E+00   0.210680E+03   0.270500E-16
  Finished solving LPB equations
  A_corr:   -0.136536602618646     
 End minimization
 Ecorr=   1775.90499527605     
 A_corr= -0.136536602618646     
 Ecorr_band=  -1776.04153187867     
 End Solvation calculations
RMM:  47    -0.178503295742E+03   -0.12689E-03   -0.20597E-06  1669   0.203E-03    0.321E-01
 Begin Solvation calculations
  rms_SCF =   9.186467315041857E-002 tol =   9.186467315041857E-003
 Begin minimization
 Creating dielectric and ionic cavities
  area:      175.479310368774     
  volume:    816.606227054630     
  Acav:     9.212663794360609E-002
  Solving linear dielectric/ionic screening model
        iter                  A_solv                     rms
   LPB:       -0.228655249229988E+00   0.124122256971075E-01
   LPB:    0  -0.228655249214101E+00   0.124115102882302E-01  -0.914497E-06   0.000000E+00   0.379925E+02  -0.347440E-04
   LPB:    1  -0.228654660390249E+00   0.171577864679397E-02   0.101202E-01   0.000000E+00   0.746328E+02  -0.131168E-20
   LPB:    2  -0.228654578706146E+00   0.418567925514022E-03   0.142329E-01   0.986392E-01   0.228340E+03   0.919598E-18
   LPB:    3  -0.228654538785861E+00   0.478208696267700E-03   0.440718E-01   0.157829E+00   0.124585E+03   0.566745E-18
   LPB:    4  -0.228654485114966E+00   0.345023186244032E-03   0.477032E-01   0.124211E+01   0.171104E+03   0.290985E-17
  Finished solving LPB equations
  A_corr:   -0.136527847171360     
 End minimization
 Ecorr=   1775.90401984519     
 A_corr= -0.136527847171360     
 Ecorr_band=  -1776.04054769236     
 End Solvation calculations
RMM:  48    -0.178503317439E+03   -0.21696E-04   -0.22608E-07   613   0.133E-03    0.324E-01
 Begin Solvation calculations
  rms_SCF =   9.186467315041857E-002 tol =   9.186467315041857E-003
 Begin minimization
 Creating dielectric and ionic cavities
  area:      175.479231002518     
  volume:    816.606362708466     
  Acav:     9.212659627632212E-002
  Solving linear dielectric/ionic screening model
        iter                  A_solv                     rms
   LPB:       -0.228655207865917E+00   0.221971921125416E-02
   LPB:    0  -0.228655207865556E+00   0.221890143988324E-02   0.137931E-06   0.000000E+00   0.379925E+02   0.524036E-05
   LPB:    1  -0.228655172565840E+00   0.763684759903492E-03   0.129426E-01   0.000000E+00   0.848337E+02  -0.436375E-21
   LPB:    2  -0.228655150416504E+00   0.437289461696387E-03   0.254721E-01   0.318821E+00   0.291432E+03  -0.145547E-17
   LPB:    3  -0.228655131416004E+00   0.509494333808497E-03   0.305524E-01   0.715193E+00   0.269304E+03  -0.131852E-17
   LPB:    4  -0.228655088191956E+00   0.818632431232723E-03   0.709301E-01   0.979884E+00   0.379455E+03  -0.113141E-17
  Finished solving LPB equations
  A_corr:   -0.136528491915634     
 End minimization
 Ecorr=   1775.90533837515     
 A_corr= -0.136528491915634     
 Ecorr_band=  -1776.04186686707     
 End Solvation calculations
RMM:  49    -0.178503304751E+03    0.12688E-04   -0.64947E-09   379   0.121E-03    0.322E-01
 Begin Solvation calculations
  rms_SCF =   9.186467315041857E-002 tol =   9.186467315041857E-003
 Begin minimization
 Creating dielectric and ionic cavities
  area:      175.479104197013     
  volume:    816.603092184975     
  Acav:     9.212652970343185E-002
  Solving linear dielectric/ionic screening model
        iter                  A_solv                     rms
   LPB:       -0.228741141125027E+00   0.640528665014383E-01
   LPB:    0  -0.228741064298653E+00   0.638857411434948E-01  -0.635946E-04   0.000000E+00   0.379926E+02  -0.241613E-02
   LPB:    1  -0.228726915883879E+00   0.772857626328318E-02   0.950212E-02   0.000000E+00   0.767313E+02  -0.866553E-19
   LPB:    2  -0.228725211562087E+00   0.144005727892247E-02   0.145507E-01   0.786647E-01   0.189564E+03  -0.150364E-16
   LPB:    3  -0.228725046173982E+00   0.469478317106532E-03   0.194500E-01   0.725968E-01   0.253614E+03  -0.171758E-16
   LPB:    4  -0.228725001123613E+00   0.348261097352783E-03   0.281894E-01   0.187944E+00   0.411728E+03  -0.211595E-16
  Finished solving LPB equations
  A_corr:   -0.136598471420181     
 End minimization
 Ecorr=   1775.89702619805     
 A_corr= -0.136598471420181     
 Ecorr_band=  -1776.03362466947     
 End Solvation calculations
RMM:  50    -0.178503048564E+03    0.25619E-03   -0.20158E-06  1687   0.217E-03    0.283E-01
 Begin Solvation calculations
  rms_SCF =   9.186467315041857E-002 tol =   9.186467315041857E-003
 Begin minimization
 Creating dielectric and ionic cavities
  area:      175.479404237969     
  volume:    816.613167196074     
  Acav:     9.212668722493350E-002
  Solving linear dielectric/ionic screening model
        iter                  A_solv                     rms
   LPB:       -0.228872851949848E+00   0.110440888887029E+00
   LPB:    0  -0.228872800505290E+00   0.110481379908259E+00  -0.520400E-04   0.000000E+00   0.379922E+02  -0.197711E-02
   LPB:    1  -0.228828436773798E+00   0.141140733033885E-01   0.980571E-02   0.000000E+00   0.755735E+02   0.448890E-19
   LPB:    2  -0.228823154061022E+00   0.338568379493329E-02   0.137871E-01   0.846905E-01   0.215038E+03   0.730945E-17
   LPB:    3  -0.228822510373096E+00   0.135939993723350E-02   0.205947E-01   0.815710E-01   0.161603E+03   0.129094E-16
   LPB:    4  -0.228822308597264E+00   0.120427499292329E-02   0.269932E-01   0.239164E+00   0.286774E+03   0.325070E-16
  Finished solving LPB equations
  A_corr:   -0.136695621372331     
 End minimization
 Ecorr=   1775.90168898076     
 A_corr= -0.136695621372331     
 Ecorr_band=  -1776.03838460214     
 End Solvation calculations
RMM:  51    -0.178502820555E+03    0.22801E-03   -0.45042E-06  2032   0.299E-03    0.244E-01
 Begin Solvation calculations
  rms_SCF =   9.186467315041857E-002 tol =   9.186467315041857E-003
 Begin minimization
 Creating dielectric and ionic cavities
  area:      175.479433629348     
  volume:    816.614198472844     
  Acav:     9.212670265540794E-002
  Solving linear dielectric/ionic screening model
        iter                  A_solv                     rms
   LPB:       -0.228952764444655E+00   0.110882453308425E+00
   LPB:    0  -0.228952735083465E+00   0.110902393959093E+00  -0.393147E-04   0.000000E+00   0.379921E+02  -0.149365E-02
   LPB:    1  -0.228910982209940E+00   0.125263268663566E-01   0.927795E-02   0.000000E+00   0.788704E+02  -0.766175E-19
   LPB:    2  -0.228906476585067E+00   0.298255701989338E-02   0.148053E-01   0.676246E-01   0.179657E+03  -0.661115E-17
   LPB:    3  -0.228905859872324E+00   0.168383686128684E-02   0.226166E-01   0.896018E-01   0.151890E+03  -0.915405E-17
   LPB:    4  -0.228905606511036E+00   0.157982246454664E-02   0.279971E-01   0.331872E+00   0.229506E+03  -0.811440E-18
  Finished solving LPB equations
  A_corr:   -0.136778903855628     
 End minimization
 Ecorr=   1775.89049233378     
 A_corr= -0.136778903855628     
 Ecorr_band=  -1776.02727123764     
 End Solvation calculations
RMM:  52    -0.178502501326E+03    0.31923E-03   -0.11984E-05  2097   0.460E-03    0.175E-01
 Begin Solvation calculations
  rms_SCF =   9.186467315041857E-002 tol =   9.186467315041857E-003
 Begin minimization
 Creating dielectric and ionic cavities
  area:      175.480145957871     
  volume:    816.617746469336     
  Acav:     9.212707662788232E-002
  Solving linear dielectric/ionic screening model
        iter                  A_solv                     rms
   LPB:       -0.229160328851939E+00   0.165140861636249E+00
   LPB:    0  -0.229160171858230E+00   0.165087548357711E+00  -0.909097E-04   0.000000E+00   0.379920E+02  -0.345384E-02
   LPB:    1  -0.229066837695093E+00   0.194324452481264E-01   0.941580E-02   0.000000E+00   0.772537E+02   0.240992E-18
   LPB:    2  -0.229056227937194E+00   0.424936113807434E-02   0.145516E-01   0.735550E-01   0.184474E+03   0.492099E-17
   LPB:    3  -0.229054909983852E+00   0.197505826678821E-02   0.218867E-01   0.825894E-01   0.173949E+03  -0.490413E-17
   LPB:    4  -0.229054403706220E+00   0.180354574917838E-02   0.293466E-01   0.286491E+00   0.247806E+03   0.267250E-17
  Finished solving LPB equations
  A_corr:   -0.136927327078338     
 End minimization
 Ecorr=   1775.87403701452     
 A_corr= -0.136927327078338     
 Ecorr_band=  -1776.01096434159     
 End Solvation calculations
RMM:  53    -0.178502240483E+03    0.26084E-03   -0.22756E-05  2264   0.616E-03    0.821E-02
 Begin Solvation calculations
  rms_SCF =   9.186467315041857E-002 tol =   9.186467315041857E-003
 Begin minimization
 Creating dielectric and ionic cavities
  area:      175.480658882005     
  volume:    816.620623665326     
  Acav:     9.212734591305258E-002
  Solving linear dielectric/ionic screening model
        iter                  A_solv                     rms
   LPB:       -0.229136884179477E+00   0.612675007417061E-01
   LPB:    0  -0.229136820569427E+00   0.610925833340147E-01  -0.578672E-04   0.000000E+00   0.379918E+02  -0.219848E-02
   LPB:    1  -0.229123823588412E+00   0.757520356995620E-02   0.955166E-02   0.000000E+00   0.762462E+02   0.432292E-20
   LPB:    2  -0.229122270845872E+00   0.167754641315837E-02   0.144606E-01   0.789132E-01   0.183275E+03   0.124605E-16
   LPB:    3  -0.229121955438790E+00   0.891071777439947E-03   0.290521E-01   0.101107E+00   0.141645E+03   0.159734E-16
   LPB:    4  -0.229121685322580E+00   0.547906829067918E-03   0.400820E-01   0.620736E+00   0.160206E+03   0.235208E-16
  Finished solving LPB equations
  A_corr:   -0.136994339409528     
 End minimization
 Ecorr=   1775.85335439919     
 A_corr= -0.136994339409528     
 Ecorr_band=  -1775.99034873860     
 End Solvation calculations
RMM:  54    -0.178502200117E+03    0.40366E-04   -0.59661E-06  2011   0.360E-03    0.567E-02
 Begin Solvation calculations
  rms_SCF =   8.205346688095583E-002 tol =   8.205346688095583E-003
 Begin minimization
 Creating dielectric and ionic cavities
  area:      175.481408790789     
  volume:    816.618581612666     
  Acav:     9.212773961516400E-002
  Solving linear dielectric/ionic screening model
        iter                  A_solv                     rms
   LPB:       -0.229149804262034E+00   0.147489440148423E-01
   LPB:    0  -0.229149746915090E+00   0.138442972011867E-01  -0.549445E-04   0.000000E+00   0.379919E+02  -0.208745E-02
   LPB:    1  -0.229148969109564E+00   0.153479961492600E-02   0.895533E-02   0.000000E+00   0.966005E+02  -0.880472E-19
   LPB:    2  -0.229148883970402E+00   0.514022743123280E-03   0.173658E-01   0.564477E-01   0.178080E+03   0.810538E-17
   LPB:    3  -0.229148805562007E+00   0.946384236030809E-03   0.599836E-01   0.266621E+00   0.211296E+03   0.326005E-17
   LPB:    4  -0.229148696896395E+00   0.105162436810248E-02   0.379146E-01   0.219258E+01   0.127115E+03  -0.858668E-18
  Finished solving LPB equations
  A_corr:   -0.137020957281231     
 End minimization
 Ecorr=   1775.82940188077     
 A_corr= -0.137020957281231     
 Ecorr_band=  -1775.96642283805     
 End Solvation calculations
RMM:  55    -0.178502194563E+03    0.55544E-05   -0.15452E-06  1281   0.191E-03
 Begin Solvation calculations
  rms_SCF =   8.205346688095583E-002 tol =   8.205346688095583E-003
 Begin minimization
 Creating dielectric and ionic cavities
  area:      175.481716518560     
  volume:    816.617504513960     
  Acav:     9.212790117224391E-002
  Solving linear dielectric/ionic screening model
        iter                  A_solv                     rms
   LPB:       -0.229174678211201E+00   0.144980736953906E-01
   LPB:    0  -0.229174621015896E+00   0.138431246675557E-01  -0.548718E-04   0.000000E+00   0.379920E+02  -0.208469E-02
   LPB:    1  -0.229173918855207E+00   0.154206297265638E-02   0.886620E-02   0.000000E+00   0.915326E+02   0.122193E-18
   LPB:    2  -0.229173847346151E+00   0.358112244538035E-03   0.170257E-01   0.530342E-01   0.139825E+03  -0.169489E-17
   LPB:    3  -0.229173825763498E+00   0.226056447301467E-03   0.309048E-01   0.166274E+00   0.212597E+03  -0.581498E-18
   LPB:    4  -0.229173806983690E+00   0.177408374317119E-03   0.418628E-01   0.642368E+00   0.478508E+03  -0.327014E-18
  Finished solving LPB equations
  A_corr:   -0.137045905811447     
 End minimization
 Ecorr=   1775.82675491141     
 A_corr= -0.137045905811447     
 Ecorr_band=  -1775.96380081722     
 End Solvation calculations
   1 F= -.17850219E+03 E0= -.17848194E+03  d E =-.178502E+03
quench:  g(F)=  0.000E+00 g(S)=  0.000E+00 dE (1.order)= 0.000E+00
 bond charge predicted
       N       E                     dE             d eps       ncg     rms          rms(c)
 Begin Solvation calculations
  rms_SCF =   8.205346688095583E-002 tol =   8.205346688095583E-003
 Begin minimization
 Creating dielectric and ionic cavities
  area:      175.522029883309     
  volume:    816.645543379300     
  Acav:     9.214906568873742E-002
  Solving linear dielectric/ionic screening model
        iter                  A_solv                     rms
   LPB:       -0.231793170088276E+00   0.438439535505414E-02
   LPB:    0  -0.231793170031051E+00   0.440015186101970E-02   0.173568E-05   0.000000E+00   0.379907E+02   0.659396E-04
   LPB:    1  -0.229611556615882E+00   0.180674400078251E-02   0.161124E-01   0.000000E+00   0.830049E+06   0.398675E-21
   LPB:    2  -0.229343284645643E+00   0.179661576043557E-02   0.276305E-01   0.717081E-01   0.188520E+06  -0.626445E-17
   LPB:    3  -0.229258591620788E+00   0.310130274442164E-02   0.323456E-01   0.269678E+00   0.470692E+05  -0.703188E-17
   LPB:    4  -0.229223413269315E+00   0.697808816780653E-02   0.346685E-01   0.387532E+00   0.636385E+04   0.799593E-17
  Finished solving LPB equations
  A_corr:   -0.137074347580578     
 End minimization
 Ecorr=   1775.85296058223     
 A_corr= -0.137074347580578     
 Ecorr_band=  -1775.99003492981     
 End Solvation calculations
DAV:   1    -0.178503422256E+03   -0.12221E-02   -0.17359E-01  3738   0.666E-01    0.149E-01
 Begin Solvation calculations
  rms_SCF =   5.287065269820377E-002 tol =   5.287065269820377E-003
 Begin minimization
 Creating dielectric and ionic cavities
  area:      175.467555481495     
  volume:    816.543322777524     
  Acav:     9.212046662778493E-002
  Solving linear dielectric/ionic screening model
        iter                  A_solv                     rms
   LPB:       -0.230974326475585E+00   0.301395308858819E+00
   LPB:    0  -0.230877624533762E+00   0.234362644918379E+00  -0.225614E-02   0.000000E+00   0.379954E+02  -0.857232E-01
   LPB:    1  -0.230445929260833E+00   0.706171465064691E-01   0.119029E-01   0.000000E+00   0.983357E+02  -0.559136E-17
   LPB:    2  -0.230358666480311E+00   0.185811629969575E-01   0.141457E-01   0.170091E+00   0.260529E+03   0.413118E-15
   LPB:    3  -0.230336706366329E+00   0.171208057108861E-01   0.256466E-01   0.138804E+00   0.261074E+03   0.503516E-15
   LPB:    4  -0.230326914767512E+00   0.116448630632462E-01   0.234805E-01   0.487014E+00   0.159868E+03   0.531966E-15
   LPB:    5  -0.230319524548497E+00   0.552295566169427E-02   0.288743E-01   0.613760E+00   0.499841E+03   0.586455E-15
   LPB:    6  -0.230314077364124E+00   0.272031626680354E-02   0.366223E-01   0.581141E+00   0.478928E+03   0.501485E-15
  Finished solving LPB equations
  A_corr:   -0.138193610736339     
 End minimization
 Ecorr=   1775.61214349482     
 A_corr= -0.138193610736339     
 Ecorr_band=  -1775.75033710555     
 End Solvation calculations
RMM:   2    -0.178505204891E+03   -0.17826E-02   -0.82907E-03  3729   0.141E-01    0.400E-01
 Begin Solvation calculations
  rms_SCF =   5.287065269820377E-002 tol =   5.287065269820377E-003
 Begin minimization
 Creating dielectric and ionic cavities
  area:      175.476125144780     
  volume:    816.555789311208     
  Acav:     9.212496570100957E-002
  Solving linear dielectric/ionic screening model
        iter                  A_solv                     rms
   LPB:       -0.230798418420670E+00   0.439669210867328E+00
   LPB:    0  -0.230797043827272E+00   0.438997675236147E+00   0.268992E-03   0.000000E+00   0.379949E+02   0.102203E-01
   LPB:    1  -0.230175563444077E+00   0.425989992074762E-01   0.878464E-02   0.000000E+00   0.834753E+02   0.213109E-18
   LPB:    2  -0.230121859511441E+00   0.667376072878108E-02   0.159747E-01   0.475193E-01   0.152906E+03  -0.275870E-16
   LPB:    3  -0.230114866684846E+00   0.290991313723884E-02   0.239748E-01   0.867610E-01   0.283708E+03  -0.299869E-16
   LPB:    4  -0.230112114461204E+00   0.154843962559886E-02   0.309751E-01   0.304631E+00   0.495656E+03  -0.873226E-16
  Finished solving LPB equations
  A_corr:   -0.137987148760195     
 End minimization
 Ecorr=   1775.69582473005     
 A_corr= -0.137987148760195     
 Ecorr_band=  -1775.83381187881     
 End Solvation calculations
RMM:   3    -0.178504369792E+03    0.83510E-03   -0.77024E-04  3718   0.506E-02    0.273E-01
 Begin Solvation calculations
  rms_SCF =   5.287065269820377E-002 tol =   5.287065269820377E-003
 Begin minimization
 Creating dielectric and ionic cavities
  area:      175.477605848175     
  volume:    816.568030845283     
  Acav:     9.212574307029162E-002
  Solving linear dielectric/ionic screening model
        iter                  A_solv                     rms
   LPB:       -0.230632644358676E+00   0.147738685968108E+00
   LPB:    0  -0.230629965680876E+00   0.143593960968254E+00  -0.375505E-03   0.000000E+00   0.379943E+02  -0.142671E-01
   LPB:    1  -0.230547385673745E+00   0.214127098347245E-01   0.963186E-02   0.000000E+00   0.848379E+02   0.574533E-18
   LPB:    2  -0.230532913968054E+00   0.299784482112014E-02   0.166743E-01   0.101230E+00   0.177261E+03  -0.561157E-16
   LPB:    3  -0.230530828348492E+00   0.182539384157986E-02   0.253886E-01   0.946507E-01   0.563461E+03  -0.233917E-16
   LPB:    4  -0.230529894667520E+00   0.181259285566798E-02   0.312099E-01   0.364176E+00   0.449804E+03  -0.177981E-16
  Finished solving LPB equations
  A_corr:   -0.138404151597228     
 End minimization
 Ecorr=   1775.54634947218     
 A_corr= -0.138404151597228     
 Ecorr_band=  -1775.68475362378     
 End Solvation calculations
RMM:   4    -0.178503709267E+03    0.66052E-03   -0.35970E-04  3701   0.321E-02    0.722E-02
 Begin Solvation calculations
  rms_SCF =   3.887607860282574E-002 tol =   3.887607860282574E-003
 Begin minimization
 Creating dielectric and ionic cavities
  area:      175.479580067145     
  volume:    816.543745024224     
  Acav:     9.212677953525106E-002
  Solving linear dielectric/ionic screening model
        iter                  A_solv                     rms
   LPB:       -0.231253864237153E+00   0.126498865116395E+00
   LPB:    0  -0.231223350173777E+00   0.724743056646535E-01  -0.126736E-02   0.000000E+00   0.379954E+02  -0.481538E-01
   LPB:    1  -0.231139364631121E+00   0.279795561362602E-01   0.138636E-01   0.000000E+00   0.122087E+03  -0.333768E-17
   LPB:    2  -0.231131211012513E+00   0.794163228169719E-02   0.133535E-01   0.100793E+00   0.151610E+03  -0.119926E-16
   LPB:    3  -0.231128325749044E+00   0.555731936155046E-02   0.216671E-01   0.218087E+00   0.431066E+03  -0.167497E-16
   LPB:    4  -0.231126900927083E+00   0.545862837927638E-02   0.234700E-01   0.455891E+00   0.138157E+03  -0.317378E-16
   LPB:    5  -0.231125808932614E+00   0.316346814668374E-02   0.268740E-01   0.669331E+00   0.309037E+03  -0.752292E-16
  Finished solving LPB equations
  A_corr:   -0.138999029397363     
 End minimization
 Ecorr=   1775.47848572670     
 A_corr= -0.138999029397363     
 Ecorr_band=  -1775.61748475610     
 End Solvation calculations
RMM:   5    -0.178503808327E+03   -0.99059E-04   -0.25083E-04  3698   0.302E-02    0.140E-01
 Begin Solvation calculations
  rms_SCF =   3.887607860282574E-002 tol =   3.887607860282574E-003
 Begin minimization
 Creating dielectric and ionic cavities
  area:      175.470566561016     
[...]
   LPB:    4  -0.255113757109696E+00   0.492359188110706E-03   0.301600E-01   0.302110E+00   0.780868E+03   0.652356E-17
   LPB:    5  -0.255113716116320E+00   0.599038386179501E-03   0.308351E-01   0.502822E+00   0.469750E+03   0.587737E-17
   LPB:    6  -0.255113692611927E+00   0.583846333598787E-03   0.266098E-01   0.664414E+00   0.269285E+03   0.416483E-17
   LPB:    7  -0.255113675309077E+00   0.355807901554337E-03   0.289289E-01   0.677141E+00   0.219981E+03   0.347887E-17
   LPB:    8  -0.255113662856861E+00   0.199101648472636E-03   0.338102E-01   0.615761E+00   0.459803E+03   0.613360E-17
  Finished solving LPB equations
  A_corr:   -0.161991712184484     
 End minimization
 Ecorr=   1768.01879134735     
 A_corr= -0.161991712184484     
 Ecorr_band=  -1768.18078305953     
 End Solvation calculations
RMM:   6    -0.178573246209E+03   -0.37768E-05   -0.11648E-05  2012   0.753E-03
 Begin Solvation calculations
  rms_SCF =   2.969328228906046E-003 tol =   2.969328228906046E-004
 Begin minimization
 Creating dielectric and ionic cavities
  area:      177.373243897903     
  volume:    817.992805682642     
  Acav:     9.312095304639910E-002
  Solving linear dielectric/ionic screening model
        iter                  A_solv                     rms
   LPB:       -0.255130043125843E+00   0.365142210442867E-02
   LPB:    0  -0.255130025858524E+00   0.299445628893564E-02   0.301752E-04   0.000000E+00   0.379275E+02   0.114447E-02
   LPB:    1  -0.255129333951727E+00   0.134751186234762E-02   0.177953E-01   0.000000E+00   0.461946E+03  -0.133411E-19
   LPB:    2  -0.255129262162598E+00   0.117803321260279E-02   0.190942E-01   0.966978E-01   0.199941E+03  -0.906820E-18
   LPB:    3  -0.255129236294714E+00   0.504205579233271E-03   0.184493E-01   0.372925E+00   0.199521E+03   0.704836E-17
   LPB:    4  -0.255129224544538E+00   0.449338791733367E-03   0.230261E-01   0.363952E+00   0.438888E+03   0.825227E-17
   LPB:    5  -0.255129216287622E+00   0.466764374448560E-03   0.265708E-01   0.608961E+00   0.181017E+03   0.828163E-17
   LPB:    6  -0.255129207663192E+00   0.280806789859399E-03   0.319031E-01   0.869929E+00   0.247146E+03   0.851266E-17
  Finished solving LPB equations
  A_corr:   -0.162008254616793     
 End minimization
 Ecorr=   1768.01199917523     
 A_corr= -0.162008254616793     
 Ecorr_band=  -1768.17400742985     
 End Solvation calculations
 238 F= -.17857325E+03 E0= -.17855226E+03  d E =0.995549E-03
quench:  g(F)=  0.000E+00 g(S)=  0.000E+00 dE (1.order)= 0.000E+00
 bond charge predicted
       N       E                     dE             d eps       ncg     rms          rms(c)
 Begin Solvation calculations
  rms_SCF =   2.969328228906046E-003 tol =   2.969328228906046E-004
 Begin minimization
 Creating dielectric and ionic cavities
  area:      177.374712722002     
  volume:    817.998358555520     
  Acav:     9.312172417905100E-002
  Solving linear dielectric/ionic screening model
        iter                  A_solv                     rms
   LPB:       -0.255279772213002E+00   0.110167386686417E-02
   LPB:    0  -0.255279772210406E+00   0.110454344750988E-02   0.369979E-06   0.000000E+00   0.379272E+02   0.140323E-04
   LPB:    1  -0.255152543989539E+00   0.406338377261472E-03   0.157345E-01   0.000000E+00   0.821277E+06   0.705232E-21
   LPB:    2  -0.255140324594448E+00   0.442904753286886E-03   0.265841E-01   0.568457E-01   0.197305E+06   0.615659E-18
   LPB:    3  -0.255136544065895E+00   0.979643466982271E-03   0.323549E-01   0.254206E+00   0.407270E+05   0.109152E-17
   LPB:    4  -0.255134947574039E+00   0.255752503087924E-02   0.347201E-01   0.393526E+00   0.349175E+04  -0.250260E-18
   LPB:    5  -0.255134269304445E+00   0.491283829029979E-02   0.284855E-01   0.517837E+00   0.357128E+03  -0.879853E-19
   LPB:    6  -0.255133897020384E+00   0.236774939294909E-02   0.185449E-01   0.843086E+00   0.218617E+03   0.449842E-17
   LPB:    7  -0.255133580204253E+00   0.118964166049149E-02   0.308212E-01   0.512044E+00   0.855367E+03   0.482274E-17
   LPB:    8  -0.255133403964007E+00   0.176483690289107E-02   0.314094E-01   0.545867E+00   0.347203E+03   0.595069E-17
   LPB:    9  -0.255133300823550E+00   0.105223715812220E-02   0.237125E-01   0.775188E+00   0.199869E+03   0.117434E-16
   LPB:   10  -0.255133216196878E+00   0.332527589634324E-03   0.328180E-01   0.592848E+00   0.682257E+03  -0.146296E-17
   LPB:   11  -0.255133160962811E+00   0.151257480100279E-03   0.384188E-01   0.557530E+00   0.327608E+04  -0.233640E-16
  Finished solving LPB equations
  A_corr:   -0.162011436783760     
 End minimization
 Ecorr=   1768.01336406780     
 A_corr= -0.162011436783760     
 Ecorr_band=  -1768.17537550458     
 End Solvation calculations
DAV:   1    -0.178572658045E+03    0.58439E-03   -0.88124E-03  3756   0.148E-01    0.339E-02
 Begin Solvation calculations
  rms_SCF =   2.969328228906046E-003 tol =   2.969328228906046E-004
 Begin minimization
 Creating dielectric and ionic cavities
  area:      177.380317999415     
  volume:    818.001877948921     
  Acav:     9.312466694969286E-002
  Solving linear dielectric/ionic screening model
        iter                  A_solv                     rms
   LPB:       -0.255016074358967E+00   0.153954497851177E-01
   LPB:    0  -0.255015799351272E+00   0.107610881313647E-01   0.120424E-03   0.000000E+00   0.379271E+02   0.456733E-02
   LPB:    1  -0.255010660127716E+00   0.577875050367595E-02   0.167464E-01   0.000000E+00   0.248722E+03  -0.122556E-18
   LPB:    2  -0.255010061829777E+00   0.388652837141679E-02   0.171254E-01   0.113842E+00   0.146342E+03   0.463532E-16
   LPB:    3  -0.255009794552817E+00   0.114853001650221E-02   0.182942E-01   0.418186E+00   0.345168E+03   0.670770E-16
   LPB:    4  -0.255009667130335E+00   0.107784474946562E-02   0.258622E-01   0.337235E+00   0.407277E+03   0.788945E-16
   LPB:    5  -0.255009606685711E+00   0.995627790419227E-03   0.239198E-01   0.512886E+00   0.290130E+03   0.847428E-16
   LPB:    6  -0.255009566239798E+00   0.493436720382177E-03   0.268551E-01   0.596002E+00   0.199356E+03   0.850426E-16
   LPB:    7  -0.255009539811067E+00   0.269094545416027E-03   0.336596E-01   0.521337E+00   0.714460E+03   0.892845E-16
  Finished solving LPB equations
  A_corr:   -0.161884872861375     
 End minimization
 Ecorr=   1768.05562317064     
 A_corr= -0.161884872861375     
 Ecorr_band=  -1768.21750804350     
 End Solvation calculations
RMM:   2    -0.178572741319E+03   -0.83273E-04   -0.45070E-04  3692   0.349E-02    0.856E-02
 Begin Solvation calculations
  rms_SCF =   2.969328228906046E-003 tol =   2.969328228906046E-004
 Begin minimization
 Creating dielectric and ionic cavities
  area:      177.378125737736     
  volume:    818.003535361768     
  Acav:     9.312351601231139E-002
  Solving linear dielectric/ionic screening model
        iter                  A_solv                     rms
   LPB:       -0.254982661417655E+00   0.621417723554696E-02
   LPB:    0  -0.254982597504292E+00   0.402648844536855E-02   0.580546E-04   0.000000E+00   0.379270E+02   0.220184E-02
   LPB:    1  -0.254982451541293E+00   0.129301968363821E-02   0.131905E-01   0.000000E+00   0.819591E+02  -0.591926E-19
   LPB:    2  -0.254982415315515E+00   0.529006972907842E-03   0.162826E-01   0.201055E+00   0.327176E+03  -0.294981E-17
   LPB:    3  -0.254982401857807E+00   0.564894019843604E-03   0.233000E-01   0.259609E+00   0.212202E+03  -0.910902E-18
   LPB:    4  -0.254982393584211E+00   0.336694947374284E-03   0.242970E-01   0.589558E+00   0.187300E+03   0.123819E-17
   LPB:    5  -0.254982384694551E+00   0.152966604618702E-03   0.369241E-01   0.707023E+00   0.678766E+03   0.219218E-17
  Finished solving LPB equations
  A_corr:   -0.161858868682240     
 End minimization
 Ecorr=   1768.05430884235     
 A_corr= -0.161858868682240     
 Ecorr_band=  -1768.21616771104     
 End Solvation calculations
RMM:   3    -0.178572690261E+03    0.51057E-04   -0.54949E-05  3206   0.144E-02    0.334E-02
 Begin Solvation calculations
  rms_SCF =   2.969328228906046E-003 tol =   2.969328228906046E-004
 Begin minimization
 Creating dielectric and ionic cavities
  area:      177.376801831537     
  volume:    818.004252035908     
  Acav:     9.312282096155691E-002
  Solving linear dielectric/ionic screening model
        iter                  A_solv                     rms
   LPB:       -0.254957275656690E+00   0.161889126100097E-01
   LPB:    0  -0.254957205088509E+00   0.153840027176911E-01   0.610022E-04   0.000000E+00   0.379270E+02   0.231363E-02
   LPB:    1  -0.254956178148865E+00   0.183281316434194E-02   0.935444E-02   0.000000E+00   0.973569E+02   0.611753E-19
   LPB:    2  -0.254956054678006E+00   0.467421336040806E-03   0.155775E-01   0.722004E-01   0.344885E+03   0.271930E-17
   LPB:    3  -0.254956026219576E+00   0.419465265184699E-03   0.256203E-01   0.140139E+00   0.549031E+03   0.498440E-17
   LPB:    4  -0.254956015098912E+00   0.382595191902097E-03   0.263752E-01   0.379584E+00   0.183936E+03   0.534908E-17
   LPB:    5  -0.254956007500829E+00   0.243909094338642E-03   0.268029E-01   0.672338E+00   0.402646E+03   0.761192E-18
  Finished solving LPB equations
  A_corr:   -0.161833186539272     
 End minimization
 Ecorr=   1768.05704090448     
 A_corr= -0.161833186539272     
 Ecorr_band=  -1768.21887409102     
 End Solvation calculations
RMM:   4    -0.178572684318E+03    0.59428E-05   -0.12807E-05  2043   0.686E-03
 Begin Solvation calculations
  rms_SCF =   2.969328228906046E-003 tol =   2.969328228906046E-004
 Begin minimization
 Creating dielectric and ionic cavities
  area:      177.377928139961     
  volume:    818.003148864770     
  Acav:     9.312341227347963E-002
  Solving linear dielectric/ionic screening model
        iter                  A_solv                     rms
   LPB:       -0.254910194666431E+00   0.330631589207628E-01
   LPB:    0  -0.254910177142952E+00   0.329077748410903E-01   0.303984E-04   0.000000E+00   0.379270E+02   0.115292E-02
   LPB:    1  -0.254906568405977E+00   0.366368892789744E-02   0.901345E-02   0.000000E+00   0.816267E+02  -0.450817E-19
   LPB:    2  -0.254906149338866E+00   0.534931239999827E-03   0.166109E-01   0.630125E-01   0.146056E+03   0.561853E-17
   LPB:    3  -0.254906100192374E+00   0.268942003809526E-03   0.234663E-01   0.830151E-01   0.339699E+03   0.113944E-16
   LPB:    4  -0.254906082362050E+00   0.139239177170455E-03   0.287628E-01   0.295992E+00   0.372036E+03   0.947892E-17
  Finished solving LPB equations
  A_corr:   -0.161782670088571     
 End minimization
 Ecorr=   1768.07876394934     
 A_corr= -0.161782670088571     
 Ecorr_band=  -1768.24054661943     
 End Solvation calculations
 239 F= -.17857268E+03 E0= -.17855169E+03  d E =0.561891E-03
quench:  g(F)=  0.000E+00 g(S)=  0.000E+00 dE (1.order)= 0.000E+00
 bond charge predicted
       N       E                     dE             d eps       ncg     rms          rms(c)
 Begin Solvation calculations
  rms_SCF =   2.969328228906046E-003 tol =   2.969328228906046E-004
 Begin minimization
 Creating dielectric and ionic cavities
  area:      177.386757470233     
  volume:    818.012708600167     
  Acav:     9.312804767187255E-002
  Solving linear dielectric/ionic screening model
        iter                  A_solv                     rms
   LPB:       -0.255001549791186E+00   0.101834313493573E-02
   LPB:    0  -0.255001549780267E+00   0.102813824567618E-02   0.758814E-06   0.000000E+00   0.379266E+02   0.287792E-04
   LPB:    1  -0.254914767592227E+00   0.427170271067119E-03   0.154875E-01   0.000000E+00   0.624274E+06  -0.127528E-21
   LPB:    2  -0.254907009015498E+00   0.366746056544324E-03   0.261066E-01   0.530373E-01   0.102456E+06   0.116626E-17
   LPB:    3  -0.254904668169369E+00   0.683493022517204E-03   0.321976E-01   0.244635E+00   0.327449E+05   0.206408E-17
   LPB:    4  -0.254903683778782E+00   0.133898955499135E-02   0.347956E-01   0.389129E+00   0.313229E+04   0.106825E-17
   LPB:    5  -0.254903228046424E+00   0.240728876719463E-02   0.327000E-01   0.492627E+00   0.523101E+03  -0.189456E-17
   LPB:    6  -0.254903001875319E+00   0.189982625750335E-02   0.240107E-01   0.675881E+00   0.187139E+03  -0.170946E-16
   LPB:    7  -0.254902829114565E+00   0.854076215862032E-03   0.285398E-01   0.642632E+00   0.453308E+03  -0.213087E-16
   LPB:    8  -0.254902721150798E+00   0.143588512332767E-02   0.337476E-01   0.528494E+00   0.712058E+03  -0.112265E-16
   LPB:    9  -0.254902669442005E+00   0.137286833919698E-02   0.212163E-01   0.761832E+00   0.189544E+03  -0.996729E-17
   LPB:   10  -0.254902619523056E+00   0.360930831005634E-03   0.258645E-01   0.791893E+00   0.508299E+03  -0.103544E-16
   LPB:   11  -0.254902583085616E+00   0.138163470799927E-03   0.377484E-01   0.500136E+00   0.326545E+04  -0.892371E-17
  Finished solving LPB equations
  A_corr:   -0.161774535413744     
 End minimization
 Ecorr=   1768.08467438853     
 A_corr= -0.161774535413744     
 Ecorr_band=  -1768.24644892394     
 End Solvation calculations
DAV:   1    -0.178571895539E+03    0.79472E-03   -0.61434E-03  3768   0.140E-01    0.380E-02
 Begin Solvation calculations
  rms_SCF =   2.969328228906046E-003 tol =   2.969328228906046E-004
 Begin minimization
 Creating dielectric and ionic cavities
  area:      177.380495933026     
  volume:    818.007842848414     
  Acav:     9.312476036483844E-002
  Solving linear dielectric/ionic screening model
        iter                  A_solv                     rms
   LPB:       -0.255273231191448E+00   0.257374201318897E+00
   LPB:    0  -0.255273055682892E+00   0.257220999485009E+00  -0.962036E-04   0.000000E+00   0.379268E+02  -0.364869E-02
   LPB:    1  -0.255060325840148E+00   0.244406249544653E-01   0.873672E-02   0.000000E+00   0.841966E+02   0.698850E-19
   LPB:    2  -0.255043173622738E+00   0.397501669887229E-02   0.159690E-01   0.441127E-01   0.149922E+03  -0.699927E-16
   LPB:    3  -0.255041311284210E+00   0.166356544541259E-02   0.218289E-01   0.794298E-01   0.268349E+03  -0.701373E-16
   LPB:    4  -0.255040786205016E+00   0.835995023421435E-03   0.273910E-01   0.224694E+00   0.382635E+03  -0.786840E-16
   LPB:    5  -0.255040590570261E+00   0.799420061165556E-03   0.283118E-01   0.360463E+00   0.446463E+03  -0.823564E-16
   LPB:    6  -0.255040500490243E+00   0.922300259309834E-03   0.281586E-01   0.462956E+00   0.271225E+03  -0.833970E-16
   LPB:    7  -0.255040455072132E+00   0.794962132186527E-03   0.252942E-01   0.561293E+00   0.190144E+03  -0.928734E-16
   LPB:    8  -0.255040425260688E+00   0.351428863286151E-03   0.275627E-01   0.602357E+00   0.198189E+03  -0.963167E-16
   LPB:    9  -0.255040405656138E+00   0.173712722150154E-03   0.344301E-01   0.526451E+00   0.452548E+03  -0.106921E-15
  Finished solving LPB equations
  A_corr:   -0.161915645291300     
 End minimization
 Ecorr=   1768.04787943426     
 A_corr= -0.161915645291300     
 Ecorr_band=  -1768.20979507955     
 End Solvation calculations
RMM:   2    -0.178572919099E+03   -0.10236E-02   -0.46928E-04  3714   0.412E-02    0.339E-01
 Begin Solvation calculations
  rms_SCF =   2.969328228906046E-003 tol =   2.969328228906046E-004
 Begin minimization
 Creating dielectric and ionic cavities
  area:      177.387889536771     
  volume:    818.011784601247     
  Acav:     9.312864200680454E-002
  Solving linear dielectric/ionic screening model
        iter                  A_solv                     rms
   LPB:       -0.255061296342152E+00   0.240258458923003E+00
   LPB:    0  -0.255060723226146E+00   0.239747260630501E+00   0.173846E-03   0.000000E+00   0.379266E+02   0.659338E-02
   LPB:    1  -0.254875866225514E+00   0.237651676234418E-01   0.878283E-02   0.000000E+00   0.832559E+02   0.145013E-18
   LPB:    2  -0.254859602153599E+00   0.370527530977139E-02   0.162216E-01   0.476358E-01   0.143796E+03  -0.279730E-16
   LPB:    3  -0.254857841367592E+00   0.151137842388706E-02   0.218129E-01   0.805113E-01   0.286965E+03  -0.355646E-16
   LPB:    4  -0.254857338275146E+00   0.670434863711844E-03   0.273218E-01   0.228111E+00   0.411802E+03  -0.395223E-16
   LPB:    5  -0.254857150948686E+00   0.436641189001924E-03   0.290191E-01   0.350571E+00   0.497071E+03  -0.531859E-16
   LPB:    6  -0.254857071453194E+00   0.356834899901128E-03   0.298879E-01   0.412033E+00   0.520406E+03  -0.584031E-16
   LPB:    7  -0.254857036623648E+00   0.504807385143896E-03   0.303199E-01   0.431890E+00   0.398265E+03  -0.605912E-16
   LPB:    8  -0.254857020483072E+00   0.492483064146280E-03   0.256455E-01   0.547884E+00   0.200544E+03  -0.598531E-16
   LPB:    9  -0.254857010390087E+00   0.251515673882383E-03   0.262895E-01   0.609999E+00   0.203510E+03  -0.628560E-16
  Finished solving LPB equations
  A_corr:   -0.161728368383282     
 End minimization
 Ecorr=   1768.10631375899     
 A_corr= -0.161728368383282     
 Ecorr_band=  -1768.26804212737     
 End Solvation calculations
RMM:   3    -0.178571913423E+03    0.10057E-02   -0.16383E-04  3666   0.237E-02    0.208E-02
 Begin Solvation calculations
  rms_SCF =   2.969328228906046E-003 tol =   2.969328228906046E-004
 Begin minimization
 Creating dielectric and ionic cavities
  area:      177.386571573808     
  volume:    818.011087074354     
  Acav:     9.312795007624945E-002
  Solving linear dielectric/ionic screening model
        iter                  A_solv                     rms
   LPB:       -0.254845665456944E+00   0.108816463446012E-01
   LPB:    0  -0.254845658884537E+00   0.107477296172060E-01   0.186168E-04   0.000000E+00   0.379266E+02   0.706073E-03
   LPB:    1  -0.254845210935576E+00   0.103087963808921E-02   0.907825E-02   0.000000E+00   0.934944E+02  -0.102146E-19
   LPB:    2  -0.254845161825225E+00   0.255898071077727E-03   0.162500E-01   0.612480E-01   0.292762E+03  -0.382232E-17
   LPB:    3  -0.254845148332372E+00   0.196291292591972E-03   0.283432E-01   0.157520E+00   0.778776E+03   0.104337E-17
   LPB:    4  -0.254845142353726E+00   0.209364855761227E-03   0.325650E-01   0.385652E+00   0.278046E+03   0.294953E-17
  Finished solving LPB equations
  A_corr:   -0.161717192277476     
 End minimization
 Ecorr=   1768.11400756338     
 A_corr= -0.161717192277476     
 Ecorr_band=  -1768.27572475566     
 End Solvation calculations
RMM:   4    -0.178571909037E+03    0.43854E-05   -0.13210E-05  2082   0.740E-03
 Begin Solvation calculations
  rms_SCF =   2.969328228906046E-003 tol =   2.969328228906046E-004
 Begin minimization
 Creating dielectric and ionic cavities
  area:      177.386209593752     
  volume:    818.010694449231     
  Acav:     9.312776003671981E-002
  Solving linear dielectric/ionic screening model
        iter                  A_solv                     rms
   LPB:       -0.254822412784770E+00   0.398682523165635E-02
   LPB:    0  -0.254822389265850E+00   0.255357078747569E-02   0.352169E-04   0.000000E+00   0.379267E+02   0.133566E-02
   LPB:    1  -0.254822309457802E+00   0.122908047240122E-02   0.131332E-01   0.000000E+00   0.104689E+03  -0.100736E-18
   LPB:    2  -0.254822294669146E+00   0.318404816049572E-03   0.143118E-01   0.170043E+00   0.122155E+03   0.445336E-17
   LPB:    3  -0.254822288711122E+00   0.264847638059770E-03   0.250820E-01   0.229882E+00   0.387752E+03   0.527279E-17
   LPB:    4  -0.254822284954388E+00   0.253497516280923E-03   0.281386E-01   0.562040E+00   0.140927E+03   0.435240E-17
  Finished solving LPB equations
  A_corr:   -0.161694524917669     
 End minimization
 Ecorr=   1768.12125493474     
 A_corr= -0.161694524917669     
 Ecorr_band=  -1768.28294945965     
 End Solvation calculations
 240 F= -.17857191E+03 E0= -.17855092E+03  d E =0.775281E-03
quench:  g(F)=  0.000E+00 g(S)=  0.000E+00 dE (1.order)= 0.000E+00
 reached required accuracy - stopping structural energy minimisation
