 vasp.5.4.4.18Apr17-6-g9f103f2a35 (build Feb 06 2024 13:54:16) complex          
  
 POSCAR found type information on POSCAR  Cu Ru Cu N  O 
 03/POSCAR found :  5 types and      40 ions
 scaLAPACK will be used

 ----------------------------------------------------------------------------- 
|                                                                             |
|  ADVICE TO THIS USER RUNNING 'VASP/VAMP'   (HEAR YOUR MASTER'S VOICE ...):  |
|                                                                             |
|      You enforced a specific xc-type in the INCAR file,                     |
|      a different type was found on the POTCAR file                          |
|          I HOPE YOU KNOW, WHAT YOU ARE  DOING                               |
|                                                                             |
 ----------------------------------------------------------------------------- 

 LDA part: xc-table for Pade appr. of Perdew
 POSCAR found type information on POSCAR  Cu Ru Cu N  O 
 00/POSCAR found :  5 types and      40 ions
 POSCAR found type information on POSCAR  Cu Ru Cu N  O 
 06/POSCAR found :  5 types and      40 ions
 Jacobian:    20.5888137679208     
 POSCAR, INCAR and KPOINTS ok, starting setup
 FFT: planning ...
 WAVECAR not read
 entering main loop
       N       E                     dE             d eps       ncg     rms          rms(c)
  Solvation turned off during non-self-consistent phase (first NELMDL steps)
DAV:   1     0.438785776646E+04    0.43879E+04   -0.18049E+05  4080   0.203E+03
DAV:   2     0.625533910074E+03   -0.37623E+04   -0.36312E+04  4107   0.471E+02
DAV:   3    -0.329945418648E+02   -0.65853E+03   -0.60652E+03  4575   0.235E+02
DAV:   4    -0.151873434801E+03   -0.11888E+03   -0.10496E+03  7260   0.919E+01
DAV:   5    -0.165558141318E+03   -0.13685E+02   -0.13083E+02  6234   0.301E+01    0.499E+01
 Begin Solvation calculations
  rms_SCF =    8.71665926696219      tol =   0.871665926696219     
 Begin minimization
 Creating dielectric and ionic cavities
  area:      170.727282777924     
  volume:    687.164013731950     
  Acav:     8.963182345840999E-002
  Solving linear dielectric/ionic screening model
        iter                  A_solv                     rms
   LPB:       -0.376165573814482E+03   0.240281263813063E+03
   LPB:    0  -0.159902370549007E+02   0.560523518937383E+02  -0.470945E+01   0.000000E+00   0.324790E+02  -0.152959E+03
   LPB:    1  -0.268971764376005E+01   0.789933037983867E+01   0.101068E-01   0.000000E+00   0.807919E+02  -0.687826E-15
   LPB:    2  -0.950550451395372E+00   0.141336034072345E+01   0.144772E-01   0.912853E-01   0.332133E+03  -0.240732E-13
   LPB:    3  -0.600726688737950E+00   0.180177425958956E+01   0.254255E-01   0.114531E+00   0.560949E+03  -0.145078E-13
   LPB:    4  -0.485435918141377E+00   0.124201564889612E+01   0.241773E-01   0.346583E+00   0.798078E+02  -0.114731E-13
   LPB:    5  -0.427924555876643E+00   0.622401615002413E+00   0.229941E-01   0.524506E+00   0.475430E+03  -0.102132E-13
  Finished solving LPB equations
  A_corr:   -0.338292732418233     
 End minimization
 Ecorr=   1837.93148329248     
 A_corr= -0.338292732418233     
 Ecorr_band=  -1838.26977602490     
 End Solvation calculations
RMM:   6    -0.176108479632E+03   -0.10550E+02   -0.37739E+02  4153   0.956E+01    0.405E+01
 Begin Solvation calculations
  rms_SCF =    8.71665926696219      tol =   0.871665926696219     
 Begin minimization
 Creating dielectric and ionic cavities
  area:      179.711816692184     
  volume:    707.076021601532     
  Acav:     9.434870376339684E-002
  Solving linear dielectric/ionic screening model
        iter                  A_solv                     rms
   LPB:       -0.276531659860409E+02   0.899976263435615E+02
   LPB:    0  -0.261044963256339E+02   0.875960783511501E+02   0.313347E+00   0.000000E+00   0.315455E+02   0.988470E+01
   LPB:    1  -0.246097578005783E+01   0.794241463708968E+01   0.916569E-02   0.000000E+00   0.730834E+02  -0.277387E-15
   LPB:    2  -0.651520179905500E+00   0.197670591655195E+01   0.156650E-01   0.447785E-01   0.156953E+03   0.154698E-13
   LPB:    3  -0.388447822579209E+00   0.116120848488648E+01   0.229125E-01   0.994000E-01   0.149164E+03   0.217411E-13
   LPB:    4  -0.311951330008228E+00   0.103178026161045E+01   0.234856E-01   0.283686E+00   0.259823E+03   0.291338E-13
   LPB:    5  -0.274226868789519E+00   0.412587573519360E+00   0.242821E-01   0.476976E+00   0.126825E+03   0.242630E-13
  Finished solving LPB equations
  A_corr:   -0.179878165026122     
 End minimization
 Ecorr=   1741.71897607687     
 A_corr= -0.179878165026122     
 Ecorr_band=  -1741.89885424190     
 End Solvation calculations
RMM:   7    -0.154187782248E+03    0.21921E+02   -0.11557E+02  4214   0.498E+01    0.264E+01
 Begin Solvation calculations
  rms_SCF =    8.71665926696219      tol =   0.871665926696219     
 Begin minimization
 Creating dielectric and ionic cavities
  area:      196.870738627678     
  volume:    705.444112964515     
  Acav:     0.103357137779531     
  Solving linear dielectric/ionic screening model
        iter                  A_solv                     rms
   LPB:       -0.124456777158359E+02   0.601319470589336E+02
   LPB:    0  -0.124212212190403E+02   0.600263687890348E+02  -0.393294E-01   0.000000E+00   0.316220E+02  -0.124368E+01
   LPB:    1  -0.133112665005325E+01   0.559546539540849E+01   0.920729E-02   0.000000E+00   0.725395E+02  -0.604858E-16
   LPB:    2  -0.425419688521687E+00   0.909258096773869E+00   0.155997E-01   0.482023E-01   0.157182E+03  -0.761512E-14
   LPB:    3  -0.301516723721129E+00   0.564437523017189E+00   0.228980E-01   0.931995E-01   0.324529E+03  -0.787625E-14
   LPB:    4  -0.273305517374785E+00   0.293108478127885E+00   0.258158E-01   0.201953E+00   0.156780E+03  -0.767814E-14
  Finished solving LPB equations
  A_corr:   -0.169948379595254     
 End minimization
 Ecorr=   1717.17658340811     
 A_corr= -0.169948379595254     
 Ecorr_band=  -1717.34653178770     
 End Solvation calculations
RMM:   8    -0.139144337298E+03    0.15043E+02   -0.90999E+00  4184   0.124E+01    0.121E+01
 Begin Solvation calculations
  rms_SCF =    3.52412717405905      tol =   0.352412717405905     
 Begin minimization
 Creating dielectric and ionic cavities
  area:      171.895011736847     
  volume:    703.255006516053     
  Acav:     9.024488116184450E-002
  Solving linear dielectric/ionic screening model
        iter                  A_solv                     rms
   LPB:       -0.836091914386652E+00   0.116194011917674E+02
   LPB:    0  -0.829543735354334E+00   0.113795149163745E+02  -0.203178E-01   0.000000E+00   0.317247E+02  -0.644576E+00
   LPB:    1  -0.381218580178444E+00   0.149375102625005E+01   0.946369E-02   0.000000E+00   0.746621E+02   0.317262E-16
   LPB:    2  -0.308484098569797E+00   0.325878087656581E+00   0.197224E-01   0.778480E-01   0.102452E+03   0.858331E-14
   LPB:    3  -0.292413086710656E+00   0.369777257655193E+00   0.268141E-01   0.162518E+00   0.313356E+03   0.758124E-14
   LPB:    4  -0.283356780628901E+00   0.250035010085125E+00   0.313794E-01   0.481532E+00   0.571359E+02   0.731327E-14
  Finished solving LPB equations
  A_corr:   -0.193111899467056     
 End minimization
 Ecorr=   1678.22315820933     
 A_corr= -0.193111899467056     
 Ecorr_band=  -1678.41627010879     
 End Solvation calculations
RMM:   9    -0.137867074850E+03    0.12773E+01   -0.81096E+00  4172   0.129E+01    0.831E+00
 Begin Solvation calculations
  rms_SCF =    2.72882565414901      tol =   0.272882565414901     
 Begin minimization
 Creating dielectric and ionic cavities
  area:      164.895176101495     
  volume:    701.082672826396     
  Acav:     8.656996745328496E-002
  Solving linear dielectric/ionic screening model
        iter                  A_solv                     rms
   LPB:       -0.919462356517762E+00   0.116897648073168E+02
   LPB:    0  -0.917876968445365E+00   0.117287044218461E+02   0.998133E-02   0.000000E+00   0.318265E+02   0.317671E+00
   LPB:    1  -0.425399677432381E+00   0.135045861102997E+01   0.971396E-02   0.000000E+00   0.753374E+02   0.214576E-16
   LPB:    2  -0.370985306646734E+00   0.264542918441617E+00   0.152036E-01   0.705955E-01   0.204558E+03   0.148529E-14
   LPB:    3  -0.356206564501541E+00   0.207526191111911E+00   0.307294E-01   0.134374E+00   0.227915E+03   0.365364E-14
   LPB:    4  -0.346410060295687E+00   0.168302155618239E+00   0.402936E-01   0.505536E+00   0.876451E+02   0.588681E-14
  Finished solving LPB equations
  A_corr:   -0.259840092842402     
 End minimization
 Ecorr=   1643.04172309765     
 A_corr= -0.259840092842402     
 Ecorr_band=  -1643.30156319049     
 End Solvation calculations
RMM:  10    -0.136818173167E+03    0.10489E+01   -0.15790E+00  4199   0.523E+00    0.330E+00
 Begin Solvation calculations
  rms_SCF =   0.504884694260818      tol =   5.048846942608184E-002
 Begin minimization
 Creating dielectric and ionic cavities
  area:      154.894499572773     
  volume:    697.689469917852     
  Acav:     8.131961227570576E-002
  Solving linear dielectric/ionic screening model
        iter                  A_solv                     rms
   LPB:       -0.548268465381340E+00   0.275649449149313E+01
   LPB:    0  -0.547817133276231E+00   0.287939600394555E+01   0.531234E-02   0.000000E+00   0.319856E+02   0.169918E+00
   LPB:    1  -0.431763779304149E+00   0.137689060310958E+01   0.141644E-01   0.000000E+00   0.117803E+03   0.128961E-16
   LPB:    2  -0.416102225820920E+00   0.395120850851067E+00   0.141141E-01   0.135433E+00   0.106177E+03  -0.122500E-13
   LPB:    3  -0.405897898477000E+00   0.241230782133421E+00   0.296563E-01   0.310088E+00   0.134859E+03  -0.136877E-13
   LPB:    4  -0.397462201603551E+00   0.325866258261096E+00   0.406999E-01   0.602366E+00   0.536652E+02  -0.141659E-13
   LPB:    5  -0.391536021323034E+00   0.328695668255191E+00   0.276401E-01   0.103444E+01   0.188968E+03  -0.145050E-13
   LPB:    6  -0.387455686615321E+00   0.148882611208183E+00   0.276051E-01   0.689401E+00   0.498507E+02  -0.125130E-13
   LPB:    7  -0.384883838848222E+00   0.707432873207521E-01   0.328612E-01   0.529487E+00   0.252567E+03  -0.119129E-13
   LPB:    8  -0.383246542836798E+00   0.420138405421188E-01   0.353262E-01   0.592199E+00   0.176929E+03  -0.103548E-13
  Finished solving LPB equations
  A_corr:   -0.301926930561092     
 End minimization
 Ecorr=   1589.02972027460     
 A_corr= -0.301926930561092     
 Ecorr_band=  -1589.33164720516     
 End Solvation calculations
RMM:  11    -0.136737489223E+03    0.80684E-01   -0.49378E-01  4217   0.299E+00    0.266E+00
 Begin Solvation calculations
  rms_SCF =   0.504884694260818      tol =   5.048846942608184E-002
 Begin minimization
 Creating dielectric and ionic cavities
  area:      151.103944280664     
  volume:    693.031605575139     
  Acav:     7.932957074734859E-002
  Solving linear dielectric/ionic screening model
        iter                  A_solv                     rms
   LPB:       -0.576858397898694E+00   0.360449577662196E+01
   LPB:    0  -0.571001797209332E+00   0.290933079690970E+01  -0.190714E-01   0.000000E+00   0.322040E+02  -0.614176E+00
   LPB:    1  -0.463755825918256E+00   0.114698148924849E+01   0.137827E-01   0.000000E+00   0.100481E+03   0.173077E-16
   LPB:    2  -0.449685236029490E+00   0.333219030221898E+00   0.146499E-01   0.123433E+00   0.140185E+03   0.263576E-14
   LPB:    3  -0.444896436733895E+00   0.228559690274614E+00   0.209096E-01   0.238454E+00   0.284096E+03   0.281992E-14
   LPB:    4  -0.443131348990702E+00   0.185561199005001E+00   0.217555E-01   0.354255E+00   0.976154E+02   0.236557E-14
   LPB:    5  -0.441785083306487E+00   0.137524707236184E+00   0.289220E-01   0.573727E+00   0.263570E+03   0.545848E-14
   LPB:    6  -0.440386974428196E+00   0.644045183521187E-01   0.415465E-01   0.722943E+00   0.688357E+02   0.857130E-14
   LPB:    7  -0.439096627480677E+00   0.439454574158622E-01   0.399096E-01   0.960778E+00   0.967852E+02   0.130721E-13
  Finished solving LPB equations
  A_corr:   -0.359767056733329     
 End minimization
 Ecorr=   1564.62252300747     
 A_corr= -0.359767056733329     
 Ecorr_band=  -1564.98229006420     
 End Solvation calculations
RMM:  12    -0.136688670174E+03    0.48819E-01   -0.38730E-01  4198   0.269E+00    0.173E+00
 Begin Solvation calculations
  rms_SCF =   0.504884694260818      tol =   5.048846942608184E-002
 Begin minimization
 Creating dielectric and ionic cavities
  area:      149.706353719835     
  volume:    690.580926817484     
  Acav:     7.859583570291322E-002
  Solving linear dielectric/ionic screening model
        iter                  A_solv                     rms
   LPB:       -0.528911527509328E+00   0.157373745660335E+01
   LPB:    0  -0.528834768051131E+00   0.149899415201474E+01  -0.217948E-02   0.000000E+00   0.323189E+02  -0.704383E-01
   LPB:    1  -0.485747040291279E+00   0.736032537635649E+00   0.148904E-01   0.000000E+00   0.132043E+03  -0.209442E-17
   LPB:    2  -0.480579019331030E+00   0.245818126544990E+00   0.147319E-01   0.121232E+00   0.107500E+03   0.282834E-15
   LPB:    3  -0.478796914645370E+00   0.118132002713938E+00   0.193484E-01   0.262557E+00   0.234670E+03  -0.279106E-15
   LPB:    4  -0.478032860797050E+00   0.130529752584437E+00   0.266877E-01   0.310831E+00   0.874282E+02  -0.107015E-15
   LPB:    5  -0.477246968999644E+00   0.129102257960979E+00   0.316984E-01   0.865989E+00   0.189849E+03   0.176055E-14
   LPB:    6  -0.476329492963312E+00   0.616847397663777E-01   0.397941E-01   0.929930E+00   0.402221E+02   0.407355E-14
   LPB:    7  -0.475656880552877E+00   0.316947571238844E-01   0.350402E-01   0.832575E+00   0.108288E+03   0.806368E-14
  Finished solving LPB equations
  A_corr:   -0.397061044849963     
 End minimization
 Ecorr=   1543.94532358990     
 A_corr= -0.397061044849963     
 Ecorr_band=  -1544.34238463475     
 End Solvation calculations
RMM:  13    -0.136659262263E+03    0.29408E-01   -0.94608E-02  4280   0.135E+00    0.877E-01
 Begin Solvation calculations
  rms_SCF =   0.504884694260818      tol =   5.048846942608184E-002
 Begin minimization
 Creating dielectric and ionic cavities
  area:      149.436947096534     
  volume:    689.460129514133     
  Acav:     7.845439722568055E-002
  Solving linear dielectric/ionic screening model
        iter                  A_solv                     rms
   LPB:       -0.509325788729220E+00   0.837805846611183E+00
   LPB:    0  -0.509277611219981E+00   0.773908063785650E+00  -0.172527E-02   0.000000E+00   0.323714E+02  -0.558493E-01
   LPB:    1  -0.496388470115637E+00   0.285251323812502E+00   0.159753E-01   0.000000E+00   0.124446E+03  -0.192730E-17
   LPB:    2  -0.494924164245945E+00   0.123435830184535E+00   0.166368E-01   0.109090E+00   0.134619E+03   0.144555E-14
   LPB:    3  -0.494509431419181E+00   0.402821069986371E-01   0.199685E-01   0.235973E+00   0.129411E+03   0.167471E-14
   LPB:    4  -0.494297027981605E+00   0.702213033035481E-01   0.320482E-01   0.319106E+00   0.186128E+03   0.200031E-14
   LPB:    5  -0.494085506229333E+00   0.110727124704048E+00   0.300978E-01   0.106038E+01   0.121017E+03   0.220674E-14
   LPB:    6  -0.493776650880772E+00   0.576024761439611E-01   0.338156E-01   0.129963E+01   0.377571E+02   0.241474E-14
   LPB:    7  -0.493505562494910E+00   0.218412616843998E-01   0.344606E-01   0.861290E+00   0.910941E+02   0.195026E-14
  Finished solving LPB equations
  A_corr:   -0.415051165269229     
 End minimization
 Ecorr=   1532.98325988008     
 A_corr= -0.415051165269229     
 Ecorr_band=  -1533.39831104535     
 End Solvation calculations
RMM:  14    -0.136656514901E+03    0.27474E-02   -0.28397E-02  4495   0.513E-01    0.671E-01
 Begin Solvation calculations
  rms_SCF =   0.504884694260818      tol =   5.048846942608184E-002
 Begin minimization
 Creating dielectric and ionic cavities
  area:      149.834109204784     
  volume:    686.370506020426     
  Acav:     7.866290733251166E-002
  Solving linear dielectric/ionic screening model
        iter                  A_solv                     rms
   LPB:       -0.666766172855045E+00   0.257485038487839E+01
   LPB:    0  -0.665304486961148E+00   0.221606870842487E+01  -0.948182E-02   0.000000E+00   0.325163E+02  -0.308313E+00
   LPB:    1  -0.568381976035206E+00   0.104262075372289E+01   0.152371E-01   0.000000E+00   0.126384E+03   0.230250E-16
   LPB:    2  -0.556733681522235E+00   0.344280483529895E+00   0.150463E-01   0.121705E+00   0.102562E+03   0.723170E-14
   LPB:    3  -0.553440866002660E+00   0.178155239300095E+00   0.190158E-01   0.223677E+00   0.208230E+03   0.750022E-14
   LPB:    4  -0.552147886489265E+00   0.169084525674924E+00   0.223273E-01   0.334428E+00   0.116147E+03   0.681645E-14
   LPB:    5  -0.551299764490665E+00   0.124787605136548E+00   0.244541E-01   0.598895E+00   0.241085E+03   0.630676E-14
   LPB:    6  -0.550624095512816E+00   0.469819065942671E-01   0.332192E-01   0.586460E+00   0.737501E+02   0.632903E-14
  Finished solving LPB equations
  A_corr:   -0.471961188180304     
 End minimization
 Ecorr=   1513.39335608008     
 A_corr= -0.471961188180304     
 Ecorr_band=  -1513.86531726826     
 End Solvation calculations
RMM:  15    -0.136664724674E+03   -0.82098E-02   -0.28688E-02  4150   0.492E-01    0.280E-01
 Begin Solvation calculations
  rms_SCF =   0.252486135720267      tol =   2.524861357202674E-002
 Begin minimization
 Creating dielectric and ionic cavities
  area:      150.522566310948     
  volume:    684.790857316629     
  Acav:     7.902434731324780E-002
  Solving linear dielectric/ionic screening model
        iter                  A_solv                     rms
   LPB:       -0.647854545213572E+00   0.174671530271785E+01
   LPB:    0  -0.647302684274019E+00   0.153598883255252E+01  -0.581950E-02   0.000000E+00   0.325903E+02  -0.189659E+00
   LPB:    1  -0.602965685371687E+00   0.853251602105446E+00   0.148590E-01   0.000000E+00   0.129881E+03  -0.507742E-17
   LPB:    2  -0.596804664669189E+00   0.247939772574346E+00   0.143816E-01   0.143572E+00   0.865195E+02  -0.437522E-14
   LPB:    3  -0.594924435948730E+00   0.146914902293596E+00   0.201660E-01   0.217643E+00   0.221481E+03  -0.551064E-14
   LPB:    4  -0.593694478569404E+00   0.157995164703386E+00   0.291244E-01   0.452941E+00   0.819637E+02  -0.589732E-14
   LPB:    5  -0.592581640616785E+00   0.137622068309556E+00   0.296206E-01   0.889623E+00   0.199409E+03  -0.622448E-14
   LPB:    6  -0.591635261220183E+00   0.611796249751876E-01   0.321934E-01   0.782455E+00   0.636033E+02  -0.689754E-14
   LPB:    7  -0.591022638894684E+00   0.349491287943182E-01   0.342269E-01   0.608874E+00   0.268622E+03  -0.729972E-14
   LPB:    8  -0.590630295659423E+00   0.256916539921266E-01   0.355149E-01   0.617205E+00   0.210535E+03  -0.781569E-14
   LPB:    9  -0.590373833057914E+00   0.195474729565875E-01   0.359094E-01   0.646489E+00   0.291023E+03  -0.792024E-14
  Finished solving LPB equations
  A_corr:   -0.511349485744667     
 End minimization
 Ecorr=   1494.01706355171     
 A_corr= -0.511349485744667     
 Ecorr_band=  -1494.52841303745     
 End Solvation calculations
RMM:  16    -0.136668079163E+03   -0.33545E-02   -0.11214E-02  4262   0.323E-01    0.307E-01
 Begin Solvation calculations
  rms_SCF =   0.252486135720267      tol =   2.524861357202674E-002
 Begin minimization
 Creating dielectric and ionic cavities
  area:      150.769213111549     
  volume:    684.420549803738     
  Acav:     7.915383688356337E-002
  Solving linear dielectric/ionic screening model
        iter                  A_solv                     rms
   LPB:       -0.610194977862035E+00   0.816556629491250E+00
   LPB:    0  -0.609845525269266E+00   0.658787860891141E+00  -0.462966E-02   0.000000E+00   0.326077E+02  -0.150962E+00
   LPB:    1  -0.603385829172917E+00   0.204797885276654E+00   0.159023E-01   0.000000E+00   0.948647E+02  -0.768336E-17
   LPB:    2  -0.602572904862367E+00   0.808185947294845E-01   0.158800E-01   0.126022E+00   0.136285E+03   0.580516E-15
   LPB:    3  -0.602329529664061E+00   0.332579409798000E-01   0.233903E-01   0.203256E+00   0.123959E+03   0.105322E-14
   LPB:    4  -0.602218452064220E+00   0.283564644337496E-01   0.275650E-01   0.387282E+00   0.311397E+03   0.819183E-15
   LPB:    5  -0.602145007042573E+00   0.594965808347702E-01   0.331771E-01   0.549358E+00   0.192323E+03   0.120590E-14
   LPB:    6  -0.602065132831811E+00   0.487124013974460E-01   0.276116E-01   0.130675E+01   0.662811E+02   0.143830E-14
   LPB:    7  -0.601945791445545E+00   0.200003125358184E-01   0.384669E-01   0.107248E+01   0.117915E+03   0.184155E-14
  Finished solving LPB equations
  A_corr:   -0.522791954561981     
 End minimization
 Ecorr=   1489.29980032815     
 A_corr= -0.522791954561981     
 Ecorr_band=  -1489.82259228271     
 End Solvation calculations
RMM:  17    -0.136669349869E+03   -0.12707E-02   -0.36981E-03  4520   0.189E-01    0.206E-01
 Begin Solvation calculations
  rms_SCF =   0.252486135720267      tol =   2.524861357202674E-002
 Begin minimization
 Creating dielectric and ionic cavities
  area:      151.007702970516     
  volume:    684.130523415115     
  Acav:     7.927904405952083E-002
  Solving linear dielectric/ionic screening model
        iter                  A_solv                     rms
   LPB:       -0.621554450262879E+00   0.894629528528848E+00
   LPB:    0  -0.621188936404659E+00   0.751591527367483E+00  -0.473387E-02   0.000000E+00   0.326213E+02  -0.154425E+00
   LPB:    1  -0.614483098260690E+00   0.185915927060827E+00   0.158949E-01   0.000000E+00   0.796918E+02   0.498577E-17
   LPB:    2  -0.613688437850134E+00   0.880010654400635E-01   0.148683E-01   0.126685E+00   0.214526E+03   0.232719E-14
   LPB:    3  -0.613492713956524E+00   0.490278013592677E-01   0.196330E-01   0.186525E+00   0.111264E+03   0.261509E-14
   LPB:    4  -0.613419183343112E+00   0.491978185499662E-01   0.220119E-01   0.335084E+00   0.167440E+03   0.243194E-14
   LPB:    5  -0.613357720204367E+00   0.345532485293125E-01   0.275288E-01   0.668370E+00   0.116601E+03   0.235823E-14
   LPB:    6  -0.613287358862499E+00   0.161258414130548E-01   0.362726E-01   0.868816E+00   0.692166E+02   0.230783E-14
  Finished solving LPB equations
  A_corr:   -0.534008314802978     
 End minimization
 Ecorr=   1485.42808163385     
 A_corr= -0.534008314802978     
 Ecorr_band=  -1485.96208994865     
 End Solvation calculations
RMM:  18    -0.136671085794E+03   -0.17359E-02   -0.19286E-03  5053   0.843E-02    0.188E-01
 Begin Solvation calculations
  rms_SCF =   0.252486135720267      tol =   2.524861357202674E-002
 Begin minimization
 Creating dielectric and ionic cavities
  area:      152.049749461948     
  volume:    683.357797269121     
  Acav:     7.982611846752286E-002
  Solving linear dielectric/ionic screening model
        iter                  A_solv                     rms
   LPB:       -0.788013432122679E+00   0.332049467107629E+01
   LPB:    0  -0.783021084899945E+00   0.277933928970015E+01  -0.174854E-01   0.000000E+00   0.326575E+02  -0.571030E+00
   LPB:    1  -0.681145594203305E+00   0.695995444703863E+00   0.160320E-01   0.000000E+00   0.863083E+02   0.152175E-16
   LPB:    2  -0.669663834101466E+00   0.295573416560997E+00   0.154472E-01   0.116970E+00   0.173261E+03  -0.588336E-14
   LPB:    3  -0.666749317190063E+00   0.128155872390911E+00   0.219966E-01   0.178260E+00   0.106547E+03  -0.760319E-14
   LPB:    4  -0.665433084543155E+00   0.131362028708474E+00   0.272151E-01   0.365015E+00   0.329421E+03  -0.794579E-14
   LPB:    5  -0.664680896187735E+00   0.162199339579532E+00   0.278644E-01   0.558154E+00   0.101613E+03  -0.846550E-14
   LPB:    6  -0.664194275968666E+00   0.955074035318189E-01   0.214741E-01   0.839456E+00   0.130275E+03  -0.893275E-14
   LPB:    7  -0.663752063247226E+00   0.366215099470100E-01   0.306841E-01   0.635979E+00   0.174311E+03  -0.917599E-14
   LPB:    8  -0.663437933685622E+00   0.215227418686347E-01   0.359711E-01   0.605952E+00   0.202755E+03  -0.944584E-14
  Finished solving LPB equations
  A_corr:   -0.583611815218099     
 End minimization
 Ecorr=   1469.99737038487     
 A_corr= -0.583611815218099     
 Ecorr_band=  -1470.58098220008     
 End Solvation calculations
RMM:  19    -0.136678431168E+03   -0.73454E-02   -0.76430E-03  4122   0.196E-01    0.192E-01
 Begin Solvation calculations
  rms_SCF =   0.252486135720267      tol =   2.524861357202674E-002
 Begin minimization
 Creating dielectric and ionic cavities
  area:      152.842986026798     
  volume:    683.165909838060     
  Acav:     8.024256766406898E-002
  Solving linear dielectric/ionic screening model
        iter                  A_solv                     rms
   LPB:       -0.786783223332948E+00   0.295448221979554E+01
   LPB:    0  -0.783000219867895E+00   0.253412763566078E+01  -0.152189E-01   0.000000E+00   0.326665E+02  -0.497147E+00
   LPB:    1  -0.715308116221044E+00   0.553038792652232E+00   0.158117E-01   0.000000E+00   0.737895E+02   0.202834E-16
   LPB:    2  -0.707743237595459E+00   0.276064181393990E+00   0.146862E-01   0.120319E+00   0.238404E+03  -0.143784E-13
   LPB:    3  -0.705898458344870E+00   0.157615260156522E+00   0.193997E-01   0.184611E+00   0.109433E+03  -0.165581E-13
   LPB:    4  -0.705123066071874E+00   0.141122001579263E+00   0.215746E-01   0.377944E+00   0.189065E+03  -0.190506E-13
   LPB:    5  -0.704594951811893E+00   0.107897880240744E+00   0.264127E-01   0.556336E+00   0.119317E+03  -0.201030E-13
   LPB:    6  -0.704076812931129E+00   0.490598447383442E-01   0.327934E-01   0.790213E+00   0.903367E+02  -0.208768E-13
   LPB:    7  -0.703619167796711E+00   0.254013790281638E-01   0.378300E-01   0.765656E+00   0.159094E+03  -0.212996E-13
   LPB:    8  -0.703319350473280E+00   0.180170182750511E-01   0.359523E-01   0.689345E+00   0.171986E+03  -0.218231E-13
  Finished solving LPB equations
  A_corr:   -0.623076782809211     
 End minimization
 Ecorr=   1457.60283387148     
 A_corr= -0.623076782809211     
 Ecorr_band=  -1458.22591065429     
 End Solvation calculations
RMM:  20    -0.136681975608E+03   -0.35444E-02   -0.46496E-03  4125   0.143E-01    0.163E-01
 Begin Solvation calculations
  rms_SCF =   0.252486135720267      tol =   2.524861357202674E-002
 Begin minimization
 Creating dielectric and ionic cavities
  area:      152.975168941592     
  volume:    683.183355465811     
  Acav:     8.031196369433591E-002
  Solving linear dielectric/ionic screening model
        iter                  A_solv                     rms
   LPB:       -0.714540998140179E+00   0.731544505349027E+00
   LPB:    0  -0.714344623104555E+00   0.654230535685296E+00  -0.346747E-02   0.000000E+00   0.326657E+02  -0.113267E+00
   LPB:    1  -0.711182232054296E+00   0.154146343069981E+00   0.146180E-01   0.000000E+00   0.635791E+02   0.354970E-17
   LPB:    2  -0.710768432859406E+00   0.624129944574396E-01   0.134812E-01   0.141884E+00   0.264073E+03  -0.885465E-15
   LPB:    3  -0.710654622721519E+00   0.338367272091988E-01   0.197827E-01   0.187428E+00   0.157019E+03  -0.104123E-14
   LPB:    4  -0.710592787616194E+00   0.321425840504121E-01   0.269259E-01   0.399180E+00   0.163841E+03  -0.115188E-14
   LPB:    5  -0.710520793856267E+00   0.489278176838273E-01   0.425031E-01   0.737583E+00   0.145458E+03  -0.127092E-14
   LPB:    6  -0.710394521339302E+00   0.272324597444473E-01   0.426390E-01   0.174835E+01   0.646057E+02  -0.147933E-14
   LPB:    7  -0.710288950332507E+00   0.102788552801656E-01   0.330845E-01   0.107750E+01   0.133437E+03  -0.205004E-14
  Finished solving LPB equations
  A_corr:   -0.629976986638171     
 End minimization
 Ecorr=   1454.46604694014     
 A_corr= -0.629976986638171     
 Ecorr_band=  -1455.09602392678     
 End Solvation calculations
RMM:  21    -0.136682150595E+03   -0.17499E-03   -0.51333E-04  4654   0.529E-02    0.155E-01
 Begin Solvation calculations
  rms_SCF =   0.252486135720267      tol =   2.524861357202674E-002
 Begin minimization
 Creating dielectric and ionic cavities
  area:      153.495319581789     
  volume:    683.306251284086     
  Acav:     8.058504278043897E-002
  Solving linear dielectric/ionic screening model
        iter                  A_solv                     rms
   LPB:       -0.803618207278157E+00   0.312909972428613E+01
   LPB:    0  -0.800002899380185E+00   0.281203454772073E+01  -0.148792E-01   0.000000E+00   0.326599E+02  -0.485954E+00
   LPB:    1  -0.748305856191249E+00   0.651086095221061E+00   0.141221E-01   0.000000E+00   0.608433E+02  -0.283615E-17
   LPB:    2  -0.741574811329271E+00   0.227522959423905E+00   0.129513E-01   0.141971E+00   0.252441E+03   0.737418E-14
   LPB:    3  -0.740165431421954E+00   0.989067321488629E-01   0.181436E-01   0.149464E+00   0.164845E+03   0.851569E-14
   LPB:    4  -0.739671468944922E+00   0.884372978609355E-01   0.232295E-01   0.273748E+00   0.149876E+03   0.896192E-14
   LPB:    5  -0.739425223304994E+00   0.605567193114471E-01   0.249607E-01   0.463935E+00   0.141523E+03   0.967130E-14
   LPB:    6  -0.739265135034402E+00   0.227286213318434E-01   0.285057E-01   0.569268E+00   0.123100E+03   0.966208E-14
  Finished solving LPB equations
  A_corr:   -0.658680092253963     
 End minimization
 Ecorr=   1448.00600429805     
 A_corr= -0.658680092253963     
 Ecorr_band=  -1448.66468439031     
 End Solvation calculations
RMM:  22    -0.136683673260E+03   -0.15227E-02   -0.47371E-03  4069   0.118E-01    0.904E-02
 Begin Solvation calculations
  rms_SCF =   3.064239894107469E-002 tol =   3.064239894107469E-003
 Begin minimization
 Creating dielectric and ionic cavities
  area:      153.387286682513     
  volume:    683.490723476405     
  Acav:     8.052832550831943E-002
  Solving linear dielectric/ionic screening model
        iter                  A_solv                     rms
   LPB:       -0.734238922627424E+00   0.253845593142446E+00
   LPB:    0  -0.734237265746147E+00   0.247175642327583E+00   0.318574E-03   0.000000E+00   0.326513E+02   0.104019E-01
   LPB:    1  -0.733393880016353E+00   0.946466883743487E-01   0.126329E-01   0.000000E+00   0.160366E+03   0.302172E-18
   LPB:    2  -0.733292114199817E+00   0.352784097093706E-01   0.153415E-01   0.993595E-01   0.141953E+03   0.318287E-15
   LPB:    3  -0.733239224416280E+00   0.177372571829376E-01   0.228526E-01   0.348902E+00   0.429369E+03   0.382171E-15
   LPB:    4  -0.733212759311250E+00   0.255018218610208E-01   0.276013E-01   0.414292E+00   0.433929E+03   0.417160E-15
   LPB:    5  -0.733190595113816E+00   0.218933909583393E-01   0.319128E-01   0.724341E+00   0.788957E+02   0.406046E-15
   LPB:    6  -0.733160408473896E+00   0.152002697250607E-01   0.403479E-01   0.107722E+01   0.147869E+03   0.327035E-15
   LPB:    7  -0.733133289093730E+00   0.721375247033279E-02   0.367228E-01   0.987077E+00   0.773727E+02   0.287972E-15
   LPB:    8  -0.733116338784672E+00   0.352711047395298E-02   0.343122E-01   0.668936E+00   0.103462E+03   0.199984E-15
   LPB:    9  -0.733108223850543E+00   0.274846856006074E-02   0.333131E-01   0.493108E+00   0.214551E+03   0.135157E-15
  Finished solving LPB equations
  A_corr:   -0.652579898342223     
 End minimization
 Ecorr=   1447.94002853287     
 A_corr= -0.652579898342223     
 Ecorr_band=  -1448.59260843121     
 End Solvation calculations
RMM:  23    -0.136683473037E+03    0.20022E-03   -0.87001E-04  4095   0.677E-02    0.653E-02
 Begin Solvation calculations
  rms_SCF =   3.064239894107469E-002 tol =   3.064239894107469E-003
 Begin minimization
 Creating dielectric and ionic cavities
  area:      153.548205455969     
  volume:    683.787985893125     
  Acav:     8.061280786438378E-002
  Solving linear dielectric/ionic screening model
        iter                  A_solv                     rms
   LPB:       -0.763600501879735E+00   0.193684406799971E+01
   LPB:    0  -0.762505380891048E+00   0.180088469655365E+01  -0.819198E-02   0.000000E+00   0.326373E+02  -0.267364E+00
   LPB:    1  -0.745207172913725E+00   0.351672449149846E+00   0.127923E-01   0.000000E+00   0.622957E+02   0.194964E-16
   LPB:    2  -0.743221141156499E+00   0.118785132462550E+00   0.125446E-01   0.117079E+00   0.246633E+03   0.160787E-14
   LPB:    3  -0.742847272880446E+00   0.363867302666687E-01   0.177172E-01   0.133289E+00   0.155596E+03   0.181905E-14
   LPB:    4  -0.742745249509653E+00   0.339304297704678E-01   0.242284E-01   0.199549E+00   0.162153E+03   0.202187E-14
   LPB:    5  -0.742706153658807E+00   0.252735957645942E-01   0.234961E-01   0.395148E+00   0.154315E+03   0.204239E-14
   LPB:    6  -0.742683777259439E+00   0.101562200593604E-01   0.261313E-01   0.514629E+00   0.120840E+03   0.183519E-14
   LPB:    7  -0.742669574253831E+00   0.499500203268025E-02   0.322327E-01   0.514582E+00   0.274801E+03   0.149217E-14
   LPB:    8  -0.742659290457467E+00   0.294868417828298E-02   0.390614E-01   0.597479E+00   0.185810E+03   0.123077E-14
  Finished solving LPB equations
  A_corr:   -0.662046482593083     
 End minimization
 Ecorr=   1445.28491970230     
 A_corr= -0.662046482593083     
 Ecorr_band=  -1445.94696618489     
 End Solvation calculations
RMM:  24    -0.136684396565E+03   -0.92353E-03   -0.64273E-04  4105   0.556E-02    0.509E-02
 Begin Solvation calculations
  rms_SCF =   2.109109699305757E-002 tol =   2.109109699305757E-003
 Begin minimization
 Creating dielectric and ionic cavities
  area:      153.523573452290     
  volume:    683.874637134391     
  Acav:     8.059987606245228E-002
  Solving linear dielectric/ionic screening model
        iter                  A_solv                     rms
   LPB:       -0.741855705484576E+00   0.305595326369219E+00
   LPB:    0  -0.741852246554954E+00   0.303329772810722E+00  -0.460422E-03   0.000000E+00   0.326333E+02  -0.150251E-01
   LPB:    1  -0.741304954673152E+00   0.512901438259458E-01   0.113385E-01   0.000000E+00   0.917581E+02  -0.479865E-19
   LPB:    2  -0.741269869220193E+00   0.129330701443460E-01   0.111797E-01   0.650185E-01   0.310084E+03  -0.521265E-16
   LPB:    3  -0.741262483975473E+00   0.453481724312947E-02   0.224327E-01   0.104902E+00   0.209286E+03  -0.537128E-16
   LPB:    4  -0.741258332975076E+00   0.262417825661027E-02   0.372541E-01   0.338450E+00   0.533422E+03  -0.529621E-16
   LPB:    5  -0.741254237623024E+00   0.320146816278974E-02   0.471819E-01   0.778999E+00   0.453884E+03  -0.465234E-16
   LPB:    6  -0.741249995610126E+00   0.502673472732759E-02   0.448138E-01   0.109055E+01   0.255286E+03  -0.492238E-16
   LPB:    7  -0.741246858790188E+00   0.770772487736214E-02   0.358181E-01   0.925182E+00   0.842423E+02  -0.641331E-16
   LPB:    8  -0.741244618894507E+00   0.581930118978240E-02   0.276040E-01   0.926551E+00   0.112592E+03  -0.962969E-16
   LPB:    9  -0.741243113429641E+00   0.211752203821238E-02   0.276927E-01   0.669961E+00   0.901177E+02  -0.188168E-15
   LPB:   10  -0.741242323274510E+00   0.101350918061173E-02   0.299960E-01   0.484555E+00   0.207182E+03  -0.198881E-15
  Finished solving LPB equations
  A_corr:   -0.660642447212058     
 End minimization
 Ecorr=   1444.82225714366     
 A_corr= -0.660642447212058     
 Ecorr_band=  -1445.48289959087     
 End Solvation calculations
RMM:  25    -0.136684601909E+03   -0.20534E-03   -0.93158E-05  3418   0.269E-02    0.342E-02
 Begin Solvation calculations
  rms_SCF =   2.109109699305757E-002 tol =   2.109109699305757E-003
 Begin minimization
 Creating dielectric and ionic cavities
  area:      153.577229524125     
  volume:    683.927477941692     
  Acav:     8.062804550016558E-002
  Solving linear dielectric/ionic screening model
        iter                  A_solv                     rms
   LPB:       -0.747187332178037E+00   0.760201519976673E+00
   LPB:    0  -0.747107150850234E+00   0.729047392010227E+00  -0.221686E-02   0.000000E+00   0.326308E+02  -0.723378E-01
   LPB:    1  -0.744633943264445E+00   0.124265248951515E+00   0.116971E-01   0.000000E+00   0.652731E+02   0.273173E-17
   LPB:    2  -0.744375207494107E+00   0.399792305171592E-01   0.123711E-01   0.989154E-01   0.235251E+03  -0.348755E-15
   LPB:    3  -0.744331109752757E+00   0.116838379921874E-01   0.182245E-01   0.115695E+00   0.140596E+03  -0.410685E-15
   LPB:    4  -0.744319420758165E+00   0.106634324102434E-01   0.260606E-01   0.185367E+00   0.130648E+03  -0.446610E-15
   LPB:    5  -0.744314453340619E+00   0.954263087101760E-02   0.252419E-01   0.438749E+00   0.182624E+03  -0.553163E-15
   LPB:    6  -0.744311348043461E+00   0.421151969768607E-02   0.267720E-01   0.589404E+00   0.941175E+02  -0.597823E-15
   LPB:    7  -0.744309110043112E+00   0.199949895617141E-02   0.327296E-01   0.589518E+00   0.247744E+03  -0.669004E-15
  Finished solving LPB equations
  A_corr:   -0.663681064542946     
 End minimization
 Ecorr=   1443.46621219838     
 A_corr= -0.663681064542946     
 Ecorr_band=  -1444.12989326292     
 End Solvation calculations
RMM:  26    -0.136684811966E+03   -0.21006E-03   -0.13031E-04  3600   0.227E-02    0.264E-02
 Begin Solvation calculations
  rms_SCF =   2.109109699305757E-002 tol =   2.109109699305757E-003
 Begin minimization
 Creating dielectric and ionic cavities
  area:      153.598363807008     
  volume:    683.925767472824     
  Acav:     8.063914099867933E-002
  Solving linear dielectric/ionic screening model
        iter                  A_solv                     rms
   LPB:       -0.746993803400992E+00   0.525884313726304E+00
   LPB:    0  -0.746969535666906E+00   0.511206199170499E+00  -0.121959E-02   0.000000E+00   0.326309E+02  -0.397964E-01
   LPB:    1  -0.745903216322839E+00   0.760538699296808E-01   0.108116E-01   0.000000E+00   0.675304E+02  -0.268568E-17
   LPB:    2  -0.745797752762996E+00   0.222311208765434E-01   0.124529E-01   0.858688E-01   0.226642E+03  -0.389797E-15
   LPB:    3  -0.745781958034924E+00   0.719101132293080E-02   0.191258E-01   0.975123E-01   0.136389E+03  -0.428046E-15
   LPB:    4  -0.745777299074513E+00   0.729250993980104E-02   0.289934E-01   0.194580E+00   0.101454E+03  -0.432915E-15
   LPB:    5  -0.745773886130843E+00   0.901760597248963E-02   0.331051E-01   0.641572E+00   0.155345E+03  -0.490693E-15
   LPB:    6  -0.745770519461151E+00   0.499064471383241E-02   0.320513E-01   0.101887E+01   0.613674E+02  -0.402058E-15
   LPB:    7  -0.745767767489689E+00   0.200696549516709E-02   0.327013E-01   0.801169E+00   0.164166E+03  -0.326724E-15
  Finished solving LPB equations
  A_corr:   -0.665128626491010     
 End minimization
 Ecorr=   1442.43306368985     
 A_corr= -0.665128626491010     
 Ecorr_band=  -1443.09819231635     
 End Solvation calculations
RMM:  27    -0.136684873901E+03   -0.61935E-04   -0.52352E-05  2703   0.211E-02    0.216E-02
 Begin Solvation calculations
  rms_SCF =   2.109109699305757E-002 tol =   2.109109699305757E-003
 Begin minimization
 Creating dielectric and ionic cavities
  area:      153.597690527257     
  volume:    683.881704609291     
  Acav:     8.063878752680997E-002
  Solving linear dielectric/ionic screening model
        iter                  A_solv                     rms
   LPB:       -0.746641224639623E+00   0.405379495141879E+00
   LPB:    0  -0.746635085535230E+00   0.399555987832571E+00  -0.613394E-03   0.000000E+00   0.326329E+02  -0.200168E-01
   LPB:    1  -0.746011182260169E+00   0.471700981596595E-01   0.992688E-02   0.000000E+00   0.772962E+02   0.408491E-18
   LPB:    2  -0.745967381505422E+00   0.113007373733019E-01   0.119155E-01   0.584875E-01   0.278130E+03  -0.172916E-17
   LPB:    3  -0.745962734107154E+00   0.409141092583080E-02   0.198504E-01   0.636904E-01   0.154007E+03   0.122869E-16
   LPB:    4  -0.745961350939722E+00   0.411034986657302E-02   0.304029E-01   0.194320E+00   0.980909E+02   0.321665E-17
   LPB:    5  -0.745959797757751E+00   0.651250464259062E-02   0.429204E-01   0.795425E+00   0.215695E+03   0.924793E-17
   LPB:    6  -0.745957691727302E+00   0.427793830132729E-02   0.364030E-01   0.159870E+01   0.527578E+02  -0.571376E-16
   LPB:    7  -0.745955941417128E+00   0.145738169722861E-02   0.312976E-01   0.966668E+00   0.137094E+03  -0.183197E-15
  Finished solving LPB equations
  A_corr:   -0.665317153890318     
 End minimization
 Ecorr=   1441.68014320301     
 A_corr= -0.665317153890318     
 Ecorr_band=  -1442.34546035690     
 End Solvation calculations
RMM:  28    -0.136684919636E+03   -0.45735E-04   -0.49957E-05  2742   0.219E-02    0.112E-02
 Begin Solvation calculations
  rms_SCF =   1.373974484450205E-002 tol =   1.373974484450205E-003
 Begin minimization
 Creating dielectric and ionic cavities
  area:      153.581288639519     
  volume:    683.818091631127     
  Acav:     8.063017653574732E-002
  Solving linear dielectric/ionic screening model
        iter                  A_solv                     rms
   LPB:       -0.744806374567303E+00   0.101823749407476E+00
   LPB:    0  -0.744802586593195E+00   0.948407793471778E-01   0.481804E-03   0.000000E+00   0.326359E+02   0.157241E-01
   LPB:    1  -0.744680553764027E+00   0.117648241133575E-01   0.166213E-01   0.000000E+00   0.963454E+02  -0.661623E-18
   LPB:    2  -0.744670056083704E+00   0.429004283594249E-02   0.189441E-01   0.754759E-01   0.208269E+03   0.384701E-16
   LPB:    3  -0.744667470415440E+00   0.431566858980744E-02   0.252629E-01   0.184701E+00   0.201959E+03   0.133934E-16
   LPB:    4  -0.744666529107638E+00   0.405598767083472E-02   0.243557E-01   0.377608E+00   0.206367E+03   0.469907E-17
   LPB:    5  -0.744666014927247E+00   0.264917637940610E-02   0.249594E-01   0.533027E+00   0.116265E+03  -0.363697E-16
   LPB:    6  -0.744665670735546E+00   0.261569331130898E-02   0.286860E-01   0.582438E+00   0.417648E+03  -0.579393E-16
   LPB:    7  -0.744665467827227E+00   0.256668603423440E-02   0.248666E-01   0.680069E+00   0.150047E+03  -0.873530E-16
   LPB:    8  -0.744665320352116E+00   0.117974354959704E-02   0.231026E-01   0.782302E+00   0.313099E+03  -0.104927E-15
  Finished solving LPB equations
  A_corr:   -0.664035143816369     
 End minimization
 Ecorr=   1441.85991241767     
 A_corr= -0.664035143816369     
 Ecorr_band=  -1442.52394756149     
 End Solvation calculations
RMM:  29    -0.136684979184E+03   -0.59548E-04   -0.27964E-05  2565   0.156E-02    0.138E-02
 Begin Solvation calculations
  rms_SCF =   1.373974484450205E-002 tol =   1.373974484450205E-003
 Begin minimization
 Creating dielectric and ionic cavities
  area:      153.582664484233     
  volume:    683.780578759823     
  Acav:     8.063089885422256E-002
  Solving linear dielectric/ionic screening model
        iter                  A_solv                     rms
   LPB:       -0.744579802641002E+00   0.362650105505188E-01
   LPB:    0  -0.744579797156719E+00   0.364261094702628E-01   0.183322E-04   0.000000E+00   0.326377E+02   0.598321E-03
   LPB:    1  -0.744563764566447E+00   0.855516630365984E-02   0.148949E-01   0.000000E+00   0.106189E+03   0.601214E-20
   LPB:    2  -0.744562489891013E+00   0.310563608675956E-02   0.168509E-01   0.702768E-01   0.793380E+02  -0.395269E-17
   LPB:    3  -0.744562179390764E+00   0.118604144340741E-02   0.197199E-01   0.208152E+00   0.254428E+03  -0.926689E-17
   LPB:    4  -0.744562043143032E+00   0.654294380323795E-03   0.275593E-01   0.313981E+00   0.306261E+03  -0.746206E-17
  Finished solving LPB equations
  A_corr:   -0.663931144288809     
 End minimization
 Ecorr=   1441.85007950713     
 A_corr= -0.663931144288809     
 Ecorr_band=  -1442.51401065142     
 End Solvation calculations
RMM:  30    -0.136684999128E+03   -0.19944E-04   -0.11421E-05  2421   0.127E-02    0.112E-02
 Begin Solvation calculations
  rms_SCF =   1.373974484450205E-002 tol =   1.373974484450205E-003
 Begin minimization
 Creating dielectric and ionic cavities
  area:      153.593774068975     
  volume:    683.743135905635     
  Acav:     8.063673138621212E-002
  Solving linear dielectric/ionic screening model
        iter                  A_solv                     rms
   LPB:       -0.745079980699640E+00   0.981003301179076E-01
   LPB:    0  -0.745074471494629E+00   0.797622835117972E-01  -0.581016E-03   0.000000E+00   0.326394E+02  -0.189640E-01
   LPB:    1  -0.745045716166566E+00   0.106120950948358E-01   0.948957E-02   0.000000E+00   0.820553E+02   0.129079E-17
   LPB:    2  -0.745043746299242E+00   0.399344988054226E-02   0.143167E-01   0.454071E-01   0.144053E+03   0.476933E-15
   LPB:    3  -0.745043347444236E+00   0.217359397091802E-02   0.179509E-01   0.161486E+00   0.218132E+03   0.530435E-15
   LPB:    4  -0.745043167054287E+00   0.125652982237585E-02   0.258893E-01   0.313590E+00   0.160531E+03   0.526814E-15
  Finished solving LPB equations
  A_corr:   -0.664406435668075     
 End minimization
 Ecorr=   1441.69745938701     
 A_corr= -0.664406435668075     
 Ecorr_band=  -1442.36186582268     
 End Solvation calculations
RMM:  31    -0.136685013478E+03   -0.14349E-04   -0.72251E-06  2392   0.768E-03    0.448E-03
 Begin Solvation calculations
  rms_SCF =   6.518693132267226E-003 tol =   6.518693132267226E-004
 Begin minimization
 Creating dielectric and ionic cavities
  area:      153.595998293191     
  volume:    683.732328807111     
  Acav:     8.063789910392513E-002
  Solving linear dielectric/ionic screening model
        iter                  A_solv                     rms
   LPB:       -0.745178934073851E+00   0.680640092128893E-01
   LPB:    0  -0.745176511584904E+00   0.572431788363470E-01  -0.385275E-03   0.000000E+00   0.326399E+02  -0.125754E-01
   LPB:    1  -0.745162704619525E+00   0.654796012294657E-02   0.895667E-02   0.000000E+00   0.895852E+02  -0.252211E-18
   LPB:    2  -0.745162144480510E+00   0.169703295958251E-02   0.134668E-01   0.269822E-01   0.114111E+03  -0.630772E-16
   LPB:    3  -0.745161971026517E+00   0.169131611947229E-02   0.255390E-01   0.163287E+00   0.310460E+03  -0.456187E-16
   LPB:    4  -0.745161811514500E+00   0.140855264089278E-02   0.330461E-01   0.710710E+00   0.103820E+03  -0.344145E-16
   LPB:    5  -0.745161684061399E+00   0.699905437341261E-03   0.308408E-01   0.856152E+00   0.235730E+03  -0.349768E-16
   LPB:    6  -0.745161581564455E+00   0.485762080682135E-03   0.395953E-01   0.626386E+00   0.268477E+03  -0.364232E-16
  Finished solving LPB equations
  A_corr:   -0.664523682460529     
 End minimization
 Ecorr=   1441.60630047787     
 A_corr= -0.664523682460529     
 Ecorr_band=  -1442.27082416033     
 End Solvation calculations
RMM:  32    -0.136685025798E+03   -0.12320E-04   -0.43554E-06  2362   0.792E-03    0.502E-03
 Begin Solvation calculations
  rms_SCF =   3.903201822599791E-003 tol =   3.903201822599791E-004
 Begin minimization
 Creating dielectric and ionic cavities
  area:      153.594354353037     
  volume:    683.727955801480     
  Acav:     8.063703603534433E-002
  Solving linear dielectric/ionic screening model
        iter                  A_solv                     rms
   LPB:       -0.745035450676866E+00   0.161727159025383E-01
   LPB:    0  -0.745035314100482E+00   0.133036407710082E-01  -0.914801E-04   0.000000E+00   0.326401E+02  -0.298592E-02
   LPB:    1  -0.745032466679745E+00   0.819410586164115E-02   0.129993E-01   0.000000E+00   0.152477E+03   0.119776E-18
   LPB:    2  -0.745032063778626E+00   0.202128666399999E-02   0.140633E-01   0.130791E+00   0.551004E+02   0.403814E-16
   LPB:    3  -0.745031966998880E+00   0.130499667544220E-02   0.197773E-01   0.170808E+00   0.168718E+03   0.617943E-16
   LPB:    4  -0.745031918410998E+00   0.827345785014475E-03   0.242714E-01   0.409086E+00   0.147508E+03   0.676636E-16
   LPB:    5  -0.745031869097161E+00   0.468854187425158E-03   0.343053E-01   0.718083E+00   0.214578E+03   0.740516E-16
   LPB:    6  -0.745031815631953E+00   0.416764509498988E-03   0.419148E-01   0.887352E+00   0.196449E+03   0.747102E-16
   LPB:    7  -0.745031771785216E+00   0.374185801183980E-03   0.365115E-01   0.941465E+00   0.349609E+03   0.760562E-16
  Finished solving LPB equations
  A_corr:   -0.664394735749871     
 End minimization
 Ecorr=   1441.60877855580     
 A_corr= -0.664394735749871     
 Ecorr_band=  -1442.27317329155     
 End Solvation calculations
RMM:  33    -0.136685032976E+03   -0.71778E-05   -0.23690E-06  2337   0.560E-03
 Begin Solvation calculations
  rms_SCF =   3.903201822599791E-003 tol =   3.903201822599791E-004
 Begin minimization
 Creating dielectric and ionic cavities
  area:      153.593455885209     
  volume:    683.725456997081     
  Acav:     8.063656433973498E-002
  Solving linear dielectric/ionic screening model
        iter                  A_solv                     rms
   LPB:       -0.744948715004321E+00   0.467230840817575E-01
   LPB:    0  -0.744947077862789E+00   0.340878995275362E-01  -0.316724E-03   0.000000E+00   0.326403E+02  -0.103380E-01
   LPB:    1  -0.744936110294212E+00   0.140003294512854E-01   0.108810E-01   0.000000E+00   0.110305E+03  -0.200024E-18
   LPB:    2  -0.744934833592295E+00   0.351636031826499E-02   0.149022E-01   0.849958E-01   0.622967E+02  -0.552392E-16
   LPB:    3  -0.744934581802992E+00   0.198183194008677E-02   0.177317E-01   0.165748E+00   0.159507E+03  -0.688703E-16
   LPB:    4  -0.744934486899642E+00   0.628202682316268E-03   0.199245E-01   0.335435E+00   0.177874E+03  -0.681427E-16
   LPB:    5  -0.744934427537826E+00   0.395748571224158E-03   0.324874E-01   0.383617E+00   0.342115E+03  -0.665823E-16
   LPB:    6  -0.744934383717852E+00   0.315599029344132E-03   0.393738E-01   0.609077E+00   0.186824E+03  -0.659068E-16
  Finished solving LPB equations
  A_corr:   -0.664297819378117     
 End minimization
 Ecorr=   1441.54067668534     
 A_corr= -0.664297819378117     
 Ecorr_band=  -1442.20497450472     
 End Solvation calculations
   1 F= -.13668503E+03 E0= -.13668245E+03  d E =-.136685E+03
quench:  g(F)=  0.000E+00 g(S)=  0.000E+00 dE (1.order)= 0.000E+00
 bond charge predicted
       N       E                     dE             d eps       ncg     rms          rms(c)
 Begin Solvation calculations
  rms_SCF =   3.903201822599791E-003 tol =   3.903201822599791E-004
 Begin minimization
 Creating dielectric and ionic cavities
  area:      153.836110116744     
  volume:    683.742998816301     
  Acav:     8.076395781129043E-002
  Solving linear dielectric/ionic screening model
        iter                  A_solv                     rms
   LPB:       -0.764278472638604E+00   0.133208166744472E-01
   LPB:    0  -0.764278472628790E+00   0.133226198080623E-01  -0.775467E-06   0.000000E+00   0.326394E+02  -0.253108E-04
   LPB:    1  -0.748473709407862E+00   0.496473938180533E-02   0.155240E-01   0.000000E+00   0.738884E+06   0.750963E-21
   LPB:    2  -0.747027857615397E+00   0.506175729728044E-02   0.265989E-01   0.533919E-01   0.155035E+06   0.339533E-17
   LPB:    3  -0.746570045146734E+00   0.865363810479566E-02   0.326641E-01   0.257843E+00   0.314148E+05   0.194945E-16
   LPB:    4  -0.746375644279808E+00   0.241707011484244E-01   0.350977E-01   0.395187E+00   0.564099E+04   0.804101E-17
   LPB:    5  -0.746288735892654E+00   0.520490754744333E-01   0.312377E-01   0.502301E+00   0.380521E+03   0.307349E-16
   LPB:    6  -0.746245367695593E+00   0.328536613095112E-01   0.191734E-01   0.812998E+00   0.183094E+03   0.547447E-16
   LPB:    7  -0.746205787124950E+00   0.132185311761134E-01   0.294102E-01   0.594993E+00   0.610740E+03   0.277867E-18
   LPB:    8  -0.746181257383298E+00   0.192650992910797E-01   0.339854E-01   0.536310E+00   0.365545E+03  -0.524331E-16
   LPB:    9  -0.746167599579879E+00   0.160038771830837E-01   0.251141E-01   0.753463E+00   0.197750E+03  -0.836136E-16
   LPB:   10  -0.746156439355378E+00   0.551461523473549E-02   0.297055E-01   0.690834E+00   0.301777E+03  -0.290454E-15
   LPB:   11  -0.746148480069158E+00   0.218694268982018E-02   0.382496E-01   0.553874E+00   0.299871E+04  -0.307398E-15
   LPB:   12  -0.746143216683946E+00   0.211993894217233E-02   0.402693E-01   0.628123E+00   0.226767E+04  -0.371231E-15
   LPB:   13  -0.746139734308876E+00   0.254344053656789E-02   0.380052E-01   0.701036E+00   0.203284E+04  -0.409843E-15
   LPB:   14  -0.746137273638961E+00   0.230115503564273E-02   0.360376E-01   0.745186E+00   0.127467E+04  -0.436178E-15
   LPB:   15  -0.746135471789404E+00   0.139003072491872E-02   0.351165E-01   0.751468E+00   0.176020E+04  -0.444354E-15
   LPB:   16  -0.746134070147868E+00   0.106462501982608E-02   0.412281E-01   0.662577E+00   0.231561E+04  -0.450169E-15
   LPB:   17  -0.746133010809551E+00   0.115044831829266E-02   0.399973E-01   0.779040E+00   0.292829E+04  -0.455713E-15
   LPB:   18  -0.746132240680139E+00   0.123277446027746E-02   0.382197E-01   0.760804E+00   0.159836E+04  -0.459604E-15
   LPB:   19  -0.746131658020965E+00   0.990118043918631E-03   0.368305E-01   0.785110E+00   0.170600E+04  -0.463926E-15
   LPB:   20  -0.746131160884959E+00   0.603654872383517E-03   0.399295E-01   0.787000E+00   0.237316E+04  -0.467984E-15
   LPB:   21  -0.746130750499937E+00   0.433228225710380E-03   0.430778E-01   0.765168E+00   0.420617E+04  -0.471241E-15
   LPB:   22  -0.746130429785804E+00   0.436542516738816E-03   0.426453E-01   0.789422E+00   0.544544E+04  -0.473593E-15
   LPB:   23  -0.746130181017688E+00   0.505413476779198E-03   0.417752E-01   0.791825E+00   0.303221E+04  -0.473930E-15
   LPB:   24  -0.746129985524524E+00   0.513759249437531E-03   0.407607E-01   0.805404E+00   0.219654E+04  -0.470350E-15
   LPB:   25  -0.746129834306713E+00   0.436737887533182E-03   0.391769E-01   0.804791E+00   0.198236E+04  -0.471856E-15
   LPB:   26  -0.746129712984586E+00   0.305157562835806E-03   0.402003E-01   0.781875E+00   0.214508E+04  -0.473433E-15
  Finished solving LPB equations
  A_corr:   -0.665365755173295     
 End minimization
 Ecorr=   1441.21075968029     
 A_corr= -0.665365755173295     
 Ecorr_band=  -1441.87612543547     
 End Solvation calculations
DAV:   1    -0.136692408000E+03   -0.73822E-02   -0.13990E+00  4248   0.211E+00    0.506E-01
 Begin Solvation calculations
  rms_SCF =   3.903201822599791E-003 tol =   3.903201822599791E-004
 Begin minimization
 Creating dielectric and ionic cavities
  area:      153.661219420445     
  volume:    683.502994183364     
  Acav:     8.067214019573378E-002
  Solving linear dielectric/ionic screening model
        iter                  A_solv                     rms
   LPB:       -0.758051148433732E+00   0.907646707379152E+00
   LPB:    0  -0.757567404101492E+00   0.799963981202996E+00  -0.544348E-02   0.000000E+00   0.326507E+02  -0.177733E+00
   LPB:    1  -0.754325928636619E+00   0.166112958638190E+00   0.108502E-01   0.000000E+00   0.821411E+02  -0.785152E-17
   LPB:    2  -0.753842461159491E+00   0.318522968810869E-01   0.142370E-01   0.113669E+00   0.271256E+03  -0.650046E-15
   LPB:    3  -0.753714786016320E+00   0.278350126840901E-01   0.252255E-01   0.149045E+00   0.546276E+03  -0.801086E-15
   LPB:    4  -0.753675347683391E+00   0.259898734039463E-01   0.229677E-01   0.339262E+00   0.159311E+03  -0.934379E-15
   LPB:    5  -0.753653780780689E+00   0.121676508826600E-01   0.239706E-01   0.523971E+00   0.240900E+03  -0.106191E-14
   LPB:    6  -0.753641680338814E+00   0.532725060451014E-02   0.310919E-01   0.432560E+00   0.299554E+03  -0.111858E-14
   LPB:    7  -0.753635078868921E+00   0.315463955829531E-02   0.326136E-01   0.520100E+00   0.781177E+03  -0.988343E-15
   LPB:    8  -0.753631222121685E+00   0.203246130648844E-02   0.338262E-01   0.563283E+00   0.691305E+03  -0.928894E-15
   LPB:    9  -0.753628886437786E+00   0.132493913890322E-02   0.356742E-01   0.574237E+00   0.840721E+03  -0.913425E-15
   LPB:   10  -0.753627456905291E+00   0.105230235387510E-02   0.367853E-01   0.593554E+00   0.983503E+03  -0.903388E-15
   LPB:   11  -0.753626575955069E+00   0.974586055810062E-03   0.365109E-01   0.620881E+00   0.906479E+03  -0.896907E-15
   LPB:   12  -0.753626028416645E+00   0.895321941233944E-03   0.353657E-01   0.641659E+00   0.919444E+03  -0.893439E-15
   LPB:   13  -0.753625676639781E+00   0.746044438759419E-03   0.348465E-01   0.652043E+00   0.927681E+03  -0.891148E-15
   LPB:   14  -0.753625446085496E+00   0.554798428824846E-03   0.349981E-01   0.652559E+00   0.894801E+03  -0.889689E-15
   LPB:   15  -0.753625292321842E+00   0.401636407874585E-03   0.361503E-01   0.645675E+00   0.114322E+04  -0.887916E-15
   LPB:   16  -0.753625188779184E+00   0.282976051289999E-03   0.369697E-01   0.658463E+00   0.117163E+04  -0.886753E-15
  Finished solving LPB equations
  A_corr:   -0.672953048583451     
 End minimization
 Ecorr=   1440.60551496467     
 A_corr= -0.672953048583451     
 Ecorr_band=  -1441.27846801325     
 End Solvation calculations
RMM:   2    -0.136706589299E+03   -0.14181E-01   -0.13949E-01  5772   0.679E-01    0.731E-01
 Begin Solvation calculations
  rms_SCF =   3.903201822599791E-003 tol =   3.903201822599791E-004
 Begin minimization
 Creating dielectric and ionic cavities
  area:      153.647588228819     
  volume:    683.539874941395     
  Acav:     8.066498382013008E-002
  Solving linear dielectric/ionic screening model
        iter                  A_solv                     rms
   LPB:       -0.754599577481856E+00   0.517640164380566E+00
   LPB:    0  -0.754598670151248E+00   0.517308132411207E+00  -0.235756E-03   0.000000E+00   0.326490E+02  -0.769719E-02
   LPB:    1  -0.753793659190790E+00   0.546019539086919E-01   0.907131E-02   0.000000E+00   0.730900E+02   0.118331E-18
   LPB:    2  -0.753700397556874E+00   0.108375153150716E-01   0.175503E-01   0.598807E-01   0.133852E+03   0.203258E-16
   LPB:    3  -0.753687272125372E+00   0.777832927219367E-02   0.242023E-01   0.102056E+00   0.220145E+03   0.242453E-16
   LPB:    4  -0.753682317280406E+00   0.601453940237189E-02   0.281230E-01   0.324871E+00   0.246846E+03   0.102902E-15
   LPB:    5  -0.753679984722828E+00   0.551979101958984E-02   0.273072E-01   0.484826E+00   0.207489E+03   0.130346E-15
   LPB:    6  -0.753678503404793E+00   0.348010837922717E-02   0.268747E-01   0.645284E+00   0.254074E+03   0.189336E-15
   LPB:    7  -0.753677448455005E+00   0.198666087921522E-02   0.313545E-01   0.610417E+00   0.383174E+03   0.254122E-15
   LPB:    8  -0.753676703793358E+00   0.103987627475800E-02   0.350560E-01   0.631343E+00   0.549343E+03   0.290826E-15
   LPB:    9  -0.753676195286557E+00   0.589933003984247E-03   0.381316E-01   0.627790E+00   0.124821E+04   0.304388E-15
   LPB:   10  -0.753675867660447E+00   0.425459968127499E-03   0.387204E-01   0.634493E+00   0.157034E+04   0.307474E-15
   LPB:   11  -0.753675659947043E+00   0.411539411237883E-03   0.377339E-01   0.650570E+00   0.206741E+04   0.311647E-15
   LPB:   12  -0.753675525376273E+00   0.400371215487147E-03   0.369121E-01   0.662292E+00   0.186514E+04   0.315077E-15
   LPB:   13  -0.753675436605882E+00   0.368751265154778E-03   0.360490E-01   0.675449E+00   0.178388E+04   0.318060E-15
  Finished solving LPB equations
  A_corr:   -0.673010452785752     
 End minimization
 Ecorr=   1440.44784318799     
 A_corr= -0.673010452785752     
 Ecorr_band=  -1441.12085364078     
 End Solvation calculations
RMM:   3    -0.136701381138E+03    0.52082E-02   -0.82126E-03  5031   0.180E-01    0.364E-01
 Begin Solvation calculations
  rms_SCF =   3.903201822599791E-003 tol =   3.903201822599791E-004
 Begin minimization
 Creating dielectric and ionic cavities
  area:      153.640415669975     
  volume:    683.547472670438     
  Acav:     8.066121822673664E-002
  Solving linear dielectric/ionic screening model
        iter                  A_solv                     rms
   LPB:       -0.758396983988486E+00   0.537087288031488E+00
   LPB:    0  -0.758345363164553E+00   0.517387483534429E+00  -0.177826E-02   0.000000E+00   0.326486E+02  -0.580577E-01
   LPB:    1  -0.757393519906533E+00   0.578499037247219E-01   0.950615E-02   0.000000E+00   0.775686E+02   0.130501E-17
   LPB:    2  -0.757298587780471E+00   0.996841354340952E-02   0.143621E-01   0.660137E-01   0.238785E+03  -0.271337E-15
   LPB:    3  -0.757282737796616E+00   0.875314972041897E-02   0.249333E-01   0.961732E-01   0.533344E+03  -0.282932E-15
   LPB:    4  -0.757278224381816E+00   0.746580189395851E-02   0.238355E-01   0.297873E+00   0.148864E+03  -0.285046E-15
   LPB:    5  -0.757276029006518E+00   0.465841548596170E-02   0.237369E-01   0.488433E+00   0.302638E+03  -0.269693E-15
   LPB:    6  -0.757274742161151E+00   0.220672590493494E-02   0.290242E-01   0.479381E+00   0.172875E+03  -0.246577E-15
   LPB:    7  -0.757273946727607E+00   0.133209575648577E-02   0.325598E-01   0.551006E+00   0.546760E+03  -0.242122E-15
   LPB:    8  -0.757273431544296E+00   0.690444490797848E-03   0.354200E-01   0.595375E+00   0.356164E+03  -0.243518E-15
   LPB:    9  -0.757273102250908E+00   0.512036374115398E-03   0.371346E-01   0.609665E+00   0.560928E+03  -0.252194E-15
   LPB:   10  -0.757272891043514E+00   0.475430594549940E-03   0.371913E-01   0.640417E+00   0.591275E+03  -0.259277E-15
   LPB:   11  -0.757272753715577E+00   0.454859415672232E-03   0.362507E-01   0.667075E+00   0.695433E+03  -0.265773E-15
   LPB:   12  -0.757272662738328E+00   0.377197862421816E-03   0.352389E-01   0.681503E+00   0.601320E+03  -0.270055E-15
  Finished solving LPB equations
  A_corr:   -0.676611444511592     
 End minimization
 Ecorr=   1440.02147093801     
 A_corr= -0.676611444511592     
 Ecorr_band=  -1440.69808238253     
 End Solvation calculations
RMM:   4    -0.136701246583E+03    0.13456E-03   -0.44258E-03  4863   0.128E-01    0.398E-01
 Begin Solvation calculations
  rms_SCF =   3.903201822599791E-003 tol =   3.903201822599791E-004
 Begin minimization
 Creating dielectric and ionic cavities
  area:      153.577125338321     
  volume:    683.509706342833     
  Acav:     8.062799080261862E-002
  Solving linear dielectric/ionic screening model
        iter                  A_solv                     rms
   LPB:       -0.766655344127164E+00   0.465183023287543E+00
   LPB:    0  -0.766273230434275E+00   0.258811064826384E+00  -0.483802E-02   0.000000E+00   0.326504E+02  -0.157963E+00
   LPB:    1  -0.764838498474922E+00   0.701841324817314E-01   0.162014E-01   0.000000E+00   0.114972E+03   0.393887E-17
   LPB:    2  -0.764690003808553E+00   0.457995536237396E-01   0.169404E-01   0.989853E-01   0.248039E+03   0.126746E-14
   LPB:    3  -0.764644647222365E+00   0.264116551260024E-01   0.193984E-01   0.266739E+00   0.969886E+02   0.148787E-14
   LPB:    4  -0.764627227813598E+00   0.204963883251687E-01   0.242327E-01   0.307437E+00   0.184166E+03   0.163997E-14
   LPB:    5  -0.764620336899871E+00   0.106824176981739E-01   0.186346E-01   0.514427E+00   0.216930E+03   0.165769E-14
   LPB:    6  -0.764615653013195E+00   0.350073076675859E-02   0.256881E-01   0.493081E+00   0.190663E+03   0.167608E-14
   LPB:    7  -0.764613173318789E+00   0.226885641750815E-02   0.321493E-01   0.423012E+00   0.604714E+03   0.163717E-14
   LPB:    8  -0.764611813069938E+00   0.135753218169220E-02   0.328830E-01   0.536315E+00   0.309389E+03   0.159593E-14
   LPB:    9  -0.764611012766770E+00   0.100528743328588E-02   0.343313E-01   0.563531E+00   0.461404E+03   0.156869E-14
   LPB:   10  -0.764610530709829E+00   0.781188296331860E-03   0.351301E-01   0.588646E+00   0.359443E+03   0.155066E-14
   LPB:   11  -0.764610234277580E+00   0.637240752401614E-03   0.349461E-01   0.618170E+00   0.382081E+03   0.154334E-14
   LPB:   12  -0.764610046838808E+00   0.494961252976914E-03   0.350428E-01   0.630569E+00   0.369321E+03   0.153837E-14
   LPB:   13  -0.764609922597628E+00   0.379768388287007E-03   0.358430E-01   0.648038E+00   0.383471E+03   0.153671E-14
  Finished solving LPB equations
  A_corr:   -0.683981931795010     
 End minimization
 Ecorr=   1438.94770998463     
 A_corr= -0.683981931795010     
 Ecorr_band=  -1439.63169191642     
 End Solvation calculations
RMM:   5    -0.136699708685E+03    0.15379E-02   -0.14819E-03  4227   0.119E-01    0.132E-01
 Begin Solvation calculations
  rms_SCF =   3.903201822599791E-003 tol =   3.903201822599791E-004
 Begin minimization
 Creating dielectric and ionic cavities
  area:      153.584738991784     
  volume:    683.577053640625     
  Acav:     8.063198797068656E-002
  Solving linear dielectric/ionic screening model
        iter                  A_solv                     rms
   LPB:       -0.770055976177505E+00   0.339121784042561E+00
   LPB:    0  -0.769958297319121E+00   0.267140760889685E+00  -0.244620E-02   0.000000E+00   0.326472E+02  -0.798617E-01
   LPB:    1  -0.769361346161524E+00   0.102303312709127E+00   0.122588E-01   0.000000E+00   0.964277E+02  -0.451779E-18
   LPB:    2  -0.769278463665067E+00   0.152375354806856E-01   0.129434E-01   0.131499E+00   0.120666E+03   0.248650E-16
   LPB:    3  -0.769258738525422E+00   0.960521467909726E-02   0.220755E-01   0.139539E+00   0.273766E+03   0.386204E-16
   LPB:    4  -0.769253237301358E+00   0.842922503650377E-02   0.239490E-01   0.257076E+00   0.124336E+03   0.382093E-16
   LPB:    5  -0.769250809502794E+00   0.555062913195499E-02   0.221450E-01   0.477271E+00   0.310624E+03  -0.873136E-17
   LPB:    6  -0.769249468507524E+00   0.186241443081641E-02   0.286283E-01   0.427262E+00   0.112898E+03  -0.478537E-16
   LPB:    7  -0.769248748129223E+00   0.120330456142765E-02   0.313872E-01   0.489978E+00   0.365097E+03  -0.345482E-16
   LPB:    8  -0.769248301075736E+00   0.689239596425313E-03   0.351119E-01   0.554749E+00   0.185536E+03  -0.293758E-16
   LPB:    9  -0.769248000543613E+00   0.633886832844683E-03   0.376204E-01   0.627427E+00   0.202466E+03  -0.179232E-16
   LPB:   10  -0.769247796778964E+00   0.523041554714734E-03   0.373709E-01   0.682539E+00   0.157076E+03  -0.108673E-16
   LPB:   11  -0.769247660659030E+00   0.476928031886702E-03   0.359083E-01   0.695235E+00   0.203286E+03  -0.107245E-16
   LPB:   12  -0.769247569773797E+00   0.361583083462776E-03   0.353008E-01   0.679175E+00   0.178311E+03  -0.105246E-16
  Finished solving LPB equations
  A_corr:   -0.688615581803111     
 End minimization
 Ecorr=   1437.90373040426     
 A_corr= -0.688615581803111     
 Ecorr_band=  -1438.59234598607     
 End Solvation calculations
RMM:   6    -0.136699623639E+03    0.85046E-04   -0.12067E-03  4181   0.145E-01    0.981E-02
 Begin Solvation calculations
  rms_SCF =   3.903201822599791E-003 tol =   3.903201822599791E-004
 Begin minimization
 Creating dielectric and ionic cavities
  area:      153.616894391627     
  volume:    683.620335052083     
  Acav:     8.064886955560423E-002
  Solving linear dielectric/ionic screening model
        iter                  A_solv                     rms
   LPB:       -0.772245420610107E+00   0.166503471222073E+00
   LPB:    0  -0.772205418900044E+00   0.992327295585132E-01  -0.156547E-02   0.000000E+00   0.326452E+02  -0.511051E-01
   LPB:    1  -0.772052263247697E+00   0.303211045781272E-01   0.159760E-01   0.000000E+00   0.820391E+02  -0.421002E-18
   LPB:    2  -0.772037075117283E+00   0.121446878015653E-01   0.162142E-01   0.977115E-01   0.136374E+03  -0.718328E-15
   LPB:    3  -0.772033099095974E+00   0.410559120375123E-02   0.194944E-01   0.217735E+00   0.123281E+03  -0.878272E-15
   LPB:    4  -0.772031585589201E+00   0.498094157198339E-02   0.241550E-01   0.307212E+00   0.217838E+03  -0.942456E-15
   LPB:    5  -0.772030961360333E+00   0.496727859128531E-02   0.201370E-01   0.494733E+00   0.177054E+03  -0.965696E-15
   LPB:    6  -0.772030522045593E+00   0.153100402070434E-02   0.243208E-01   0.582707E+00   0.815266E+02  -0.976764E-15
   LPB:    7  -0.772030228248552E+00   0.799261277583287E-03   0.333421E-01   0.487816E+00   0.216005E+03  -0.988388E-15
   LPB:    8  -0.772030012700902E+00   0.575875294978388E-03   0.373411E-01   0.655091E+00   0.124127E+03  -0.993572E-15
   LPB:    9  -0.772029852610804E+00   0.488065595125906E-03   0.385089E-01   0.720191E+00   0.132922E+03  -0.993393E-15
   LPB:   10  -0.772029741728555E+00   0.428547967436154E-03   0.367675E-01   0.725428E+00   0.125455E+03  -0.992925E-15
   LPB:   11  -0.772029667208373E+00   0.349294727576005E-03   0.349430E-01   0.707157E+00   0.202186E+03  -0.996038E-15
  Finished solving LPB equations
  A_corr:   -0.691380797652769     
 End minimization
 Ecorr=   1437.22626638805     
 A_corr= -0.691380797652769     
 Ecorr_band=  -1437.91764718570     
 End Solvation calculations
RMM:   7    -0.136699516125E+03    0.10751E-03   -0.33430E-04  4114   0.848E-02    0.360E-02
 Begin Solvation calculations
  rms_SCF =   3.903201822599791E-003 tol =   3.903201822599791E-004
 Begin minimization
 Creating dielectric and ionic cavities
  area:      153.644152211583     
  volume:    683.642427774252     
  Acav:     8.066317991108102E-002
  Solving linear dielectric/ionic screening model
        iter                  A_solv                     rms
   LPB:       -0.773410002405873E+00   0.851731646038344E-01
   LPB:    0  -0.773401458276855E+00   0.567153487971495E-01  -0.723513E-03   0.000000E+00   0.326441E+02  -0.236185E-01
   LPB:    1  -0.773370663313794E+00   0.250514791482373E-01   0.128402E-01   0.000000E+00   0.838943E+02   0.544635E-18
   LPB:    2  -0.773366386751317E+00   0.440198516428057E-02   0.133132E-01   0.133938E+00   0.818793E+02  -0.387994E-15
   LPB:    3  -0.773365419448686E+00   0.298917679447556E-02   0.193646E-01   0.155504E+00   0.262692E+03  -0.439057E-15
   LPB:    4  -0.773365083515517E+00   0.209817904471158E-02   0.235875E-01   0.285113E+00   0.764292E+02  -0.455168E-15
   LPB:    5  -0.773364898808343E+00   0.143114948178905E-02   0.246822E-01   0.525448E+00   0.287923E+03  -0.472275E-15
   LPB:    6  -0.773364768337288E+00   0.521313529845565E-03   0.328580E-01   0.530607E+00   0.818325E+02  -0.464028E-15
   LPB:    7  -0.773364662346080E+00   0.461210255714478E-03   0.403561E-01   0.661437E+00   0.124256E+03  -0.477546E-15
   LPB:    8  -0.773364569783021E+00   0.356449776412722E-03   0.410244E-01   0.859082E+00   0.924941E+02  -0.487777E-15
  Finished solving LPB equations
  A_corr:   -0.692701389871940     
 End minimization
 Ecorr=   1436.87915984541     
 A_corr= -0.692701389871940     
 Ecorr_band=  -1437.57186123528     
 End Solvation calculations
RMM:   8    -0.136699546009E+03   -0.29885E-04   -0.62322E-05  3083   0.268E-02    0.230E-02
 Begin Solvation calculations
  rms_SCF =   3.903201822599791E-003 tol =   3.903201822599791E-004
 Begin minimization
 Creating dielectric and ionic cavities
  area:      153.733068917522     
  volume:    683.741328172741     
  Acav:     8.070986118169923E-002
  Solving linear dielectric/ionic screening model
        iter                  A_solv                     rms
   LPB:       -0.779318592735419E+00   0.313750879026750E+00
   LPB:    0  -0.779196150465563E+00   0.197081743864196E+00  -0.273911E-02   0.000000E+00   0.326395E+02  -0.894031E-01
   LPB:    1  -0.778691030095619E+00   0.834003610925633E-01   0.149462E-01   0.000000E+00   0.778153E+02  -0.399766E-17
   LPB:    2  -0.778634493836382E+00   0.224759223845983E-01   0.139415E-01   0.119993E+00   0.873758E+02  -0.807604E-15
   LPB:    3  -0.778620067650989E+00   0.123936208949628E-01   0.180468E-01   0.197121E+00   0.255370E+03  -0.806311E-15
   LPB:    4  -0.778614622228442E+00   0.886642666185348E-02   0.223223E-01   0.305169E+00   0.852819E+02  -0.765172E-15
   LPB:    5  -0.778611826128852E+00   0.635003393282155E-02   0.234455E-01   0.488878E+00   0.279700E+03  -0.804829E-15
   LPB:    6  -0.778609833097917E+00   0.214326738541906E-02   0.311710E-01   0.536131E+00   0.834634E+02  -0.826892E-15
   LPB:    7  -0.778608461270209E+00   0.158494407326425E-02   0.359620E-01   0.596613E+00   0.162674E+03  -0.823249E-15
   LPB:    8  -0.778607528391598E+00   0.117840271370890E-02   0.367655E-01   0.665164E+00   0.126750E+03  -0.816706E-15
   LPB:    9  -0.778606910205518E+00   0.967968826840570E-03   0.368758E-01   0.660683E+00   0.175415E+03  -0.817649E-15
   LPB:   10  -0.778606509045899E+00   0.844259270469487E-03   0.355229E-01   0.673645E+00   0.169019E+03  -0.821120E-15
   LPB:   11  -0.778606246006672E+00   0.676699590970438E-03   0.344105E-01   0.676895E+00   0.297070E+03  -0.823685E-15
   LPB:   12  -0.778606071807486E+00   0.432867703163831E-03   0.358614E-01   0.635461E+00   0.229057E+03  -0.824088E-15
   LPB:   13  -0.778605951833023E+00   0.306795143636001E-03   0.372972E-01   0.662207E+00   0.390827E+03  -0.824296E-15
  Finished solving LPB equations
  A_corr:   -0.697896090651323     
 End minimization
 Ecorr=   1435.36033012892     
 A_corr= -0.697896090651323     
 Ecorr_band=  -1436.05822621958     
 End Solvation calculations
RMM:   9    -0.136699663495E+03   -0.11749E-03   -0.64088E-05  3263   0.246E-02    0.201E-02
 Begin Solvation calculations
  rms_SCF =   3.903201822599791E-003 tol =   3.903201822599791E-004
 Begin minimization
 Creating dielectric and ionic cavities
  area:      153.770409118434     
  volume:    683.773683091635     
  Acav:     8.072946478717775E-002
  Solving linear dielectric/ionic screening model
        iter                  A_solv                     rms
   LPB:       -0.780994271062031E+00   0.142021126533354E+00
   LPB:    0  -0.780969447323790E+00   0.895663297547824E-01  -0.123335E-02   0.000000E+00   0.326380E+02  -0.402541E-01
   LPB:    1  -0.780872209851677E+00   0.289293702263840E-01   0.155265E-01   0.000000E+00   0.671372E+02  -0.294161E-17
   LPB:    2  -0.780861738247444E+00   0.921881444798991E-02   0.150811E-01   0.110871E+00   0.111263E+03   0.420172E-15
   LPB:    3  -0.780859214006321E+00   0.506470056040591E-02   0.194401E-01   0.187005E+00   0.175938E+03   0.541436E-15
   LPB:    4  -0.780858217476290E+00   0.460554118160693E-02   0.219167E-01   0.350173E+00   0.103449E+03   0.522463E-15
   LPB:    5  -0.780857704628005E+00   0.328913676857854E-02   0.213667E-01   0.527882E+00   0.213082E+03   0.519999E-15
   LPB:    6  -0.780857334429123E+00   0.982961427787316E-03   0.282491E-01   0.545983E+00   0.904427E+02   0.514106E-15
   LPB:    7  -0.780857087971385E+00   0.631675396748198E-03   0.354424E-01   0.530627E+00   0.179517E+03   0.501472E-15
   LPB:    8  -0.780856905957666E+00   0.540923900179537E-03   0.398870E-01   0.656225E+00   0.116481E+03   0.487719E-15
   LPB:    9  -0.780856762015166E+00   0.493520936803599E-03   0.401179E-01   0.786281E+00   0.129024E+03   0.470742E-15
   LPB:   10  -0.780856657662010E+00   0.428984060358845E-03   0.370166E-01   0.785702E+00   0.116389E+03   0.458285E-15
   LPB:   11  -0.780856587309403E+00   0.349606396018524E-03   0.346850E-01   0.719499E+00   0.194689E+03   0.447669E-15
  Finished solving LPB equations
  A_corr:   -0.700127122522225     
 End minimization
 Ecorr=   1434.70091197525     
 A_corr= -0.700127122522225     
 Ecorr_band=  -1435.40103909777     
 End Solvation calculations
RMM:  10    -0.136699712343E+03   -0.48848E-04   -0.27567E-05  2497   0.199E-02    0.166E-02
 Begin Solvation calculations
  rms_SCF =   3.903201822599791E-003 tol =   3.903201822599791E-004
 Begin minimization
 Creating dielectric and ionic cavities
  area:      153.814993440122     
  volume:    683.793961647893     
  Acav:     8.075287155606417E-002
  Solving linear dielectric/ionic screening model
        iter                  A_solv                     rms
   LPB:       -0.783640739167723E+00   0.175122343224748E+00
   LPB:    0  -0.783606876801480E+00   0.116357679198639E+00  -0.144052E-02   0.000000E+00   0.326370E+02  -0.470142E-01
   LPB:    1  -0.783466867205339E+00   0.306793849742417E-01   0.153823E-01   0.000000E+00   0.604018E+02   0.982392E-18
   LPB:    2  -0.783451250200811E+00   0.983782960574587E-02   0.153508E-01   0.111771E+00   0.135613E+03   0.788466E-15
   LPB:    3  -0.783447680846480E+00   0.385064973488157E-02   0.211985E-01   0.165508E+00   0.142393E+03   0.851954E-15
   LPB:    4  -0.783446226955381E+00   0.372787250640484E-02   0.256054E-01   0.337223E+00   0.166984E+03   0.859660E-15
   LPB:    5  -0.783445556479576E+00   0.531998957983541E-02   0.245063E-01   0.481841E+00   0.177237E+03   0.864963E-15
   LPB:    6  -0.783445116356741E+00   0.221831460131353E-02   0.211330E-01   0.761217E+00   0.814991E+02   0.867015E-15
   LPB:    7  -0.783444727695583E+00   0.867784426920624E-03   0.345794E-01   0.539684E+00   0.181274E+03   0.872433E-15
   LPB:    8  -0.783444437490291E+00   0.580623805867238E-03   0.391212E-01   0.659995E+00   0.114818E+03   0.878308E-15
   LPB:    9  -0.783444237552704E+00   0.560942021440717E-03   0.371926E-01   0.724676E+00   0.168223E+03   0.879195E-15
   LPB:   10  -0.783444105079360E+00   0.455013349011813E-03   0.358472E-01   0.687441E+00   0.147654E+03   0.880539E-15
   LPB:   11  -0.783444019199857E+00   0.367949374553660E-03   0.348862E-01   0.666136E+00   0.259663E+03   0.882391E-15
  Finished solving LPB equations
  A_corr:   -0.702691147643793     
 End minimization
 Ecorr=   1433.92537154145     
 A_corr= -0.702691147643793     
 Ecorr_band=  -1434.62806268909     
 End Solvation calculations
RMM:  11    -0.136699792491E+03   -0.80148E-04   -0.24884E-05  2502   0.172E-02    0.125E-02
 Begin Solvation calculations
  rms_SCF =   3.903201822599791E-003 tol =   3.903201822599791E-004
 Begin minimization
 Creating dielectric and ionic cavities
  area:      153.882974742984     
  volume:    683.827784453015     
  Acav:     8.078856174006667E-002
  Solving linear dielectric/ionic screening model
        iter                  A_solv                     rms
   LPB:       -0.788020693392361E+00   0.276743297368036E+00
   LPB:    0  -0.787938103764601E+00   0.185314044781448E+00  -0.224974E-02   0.000000E+00   0.326355E+02  -0.734214E-01
   LPB:    1  -0.787593925229541E+00   0.476154191339733E-01   0.153376E-01   0.000000E+00   0.590433E+02  -0.621428E-17
   LPB:    2  -0.787554924506297E+00   0.150556185360904E-01   0.153177E-01   0.113463E+00   0.142447E+03   0.147254E-14
   LPB:    3  -0.787546066555731E+00   0.525193601221774E-02   0.215005E-01   0.161810E+00   0.140509E+03   0.149888E-14
   LPB:    4  -0.787542437700383E+00   0.431368575252148E-02   0.265275E-01   0.332039E+00   0.190729E+03   0.139454E-14
   LPB:    5  -0.787540681684404E+00   0.780502414490639E-02   0.282157E-01   0.454950E+00   0.178667E+03   0.135119E-14
   LPB:    6  -0.787539720338643E+00   0.474634043489915E-02   0.202150E-01   0.764131E+00   0.796019E+02   0.133531E-14
   LPB:    7  -0.787538813744760E+00   0.161395641617241E-02   0.303316E-01   0.628511E+00   0.184488E+03   0.132895E-14
   LPB:    8  -0.787538131919166E+00   0.877201961572551E-03   0.379779E-01   0.600654E+00   0.121652E+03   0.132373E-14
   LPB:    9  -0.787537669138766E+00   0.843074071839270E-03   0.370202E-01   0.696297E+00   0.186669E+03   0.131480E-14
   LPB:   10  -0.787537363802818E+00   0.685888454086438E-03   0.359164E-01   0.680061E+00   0.157529E+03   0.130684E-14
   LPB:   11  -0.787537166467028E+00   0.561537127762940E-03   0.349087E-01   0.664947E+00   0.275607E+03   0.129521E-14
   LPB:   12  -0.787537037867149E+00   0.425484218692511E-03   0.354717E-01   0.641336E+00   0.257265E+03   0.128566E-14
   LPB:   13  -0.787536949491785E+00   0.291555990389774E-03   0.357246E-01   0.682347E+00   0.398596E+03   0.127987E-14
  Finished solving LPB equations
  A_corr:   -0.706748387751718     
 End minimization
 Ecorr=   1432.68073925761     
 A_corr= -0.706748387751718     
 Ecorr_band=  -1433.38748764536     
 End Solvation calculations
RMM:  12    -0.136699892704E+03   -0.10021E-03   -0.41123E-05  2800   0.176E-02    0.109E-02
 Begin Solvation calculations
  rms_SCF =   3.903201822599791E-003 tol =   3.903201822599791E-004
[...]
       N       E                     dE             d eps       ncg     rms          rms(c)
 Begin Solvation calculations
  rms_SCF =   1.744702317424927E-003 tol =   1.744702317424927E-004
 Begin minimization
 Creating dielectric and ionic cavities
  area:      155.174420081737     
  volume:    682.775114194876     
  Acav:     8.146657054291181E-002
  Solving linear dielectric/ionic screening model
        iter                  A_solv                     rms
   LPB:       -0.891712023546774E+00   0.150303903367654E-02
   LPB:    0  -0.891712023539932E+00   0.150728926861313E-02  -0.647071E-06   0.000000E+00   0.326848E+02  -0.211494E-04
   LPB:    1  -0.891524802188468E+00   0.607687657200509E-03   0.157277E-01   0.000000E+00   0.655848E+06   0.746208E-21
   LPB:    2  -0.891506768438847E+00   0.788951953804840E-03   0.269471E-01   0.562189E-01   0.127953E+06   0.866181E-18
   LPB:    3  -0.891500985935938E+00   0.134132387614622E-02   0.329782E-01   0.262008E+00   0.158942E+05   0.924841E-18
   LPB:    4  -0.891498421126105E+00   0.387536573440884E-02   0.355056E-01   0.411974E+00   0.302150E+04   0.889747E-17
   LPB:    5  -0.891497290437390E+00   0.700853569109290E-02   0.281259E-01   0.556517E+00   0.244812E+03   0.149406E-16
   LPB:    6  -0.891496600335523E+00   0.308582912288160E-02   0.192452E-01   0.891976E+00   0.215118E+03   0.151136E-16
   LPB:    7  -0.891496000661725E+00   0.127870567505849E-02   0.331815E-01   0.503999E+00   0.871471E+03   0.519124E-17
   LPB:    8  -0.891495642058511E+00   0.206384880929767E-02   0.354446E-01   0.559815E+00   0.348384E+03  -0.856116E-18
   LPB:    9  -0.891495448658130E+00   0.201776891115588E-02   0.260644E-01   0.733407E+00   0.225530E+03  -0.823848E-17
   LPB:   10  -0.891495299743176E+00   0.740591365275844E-03   0.278703E-01   0.720089E+00   0.206857E+03  -0.150401E-16
   LPB:   11  -0.891495189234536E+00   0.290135280030434E-03   0.379287E-01   0.545296E+00   0.176059E+04  -0.200085E-16
   LPB:   12  -0.891495116807056E+00   0.248487902851016E-03   0.396452E-01   0.627024E+00   0.108629E+04  -0.255467E-16
   LPB:   13  -0.891495069734063E+00   0.298202036734686E-03   0.382589E-01   0.673483E+00   0.115666E+04  -0.294297E-16
   LPB:   14  -0.891495040249574E+00   0.239260475525710E-03   0.332672E-01   0.720341E+00   0.955709E+03  -0.310063E-16
   LPB:   15  -0.891495020971492E+00   0.151619709775207E-03   0.348099E-01   0.624862E+00   0.109734E+04  -0.320139E-16
  Finished solving LPB equations
  A_corr:   -0.810028450428580     
 End minimization
 Ecorr=   1411.90278355943     
 A_corr= -0.810028450428580     
 Ecorr_band=  -1412.71281200986     
 End Solvation calculations
DAV:   1    -0.136738998123E+03   -0.11909E-03   -0.14368E-02  4119   0.269E-01    0.355E-02
 Begin Solvation calculations
  rms_SCF =   1.744702317424927E-003 tol =   1.744702317424927E-004
 Begin minimization
 Creating dielectric and ionic cavities
  area:      155.147856949318     
  volume:    682.763832749298     
  Acav:     8.145262489839183E-002
  Solving linear dielectric/ionic screening model
        iter                  A_solv                     rms
   LPB:       -0.891800362257048E+00   0.333976210849500E-01
   LPB:    0  -0.891799634608166E+00   0.294510211012991E-01  -0.211008E-03   0.000000E+00   0.326853E+02  -0.689688E-02
   LPB:    1  -0.891795118833878E+00   0.640155231929253E-02   0.110265E-01   0.000000E+00   0.827411E+02   0.140549E-19
   LPB:    2  -0.891794329410933E+00   0.139807875302163E-02   0.150025E-01   0.128485E+00   0.322513E+03   0.383439E-16
   LPB:    3  -0.891794086049648E+00   0.119158647922853E-02   0.258257E-01   0.179083E+00   0.548170E+03   0.452007E-16
   LPB:    4  -0.891794000167645E+00   0.128058882196857E-02   0.245816E-01   0.370760E+00   0.196700E+03   0.456031E-16
   LPB:    5  -0.891793948608324E+00   0.608319384153663E-03   0.247391E-01   0.596528E+00   0.195980E+03   0.460474E-16
   LPB:    6  -0.891793914884694E+00   0.303432673672908E-03   0.329494E-01   0.491092E+00   0.434087E+03   0.577706E-16
   LPB:    7  -0.891793894076061E+00   0.191038693548083E-03   0.345151E-01   0.589043E+00   0.638454E+03   0.662838E-16
   LPB:    8  -0.891793880553855E+00   0.132445463603492E-03   0.352482E-01   0.636321E+00   0.966037E+03   0.728163E-16
  Finished solving LPB equations
  A_corr:   -0.810341255655463     
 End minimization
 Ecorr=   1411.90791242737     
 A_corr= -0.810341255655463     
 Ecorr_band=  -1412.71825368303     
 End Solvation calculations
RMM:   2    -0.136739079388E+03   -0.81265E-04   -0.77745E-04  5166   0.671E-02    0.515E-02
 Begin Solvation calculations
  rms_SCF =   1.744702317424927E-003 tol =   1.744702317424927E-004
 Begin minimization
 Creating dielectric and ionic cavities
  area:      155.144412579196     
  volume:    682.765940466199     
  Acav:     8.145081660407764E-002
  Solving linear dielectric/ionic screening model
        iter                  A_solv                     rms
   LPB:       -0.891742918568178E+00   0.309305518620768E-01
   LPB:    0  -0.891742915764837E+00   0.309053182618871E-01   0.130972E-04   0.000000E+00   0.326852E+02   0.428084E-03
   LPB:    1  -0.891740019127970E+00   0.299428143177513E-02   0.904336E-02   0.000000E+00   0.741277E+02   0.236109E-19
   LPB:    2  -0.891739704837547E+00   0.716194734401486E-03   0.173313E-01   0.566157E-01   0.156639E+03   0.161106E-17
   LPB:    3  -0.891739648651882E+00   0.629630128552212E-03   0.254045E-01   0.121959E+00   0.237926E+03   0.901438E-18
   LPB:    4  -0.891739623604876E+00   0.552877146226803E-03   0.293917E-01   0.385316E+00   0.181440E+03   0.804510E-18
   LPB:    5  -0.891739610266777E+00   0.385446724136101E-03   0.253701E-01   0.616937E+00   0.255626E+03  -0.156329E-17
   LPB:    6  -0.891739600765573E+00   0.198418661167531E-03   0.295132E-01   0.612337E+00   0.331637E+03  -0.298674E-18
   LPB:    7  -0.891739593959126E+00   0.137184429271521E-03   0.348211E-01   0.607178E+00   0.877081E+03   0.153076E-17
  Finished solving LPB equations
  A_corr:   -0.810288777355049     
 End minimization
 Ecorr=   1411.90980296803     
 A_corr= -0.810288777355049     
 Ecorr_band=  -1412.72009174538     
 End Solvation calculations
RMM:   3    -0.136739051708E+03    0.27680E-04   -0.42378E-05  2724   0.163E-02    0.233E-02
 Begin Solvation calculations
  rms_SCF =   1.744702317424927E-003 tol =   1.744702317424927E-004
 Begin minimization
 Creating dielectric and ionic cavities
  area:      155.145927695179     
  volume:    682.765401548423     
  Acav:     8.145161203996888E-002
  Solving linear dielectric/ionic screening model
        iter                  A_solv                     rms
   LPB:       -0.891849209066971E+00   0.406088890565259E-01
   LPB:    0  -0.891849148448121E+00   0.403852490363388E-01  -0.609036E-04   0.000000E+00   0.326853E+02  -0.199065E-02
   LPB:    1  -0.891844216131929E+00   0.383455033519500E-02   0.908679E-02   0.000000E+00   0.731963E+02  -0.863639E-19
   LPB:    2  -0.891843762627365E+00   0.817106311333226E-03   0.157014E-01   0.532112E-01   0.169281E+03  -0.280869E-18
   LPB:    3  -0.891843688287521E+00   0.535355903546690E-03   0.249132E-01   0.103311E+00   0.222337E+03   0.970551E-17
   LPB:    4  -0.891843661302488E+00   0.484568018336788E-03   0.282645E-01   0.319956E+00   0.242412E+03   0.186901E-16
   LPB:    5  -0.891843649072841E+00   0.380296799087905E-03   0.243588E-01   0.525867E+00   0.234559E+03   0.210772E-16
   LPB:    6  -0.891843641357628E+00   0.247629134440364E-03   0.280757E-01   0.547342E+00   0.219900E+03   0.210190E-16
   LPB:    7  -0.891843636012178E+00   0.140608857287067E-03   0.320643E-01   0.606660E+00   0.316371E+03   0.178436E-16
  Finished solving LPB equations
  A_corr:   -0.810392023972209     
 End minimization
 Ecorr=   1411.92070345840     
 A_corr= -0.810392023972209     
 Ecorr_band=  -1412.73109548237     
 End Solvation calculations
RMM:   4    -0.136739052493E+03   -0.78492E-06   -0.17627E-05  2440   0.178E-02
 Begin Solvation calculations
  rms_SCF =   1.744702317424927E-003 tol =   1.744702317424927E-004
 Begin minimization
 Creating dielectric and ionic cavities
  area:      155.143262671298     
  volume:    682.762313630468     
  Acav:     8.145021290243121E-002
  Solving linear dielectric/ionic screening model
        iter                  A_solv                     rms
   LPB:       -0.892043182465078E+00   0.165296856991344E-01
   LPB:    0  -0.892042768941748E+00   0.115377496404615E-01  -0.159070E-03   0.000000E+00   0.326854E+02  -0.519927E-02
   LPB:    1  -0.892041565116390E+00   0.436525061077309E-02   0.127248E-01   0.000000E+00   0.978434E+02   0.358327E-18
   LPB:    2  -0.892041287169983E+00   0.127317876341218E-02   0.147230E-01   0.199549E+00   0.203754E+03   0.339440E-16
   LPB:    3  -0.892041215080692E+00   0.879162312906729E-03   0.244572E-01   0.156135E+00   0.214455E+03   0.418951E-16
   LPB:    4  -0.892041185752260E+00   0.681693941046064E-03   0.249350E-01   0.399039E+00   0.184946E+03   0.424208E-16
   LPB:    5  -0.892041167196113E+00   0.407747821281112E-03   0.259354E-01   0.608296E+00   0.234012E+03   0.403821E-16
   LPB:    6  -0.892041152382320E+00   0.225465517228983E-03   0.356119E-01   0.581401E+00   0.281313E+03   0.386010E-16
   LPB:    7  -0.892041141943162E+00   0.174058790401560E-03   0.382307E-01   0.656422E+00   0.484177E+03   0.428124E-16
  Finished solving LPB equations
  A_corr:   -0.810590929040730     
 End minimization
 Ecorr=   1411.91903513418     
 A_corr= -0.810590929040730     
 Ecorr_band=  -1412.72962606322     
 End Solvation calculations
  72 F= -.13673905E+03 E0= -.13673574E+03  d E =-.176522E-03
quench:  g(F)=  0.000E+00 g(S)=  0.000E+00 dE (1.order)= 0.000E+00
 bond charge predicted
       N       E                     dE             d eps       ncg     rms          rms(c)
 Begin Solvation calculations
  rms_SCF =   1.744702317424927E-003 tol =   1.744702317424927E-004
 Begin minimization
 Creating dielectric and ionic cavities
  area:      155.173662721987     
  volume:    682.741730810089     
  Acav:     8.146617292904308E-002
  Solving linear dielectric/ionic screening model
        iter                  A_solv                     rms
   LPB:       -0.892722444572246E+00   0.183888457326212E-02
   LPB:    0  -0.892722444534987E+00   0.185836376239443E-02  -0.150990E-05   0.000000E+00   0.326864E+02  -0.493532E-04
   LPB:    1  -0.892463781363724E+00   0.744967852463269E-03   0.158469E-01   0.000000E+00   0.548277E+06  -0.581950E-23
   LPB:    2  -0.892437486076846E+00   0.756818858709414E-03   0.270738E-01   0.595031E-01   0.118209E+06   0.392309E-17
   LPB:    3  -0.892429040106651E+00   0.151183847901129E-02   0.329886E-01   0.263607E+00   0.289454E+05   0.378768E-17
   LPB:    4  -0.892425307715482E+00   0.405313959449387E-02   0.355706E-01   0.409837E+00   0.285301E+04   0.161366E-17
   LPB:    5  -0.892423629301379E+00   0.819151854960731E-02   0.296703E-01   0.539115E+00   0.324050E+03   0.841510E-17
   LPB:    6  -0.892422696186817E+00   0.407378057699139E-02   0.188340E-01   0.875819E+00   0.187700E+03   0.112790E-16
   LPB:    7  -0.892421855913961E+00   0.121056871945080E-02   0.319118E-01   0.531469E+00   0.662078E+03   0.923094E-17
   LPB:    8  -0.892421335984644E+00   0.195241511892914E-02   0.369913E-01   0.533796E+00   0.133438E+04   0.112657E-16
   LPB:    9  -0.892421060354291E+00   0.245716588668992E-02   0.291128E-01   0.673594E+00   0.163205E+03   0.272826E-16
   LPB:   10  -0.892420870938829E+00   0.121778724267515E-02   0.254368E-01   0.786519E+00   0.272901E+03   0.313143E-16
   LPB:   11  -0.892420718186870E+00   0.381287500252306E-03   0.358217E-01   0.572648E+00   0.448271E+03   0.487409E-16
   LPB:   12  -0.892420616264756E+00   0.283571434891574E-03   0.394072E-01   0.606529E+00   0.205070E+04   0.700082E-16
   LPB:   13  -0.892420549929589E+00   0.345466283624750E-03   0.385034E-01   0.666120E+00   0.102130E+04   0.840994E-16
   LPB:   14  -0.892420508925714E+00   0.298563166824878E-03   0.329695E-01   0.721884E+00   0.101056E+04   0.943182E-16
   LPB:   15  -0.892420481924490E+00   0.191512021647363E-03   0.341325E-01   0.636066E+00   0.974647E+03   0.100494E-15
   LPB:   16  -0.892420461600171E+00   0.108485523989957E-03   0.377645E-01   0.680327E+00   0.148757E+04   0.105060E-15
  Finished solving LPB equations
  A_corr:   -0.810954288671128     
 End minimization
 Ecorr=   1411.84123591620     
 A_corr= -0.810954288671128     
 Ecorr_band=  -1412.65219020487     
 End Solvation calculations
DAV:   1    -0.136739186218E+03   -0.13451E-03   -0.19948E-02  4134   0.321E-01    0.416E-02
 Begin Solvation calculations
  rms_SCF =   1.744702317424927E-003 tol =   1.744702317424927E-004
 Begin minimization
 Creating dielectric and ionic cavities
  area:      155.147791964728     
  volume:    682.757867317227     
  Acav:     8.145259078148225E-002
  Solving linear dielectric/ionic screening model
        iter                  A_solv                     rms
   LPB:       -0.892219693864300E+00   0.520932125532737E-01
   LPB:    0  -0.892219526111698E+00   0.515720409084140E-01   0.101314E-03   0.000000E+00   0.326856E+02   0.331152E-02
   LPB:    1  -0.892210287813557E+00   0.628218117508770E-02   0.971454E-02   0.000000E+00   0.734734E+02  -0.333791E-20
   LPB:    2  -0.892208723371428E+00   0.170533314680228E-02   0.173656E-01   0.947326E-01   0.237306E+03   0.548484E-17
   LPB:    3  -0.892208391174117E+00   0.160507639482068E-02   0.254321E-01   0.144992E+00   0.321225E+03   0.432995E-17
   LPB:    4  -0.892208264989827E+00   0.134047479205669E-02   0.259319E-01   0.372526E+00   0.164501E+03   0.104456E-16
   LPB:    5  -0.892208200553399E+00   0.744475577351052E-03   0.242095E-01   0.546985E+00   0.239251E+03  -0.123185E-17
   LPB:    6  -0.892208156893047E+00   0.347231071975600E-03   0.304563E-01   0.538597E+00   0.372067E+03  -0.136244E-17
   LPB:    7  -0.892208130218955E+00   0.249125423463000E-03   0.336429E-01   0.553078E+00   0.680383E+03   0.257199E-17
   LPB:    8  -0.892208112985541E+00   0.146126803024915E-03   0.344468E-01   0.630996E+00   0.560347E+03   0.581395E-17
  Finished solving LPB equations
  A_corr:   -0.810755522204059     
 End minimization
 Ecorr=   1411.82893232115     
 A_corr= -0.810755522204059     
 Ecorr_band=  -1412.63968784335     
 End Solvation calculations
RMM:   2    -0.136739332502E+03   -0.14628E-03   -0.10406E-03  5246   0.791E-02    0.853E-02
 Begin Solvation calculations
  rms_SCF =   1.744702317424927E-003 tol =   1.744702317424927E-004
 Begin minimization
 Creating dielectric and ionic cavities
  area:      155.147819212588     
  volume:    682.755437796397     
  Acav:     8.145260508660875E-002
  Solving linear dielectric/ionic screening model
        iter                  A_solv                     rms
   LPB:       -0.892293119164619E+00   0.471619289645547E-01
   LPB:    0  -0.892293091276672E+00   0.470575423543042E-01  -0.413090E-04   0.000000E+00   0.326857E+02  -0.135021E-02
   LPB:    1  -0.892286468904027E+00   0.453751181106644E-02   0.901178E-02   0.000000E+00   0.736096E+02   0.522155E-19
   LPB:    2  -0.892285802001167E+00   0.106754493607447E-02   0.169481E-01   0.535474E-01   0.149839E+03  -0.618019E-17
   LPB:    3  -0.892285690429041E+00   0.847906652405452E-03   0.246744E-01   0.114913E+00   0.203649E+03  -0.336408E-17
   LPB:    4  -0.892285642617200E+00   0.771470175192787E-03   0.292606E-01   0.361362E+00   0.201638E+03  -0.670944E-17
   LPB:    5  -0.892285617467999E+00   0.505316857094417E-03   0.247137E-01   0.622778E+00   0.232309E+03  -0.208550E-16
   LPB:    6  -0.892285600486776E+00   0.271699263415559E-03   0.293250E-01   0.569042E+00   0.370254E+03  -0.300031E-16
   LPB:    7  -0.892285588495178E+00   0.183750532891409E-03   0.347258E-01   0.596340E+00   0.706336E+03  -0.361669E-16
   LPB:    8  -0.892285578900695E+00   0.111684498939340E-03   0.381465E-01   0.728353E+00   0.955689E+03  -0.418150E-16
  Finished solving LPB equations
  A_corr:   -0.810832973814086     
 End minimization
 Ecorr=   1411.83791203387     
 A_corr= -0.810832973814086     
 Ecorr_band=  -1412.64874500768     
 End Solvation calculations
RMM:   3    -0.136739259411E+03    0.73091E-04   -0.66075E-05  2874   0.202E-02    0.253E-02
 Begin Solvation calculations
  rms_SCF =   1.744702317424927E-003 tol =   1.744702317424927E-004
 Begin minimization
 Creating dielectric and ionic cavities
  area:      155.147336363939     
  volume:    682.756892131820     
  Acav:     8.145235159106790E-002
  Solving linear dielectric/ionic screening model
        iter                  A_solv                     rms
   LPB:       -0.892167146183189E+00   0.334484905482715E-01
   LPB:    0  -0.892167146180688E+00   0.334478221645198E-01   0.391224E-06   0.000000E+00   0.326857E+02   0.127874E-04
   LPB:    1  -0.892163530488249E+00   0.332525329324985E-02   0.931786E-02   0.000000E+00   0.744162E+02   0.495423E-21
   LPB:    2  -0.892163120386481E+00   0.665449001483986E-03   0.159812E-01   0.661313E-01   0.219082E+03   0.136627E-17
   LPB:    3  -0.892163033686275E+00   0.428194103531202E-03   0.269259E-01   0.125478E+00   0.463127E+03   0.312344E-17
   LPB:    4  -0.892162999699268E+00   0.381625136142363E-03   0.317089E-01   0.332876E+00   0.310165E+03   0.522319E-17
   LPB:    5  -0.892162982902090E+00   0.436775640538789E-03   0.284650E-01   0.550546E+00   0.416767E+03   0.494158E-17
   LPB:    6  -0.892162972592230E+00   0.374639520084976E-03   0.275606E-01   0.633927E+00   0.164278E+03   0.496964E-17
   LPB:    7  -0.892162965382390E+00   0.242606244538921E-03   0.291970E-01   0.660120E+00   0.280310E+03   0.973079E-17
   LPB:    8  -0.892162959789240E+00   0.104248007461155E-03   0.345667E-01   0.655256E+00   0.310675E+03   0.125395E-16
  Finished solving LPB equations
  A_corr:   -0.810710608198173     
 End minimization
 Ecorr=   1411.86355013946     
 A_corr= -0.810710608198173     
 Ecorr_band=  -1412.67426074766     
 End Solvation calculations
RMM:   4    -0.136739264230E+03   -0.48181E-05   -0.16704E-05  2402   0.187E-02
 Begin Solvation calculations
  rms_SCF =   1.744702317424927E-003 tol =   1.744702317424927E-004
 Begin minimization
 Creating dielectric and ionic cavities
  area:      155.147735506175     
  volume:    682.764584382689     
  Acav:     8.145256114074180E-002
  Solving linear dielectric/ionic screening model
        iter                  A_solv                     rms
   LPB:       -0.891994501221074E+00   0.217255215989358E-01
   LPB:    0  -0.891994339273952E+00   0.203866606039392E-01   0.995464E-04   0.000000E+00   0.326853E+02   0.325370E-02
   LPB:    1  -0.891992770462277E+00   0.302643375808164E-02   0.964585E-02   0.000000E+00   0.795633E+02  -0.113676E-18
   LPB:    2  -0.891992424585209E+00   0.633342852541165E-03   0.200688E-01   0.105967E+00   0.166178E+03   0.875667E-17
   LPB:    3  -0.891992362089773E+00   0.565324139814350E-03   0.259718E-01   0.139619E+00   0.448979E+03   0.752371E-17
   LPB:    4  -0.891992337303045E+00   0.571175005228492E-03   0.244316E-01   0.421620E+00   0.226398E+03   0.774524E-17
   LPB:    5  -0.891992321841730E+00   0.498894999584462E-03   0.279898E-01   0.544477E+00   0.187364E+03   0.284435E-17
   LPB:    6  -0.891992310090710E+00   0.280788224388835E-03   0.317141E-01   0.670775E+00   0.139249E+03   0.339342E-18
   LPB:    7  -0.891992300866983E+00   0.132475183873291E-03   0.365722E-01   0.680662E+00   0.410004E+03  -0.678379E-17
  Finished solving LPB equations
  A_corr:   -0.810539739726241     
 End minimization
 Ecorr=   1411.87231257980     
 A_corr= -0.810539739726241     
 Ecorr_band=  -1412.68285231953     
 End Solvation calculations
  73 F= -.13673926E+03 E0= -.13673592E+03  d E =-.211737E-03
quench:  g(F)=  0.000E+00 g(S)=  0.000E+00 dE (1.order)= 0.000E+00
 reached required accuracy - stopping structural energy minimisation
