 vasp.5.4.4.18Apr17-6-g9f103f2a35 (build Feb 06 2024 13:54:16) complex          
  
 POSCAR found type information on POSCAR  Cu N  O 
 05/POSCAR found :  3 types and      40 ions
 scaLAPACK will be used

 ----------------------------------------------------------------------------- 
|                                                                             |
|  ADVICE TO THIS USER RUNNING 'VASP/VAMP'   (HEAR YOUR MASTER'S VOICE ...):  |
|                                                                             |
|      You enforced a specific xc-type in the INCAR file,                     |
|      a different type was found on the POTCAR file                          |
|          I HOPE YOU KNOW, WHAT YOU ARE  DOING                               |
|                                                                             |
 ----------------------------------------------------------------------------- 

 LDA part: xc-table for Pade appr. of Perdew
 POSCAR found type information on POSCAR  Cu N  O 
 00/POSCAR found :  3 types and      40 ions
 POSCAR found type information on POSCAR  Cu N  O 
 06/POSCAR found :  3 types and      40 ions
 Jacobian:    20.5888137679208     
 POSCAR, INCAR and KPOINTS ok, starting setup
 FFT: planning ...
 WAVECAR not read
 entering main loop
       N       E                     dE             d eps       ncg     rms          rms(c)
  Solvation turned off during non-self-consistent phase (first NELMDL steps)
DAV:   1     0.416043897212E+04    0.41604E+04   -0.17884E+05  4032   0.204E+03
DAV:   2     0.577643197603E+03   -0.35828E+04   -0.34610E+04  4032   0.459E+02
DAV:   3    -0.364344383771E+02   -0.61408E+03   -0.56926E+03  4734   0.230E+02
DAV:   4    -0.148159501209E+03   -0.11173E+03   -0.98554E+02  7047   0.916E+01
DAV:   5    -0.161377981983E+03   -0.13218E+02   -0.12682E+02  6291   0.324E+01    0.433E+01
 Begin Solvation calculations
  rms_SCF =    5.54768521120707      tol =   0.554768521120707     
 Begin minimization
 Creating dielectric and ionic cavities
  area:      163.187220471063     
  volume:    674.757627833382     
  Acav:     8.567329074730810E-002
  Solving linear dielectric/ionic screening model
        iter                  A_solv                     rms
   LPB:       -0.356590425768527E+03   0.230819952538388E+03
   LPB:    0  -0.980842043697559E+01   0.350918666530175E+02  -0.458023E+01   0.000000E+00   0.330607E+02  -0.151426E+03
   LPB:    1  -0.183981824492594E+01   0.868153998783770E+01   0.112412E-01   0.000000E+00   0.975400E+02  -0.990613E-14
   LPB:    2  -0.747264452029640E+00   0.133709968978660E+01   0.129877E-01   0.118671E+00   0.320961E+03  -0.132164E-13
   LPB:    3  -0.459633723229615E+00   0.134447688044008E+01   0.269891E-01   0.126688E+00   0.554523E+03  -0.155121E-13
   LPB:    4  -0.368984751734217E+00   0.118794936484609E+01   0.246731E-01   0.344741E+00   0.884943E+02  -0.172975E-13
   LPB:    5  -0.323708193183052E+00   0.684812424121721E+00   0.224987E-01   0.547742E+00   0.439016E+03  -0.878886E-14
   LPB:    6  -0.296031467115654E+00   0.216569760771522E+00   0.303917E-01   0.452528E+00   0.112698E+03  -0.114678E-13
  Finished solving LPB equations
  A_corr:   -0.210358176368346     
 End minimization
 Ecorr=   1766.26530920587     
 A_corr= -0.210358176368346     
 Ecorr_band=  -1766.47566738224     
 End Solvation calculations
RMM:   6    -0.153091892093E+03    0.82861E+01   -0.35608E+02  4080   0.946E+01    0.308E+01
 Begin Solvation calculations
  rms_SCF =    5.54768521120707      tol =   0.554768521120707     
 Begin minimization
 Creating dielectric and ionic cavities
  area:      177.546309988403     
  volume:    696.176396651291     
  Acav:     9.321181274391147E-002
  Solving linear dielectric/ionic screening model
        iter                  A_solv                     rms
   LPB:       -0.933124280522609E+01   0.505081306549390E+02
   LPB:    0  -0.782459208586622E+01   0.462791987146078E+02   0.306594E+00   0.000000E+00   0.320565E+02   0.982833E+01
   LPB:    1  -0.937236022937681E+00   0.418919517644059E+01   0.923376E-02   0.000000E+00   0.744919E+02  -0.707451E-15
   LPB:    2  -0.359950342900822E+00   0.124582686084217E+01   0.152827E-01   0.506428E-01   0.200408E+03  -0.866631E-15
   LPB:    3  -0.268504961261469E+00   0.971631110641166E+00   0.230779E-01   0.104899E+00   0.141874E+03  -0.484063E-14
   LPB:    4  -0.235867719719055E+00   0.636937029379872E+00   0.213744E-01   0.385350E+00   0.252693E+03  -0.109176E-13
   LPB:    5  -0.217663906713616E+00   0.228952420935469E+00   0.274192E-01   0.434798E+00   0.149012E+03  -0.583516E-14
  Finished solving LPB equations
  A_corr:   -0.124452093969705     
 End minimization
 Ecorr=   1669.10601306093     
 A_corr= -0.124452093969705     
 Ecorr_band=  -1669.23046515490     
 End Solvation calculations
RMM:   7    -0.136635476459E+03    0.16456E+02   -0.65349E+01  4106   0.445E+01    0.918E+00
 Begin Solvation calculations
  rms_SCF =    5.54768521120707      tol =   0.554768521120707     
 Begin minimization
 Creating dielectric and ionic cavities
  area:      157.811097600398     
  volume:    694.388053732257     
  Acav:     8.285082624020899E-002
  Solving linear dielectric/ionic screening model
        iter                  A_solv                     rms
   LPB:       -0.293817905893841E+01   0.284718272412411E+02
   LPB:    0  -0.293778367406837E+01   0.284794751153077E+02   0.496020E-02   0.000000E+00   0.321404E+02   0.159423E+00
   LPB:    1  -0.484585443555035E+00   0.271549743097855E+01   0.912407E-02   0.000000E+00   0.725955E+02   0.120406E-16
   LPB:    2  -0.273316282488768E+00   0.427307950470480E+00   0.157184E-01   0.499902E-01   0.153426E+03  -0.380023E-14
   LPB:    3  -0.240641791073086E+00   0.241150477586424E+00   0.241169E-01   0.100799E+00   0.342632E+03  -0.180254E-14
   LPB:    4  -0.232026756418704E+00   0.125537047434948E+00   0.275055E-01   0.231181E+00   0.208063E+03  -0.149803E-14
  Finished solving LPB equations
  A_corr:   -0.149175930178495     
 End minimization
 Ecorr=   1647.89000687204     
 A_corr= -0.149175930178495     
 Ecorr_band=  -1648.03918280222     
 End Solvation calculations
RMM:   8    -0.134037280289E+03    0.25982E+01   -0.35777E+00  4115   0.817E+00    0.608E+00
 Begin Solvation calculations
  rms_SCF =    1.56065158957422      tol =   0.156065158957422     
 Begin minimization
 Creating dielectric and ionic cavities
  area:      165.474423594534     
  volume:    692.526210321916     
  Acav:     8.687407238713045E-002
  Solving linear dielectric/ionic screening model
        iter                  A_solv                     rms
   LPB:       -0.359647484649506E+00   0.320507574805114E+01
   LPB:    0  -0.359516838853347E+00   0.325535943024152E+01   0.284740E-02   0.000000E+00   0.322277E+02   0.917650E-01
   LPB:    1  -0.284194491504780E+00   0.110981821287291E+01   0.116337E-01   0.000000E+00   0.940553E+02   0.394043E-17
   LPB:    2  -0.262897113982863E+00   0.273642932447583E+00   0.172930E-01   0.190217E+00   0.135379E+03  -0.396110E-14
   LPB:    3  -0.254960436335847E+00   0.273018330141446E+00   0.315953E-01   0.203967E+00   0.204774E+03  -0.621373E-14
   LPB:    4  -0.250389384196514E+00   0.240675061859304E+00   0.329727E-01   0.551880E+00   0.542518E+02  -0.708421E-14
   LPB:    5  -0.246893337129465E+00   0.244859348468796E+00   0.292495E-01   0.862179E+00   0.191867E+03  -0.855214E-14
   LPB:    6  -0.243960568201065E+00   0.124620708390104E+00   0.320654E-01   0.765213E+00   0.424441E+02  -0.863259E-14
  Finished solving LPB equations
  A_corr:   -0.157086495813935     
 End minimization
 Ecorr=   1606.39150385855     
 A_corr= -0.157086495813935     
 Ecorr_band=  -1606.54859035436     
 End Solvation calculations
RMM:   9    -0.133500369439E+03    0.53691E+00   -0.14092E+00  4150   0.516E+00    0.378E+00
 Begin Solvation calculations
  rms_SCF =    1.56065158957422      tol =   0.156065158957422     
 Begin minimization
 Creating dielectric and ionic cavities
  area:      151.538465573759     
  volume:    687.472153693146     
  Acav:     7.955769442622372E-002
  Solving linear dielectric/ionic screening model
        iter                  A_solv                     rms
   LPB:       -0.699752178771177E+00   0.782415450901294E+01
   LPB:    0  -0.697750721767261E+00   0.793479757662830E+01   0.111041E-01   0.000000E+00   0.324646E+02   0.360490E+00
   LPB:    1  -0.383988605890223E+00   0.170215838913633E+01   0.109871E-01   0.000000E+00   0.792909E+02  -0.255072E-16
   LPB:    2  -0.333087095857350E+00   0.309729699571221E+00   0.144091E-01   0.123702E+00   0.251785E+03  -0.489075E-14
   LPB:    3  -0.320329847164875E+00   0.238764966325162E+00   0.255177E-01   0.141521E+00   0.406171E+03  -0.531422E-14
   LPB:    4  -0.315767733238722E+00   0.244113652134758E+00   0.293955E-01   0.310434E+00   0.982260E+02  -0.538706E-14
   LPB:    5  -0.312396023476594E+00   0.262120835832202E+00   0.290474E-01   0.747923E+00   0.308456E+03  -0.317918E-14
   LPB:    6  -0.309497905854914E+00   0.114435930777283E+00   0.321154E-01   0.777429E+00   0.548105E+02  -0.971403E-15
  Finished solving LPB equations
  A_corr:   -0.229940211428690     
 End minimization
 Ecorr=   1564.64018755397     
 A_corr= -0.229940211428690     
 Ecorr_band=  -1564.87012776540     
 End Solvation calculations
RMM:  10    -0.133262168960E+03    0.23820E+00   -0.52466E-01  4344   0.210E+00    0.230E+00
 Begin Solvation calculations
  rms_SCF =   0.483432824273487      tol =   4.834328242734872E-002
 Begin minimization
 Creating dielectric and ionic cavities
  area:      144.959942444670     
  volume:    682.329916383810     
  Acav:     7.610396978345156E-002
  Solving linear dielectric/ionic screening model
        iter                  A_solv                     rms
   LPB:       -0.488311626459491E+00   0.331149058363848E+01
   LPB:    0  -0.488297681364981E+00   0.329130267669699E+01  -0.923452E-03   0.000000E+00   0.327057E+02  -0.302021E-01
   LPB:    1  -0.379578929894525E+00   0.129662547108223E+01   0.130550E-01   0.000000E+00   0.103897E+03   0.157904E-17
   LPB:    2  -0.364492473228277E+00   0.261745920041535E+00   0.131555E-01   0.137706E+00   0.165490E+03  -0.706234E-14
   LPB:    3  -0.359687887599724E+00   0.199051647687974E+00   0.231937E-01   0.180637E+00   0.285122E+03  -0.837464E-14
   LPB:    4  -0.357111045046570E+00   0.233664410336933E+00   0.313085E-01   0.397319E+00   0.688941E+02  -0.932394E-14
   LPB:    5  -0.354445564173053E+00   0.215357699742195E+00   0.319002E-01   0.101521E+01   0.203809E+03  -0.867432E-14
   LPB:    6  -0.352050124261251E+00   0.946884050747533E-01   0.339462E-01   0.844526E+00   0.466449E+02  -0.608733E-14
   LPB:    7  -0.350509801121640E+00   0.434886151437145E-01   0.324369E-01   0.672943E+00   0.142258E+03  -0.415412E-14
  Finished solving LPB equations
  A_corr:   -0.274405831338189     
 End minimization
 Ecorr=   1531.74369324849     
 A_corr= -0.274405831338189     
 Ecorr_band=  -1532.01809907983     
 End Solvation calculations
RMM:  11    -0.133256390860E+03    0.57781E-02   -0.38727E-01  4099   0.251E+00    0.193E+00
 Begin Solvation calculations
  rms_SCF =   0.483432824273487      tol =   4.834328242734872E-002
 Begin minimization
 Creating dielectric and ionic cavities
  area:      142.052951951449     
  volume:    677.726801324178     
  Acav:     7.457779977451051E-002
  Solving linear dielectric/ionic screening model
        iter                  A_solv                     rms
   LPB:       -0.492097856214757E+00   0.205935824364939E+01
   LPB:    0  -0.492082513055956E+00   0.202765057128051E+01  -0.965456E-03   0.000000E+00   0.329215E+02  -0.317843E-01
   LPB:    1  -0.412657830465989E+00   0.951926288100955E+00   0.150491E-01   0.000000E+00   0.132440E+03   0.147724E-17
   LPB:    2  -0.402696153359090E+00   0.331370946708992E+00   0.148437E-01   0.127159E+00   0.136281E+03  -0.552937E-14
   LPB:    3  -0.399261289711772E+00   0.175871912939994E+00   0.195025E-01   0.262439E+00   0.263915E+03  -0.575923E-14
   LPB:    4  -0.398012535316720E+00   0.185602141596790E+00   0.228887E-01   0.309767E+00   0.106991E+03  -0.541912E-14
   LPB:    5  -0.396908511684007E+00   0.140710506317067E+00   0.283023E-01   0.714993E+00   0.243782E+03  -0.610624E-14
   LPB:    6  -0.395740536575941E+00   0.583020948894338E-01   0.410700E-01   0.729040E+00   0.605755E+02  -0.758033E-14
   LPB:    7  -0.394772880507867E+00   0.365833548378360E-01   0.382056E-01   0.890605E+00   0.113053E+03  -0.905454E-14
  Finished solving LPB equations
  A_corr:   -0.320195080733357     
 End minimization
 Ecorr=   1508.33038723714     
 A_corr= -0.320195080733357     
 Ecorr_band=  -1508.65058231788     
 End Solvation calculations
RMM:  12    -0.133196389511E+03    0.60001E-01   -0.16332E-01  4114   0.183E+00    0.717E-01
 Begin Solvation calculations
  rms_SCF =   0.252233292817977      tol =   2.522332928179775E-002
 Begin minimization
 Creating dielectric and ionic cavities
  area:      142.040049259877     
  volume:    676.315251678220     
  Acav:     7.457102586143535E-002
  Solving linear dielectric/ionic screening model
        iter                  A_solv                     rms
   LPB:       -0.419625763405880E+00   0.658917929157230E+00
   LPB:    0  -0.419617608143932E+00   0.635807266706668E+00  -0.703167E-03   0.000000E+00   0.329877E+02  -0.231958E-01
   LPB:    1  -0.410318816701770E+00   0.350864685447046E+00   0.150369E-01   0.000000E+00   0.161304E+03  -0.403262E-18
   LPB:    2  -0.409068687578085E+00   0.119141508794142E+00   0.147935E-01   0.136652E+00   0.115726E+03  -0.839837E-15
   LPB:    3  -0.408636369506558E+00   0.636635297550746E-01   0.197066E-01   0.259601E+00   0.254728E+03  -0.115816E-14
   LPB:    4  -0.408435578051256E+00   0.807038426224651E-01   0.266817E-01   0.343037E+00   0.911585E+02  -0.119080E-14
   LPB:    5  -0.408118671585939E+00   0.875377587065686E-01   0.395206E-01   0.106556E+01   0.183467E+03  -0.967878E-15
   LPB:    6  -0.407648066819436E+00   0.414494238059392E-01   0.448566E-01   0.130835E+01   0.332876E+02  -0.889951E-15
   LPB:    7  -0.407355937793346E+00   0.226297405846952E-01   0.312074E-01   0.892249E+00   0.106946E+03  -0.842638E-16
  Finished solving LPB equations
  A_corr:   -0.332784911931911     
 End minimization
 Ecorr=   1497.87437764984     
 A_corr= -0.332784911931911     
 Ecorr_band=  -1498.20716256177     
 End Solvation calculations
RMM:  13    -0.133188039447E+03    0.83501E-02   -0.26196E-02  4158   0.611E-01    0.419E-01
 Begin Solvation calculations
  rms_SCF =   0.252233292817977      tol =   2.522332928179775E-002
 Begin minimization
 Creating dielectric and ionic cavities
  area:      142.485632455630     
  volume:    673.926585641101     
  Acav:     7.480495703920599E-002
  Solving linear dielectric/ionic screening model
        iter                  A_solv                     rms
   LPB:       -0.468812935001852E+00   0.132180539823037E+01
   LPB:    0  -0.468422758632120E+00   0.114451501671999E+01  -0.485550E-02   0.000000E+00   0.330996E+02  -0.160715E+00
   LPB:    1  -0.436652360694864E+00   0.493918166982437E+00   0.154499E-01   0.000000E+00   0.157220E+03   0.111256E-16
   LPB:    2  -0.432865002946633E+00   0.184938432233252E+00   0.157346E-01   0.117053E+00   0.132939E+03  -0.389494E-14
   LPB:    3  -0.431855008673278E+00   0.720493136148188E-01   0.198776E-01   0.211093E+00   0.153562E+03  -0.499616E-14
   LPB:    4  -0.431512045053292E+00   0.945187818082778E-01   0.235338E-01   0.286815E+00   0.221191E+03  -0.623305E-14
   LPB:    5  -0.431328526085238E+00   0.808615762235323E-01   0.206322E-01   0.610350E+00   0.188462E+03  -0.664045E-14
   LPB:    6  -0.431171182868442E+00   0.266474880675164E-01   0.292041E-01   0.605717E+00   0.787375E+02  -0.678993E-14
   LPB:    7  -0.431046912608095E+00   0.159463493224610E-01   0.367010E-01   0.628470E+00   0.188988E+03  -0.766219E-14
  Finished solving LPB equations
  A_corr:   -0.356241955568889     
 End minimization
 Ecorr=   1489.32700147512     
 A_corr= -0.356241955568889     
 Ecorr_band=  -1489.68324343069     
 End Solvation calculations
RMM:  14    -0.133190155845E+03   -0.21164E-02   -0.18444E-02  4307   0.387E-01    0.334E-01
 Begin Solvation calculations
  rms_SCF =   0.238736128040757      tol =   2.387361280407568E-002
 Begin minimization
 Creating dielectric and ionic cavities
  area:      143.014075596317     
  volume:    672.249831884291     
  Acav:     7.508238968806663E-002
  Solving linear dielectric/ionic screening model
        iter                  A_solv                     rms
   LPB:       -0.482284680825082E+00   0.112527904033286E+01
   LPB:    0  -0.482181506576139E+00   0.104371530141715E+01  -0.249387E-02   0.000000E+00   0.331783E+02  -0.827423E-01
   LPB:    1  -0.457877529223443E+00   0.619944454097794E+00   0.145535E-01   0.000000E+00   0.170900E+03  -0.163979E-17
   LPB:    2  -0.454706839212032E+00   0.170331190449576E+00   0.139332E-01   0.136267E+00   0.978829E+02   0.171080E-15
   LPB:    3  -0.453800890308012E+00   0.921518956675527E-01   0.188935E-01   0.210713E+00   0.259063E+03   0.149417E-15
   LPB:    4  -0.453447110506941E+00   0.840081777752992E-01   0.229095E-01   0.322052E+00   0.111126E+03  -0.343649E-15
   LPB:    5  -0.453186811098133E+00   0.704518993179642E-01   0.274593E-01   0.613855E+00   0.244574E+03  -0.423143E-15
   LPB:    6  -0.452946203463519E+00   0.283589785308605E-01   0.360129E-01   0.704801E+00   0.661225E+02  -0.802126E-16
   LPB:    7  -0.452759676386343E+00   0.196725072479181E-01   0.365943E-01   0.762917E+00   0.155029E+03   0.476301E-15
  Finished solving LPB equations
  A_corr:   -0.377677286698276     
 End minimization
 Ecorr=   1480.20467796499     
 A_corr= -0.377677286698276     
 Ecorr_band=  -1480.58235525169     
 End Solvation calculations
RMM:  15    -0.133191981375E+03   -0.18255E-02   -0.84872E-03  4097   0.331E-01    0.199E-01
 Begin Solvation calculations
  rms_SCF =   0.238736128040757      tol =   2.387361280407568E-002
 Begin minimization
 Creating dielectric and ionic cavities
  area:      143.696680259540     
  volume:    670.739827421258     
  Acav:     7.544075713625861E-002
  Solving linear dielectric/ionic screening model
        iter                  A_solv                     rms
   LPB:       -0.522610184462637E+00   0.143311610636490E+01
   LPB:    0  -0.522259566890186E+00   0.127501234717983E+01  -0.459243E-02   0.000000E+00   0.332490E+02  -0.152694E+00
   LPB:    1  -0.485841464892054E+00   0.690232704866199E+00   0.149638E-01   0.000000E+00   0.159981E+03  -0.476831E-17
   LPB:    2  -0.481191415266508E+00   0.215078572782780E+00   0.143992E-01   0.132692E+00   0.974327E+02   0.101889E-14
   LPB:    3  -0.479994779341182E+00   0.117161687615412E+00   0.184379E-01   0.200970E+00   0.236014E+03  -0.385762E-16
   LPB:    4  -0.479517008755090E+00   0.999975082264019E-01   0.218023E-01   0.337650E+00   0.119769E+03  -0.101154E-14
   LPB:    5  -0.479181174593054E+00   0.822978819082415E-01   0.262835E-01   0.583074E+00   0.236514E+03  -0.134046E-14
   LPB:    6  -0.478864213990447E+00   0.326517481471380E-01   0.355080E-01   0.698614E+00   0.707648E+02  -0.104618E-14
   LPB:    7  -0.478611911665480E+00   0.223711373186416E-01   0.373789E-01   0.756163E+00   0.161157E+03  -0.508945E-15
  Finished solving LPB equations
  A_corr:   -0.403171154529221     
 End minimization
 Ecorr=   1470.05639266973     
 A_corr= -0.403171154529221     
 Ecorr_band=  -1470.45956382426     
 End Solvation calculations
RMM:  16    -0.133195916014E+03   -0.39346E-02   -0.55151E-03  4356   0.164E-01    0.157E-01
 Begin Solvation calculations
  rms_SCF =   0.238736128040757      tol =   2.387361280407568E-002
 Begin minimization
 Creating dielectric and ionic cavities
  area:      144.405243841224     
  volume:    669.760388848723     
  Acav:     7.581275301664275E-002
  Solving linear dielectric/ionic screening model
        iter                  A_solv                     rms
   LPB:       -0.559374250466749E+00   0.173251875170818E+01
   LPB:    0  -0.558677544940952E+00   0.152386508577152E+01  -0.646920E-02   0.000000E+00   0.332950E+02  -0.215392E+00
   LPB:    1  -0.514102562691917E+00   0.601256682320835E+00   0.155208E-01   0.000000E+00   0.131703E+03   0.578987E-17
   LPB:    2  -0.508792562454976E+00   0.222134388837256E+00   0.151316E-01   0.122188E+00   0.116316E+03   0.365336E-14
   LPB:    3  -0.507499074478402E+00   0.117498270644836E+00   0.198156E-01   0.186015E+00   0.156298E+03   0.447635E-14
   LPB:    4  -0.506957800041931E+00   0.115754869685280E+00   0.231738E-01   0.357820E+00   0.148071E+03   0.163205E-14
   LPB:    5  -0.506583504438330E+00   0.109607079164201E+00   0.241248E-01   0.664250E+00   0.209552E+03   0.468484E-15
   LPB:    6  -0.506200623607572E+00   0.435126134140667E-01   0.316912E-01   0.778705E+00   0.686326E+02  -0.524731E-15
   LPB:    7  -0.505888521335850E+00   0.232686579057297E-01   0.367743E-01   0.702470E+00   0.183539E+03  -0.232453E-14
  Finished solving LPB equations
  A_corr:   -0.430075768319208     
 End minimization
 Ecorr=   1459.61694623492     
 A_corr= -0.430075768319208     
 Ecorr_band=  -1460.04702200324     
 End Solvation calculations
RMM:  17    -0.133200290329E+03   -0.43743E-02   -0.45573E-03  4073   0.171E-01    0.180E-01
 Begin Solvation calculations
  rms_SCF =   0.238736128040757      tol =   2.387361280407568E-002
 Begin minimization
 Creating dielectric and ionic cavities
  area:      145.024144154057     
  volume:    669.247423544873     
  Acav:     7.613767568087981E-002
  Solving linear dielectric/ionic screening model
        iter                  A_solv                     rms
   LPB:       -0.572207201528651E+00   0.167977307823929E+01
   LPB:    0  -0.571489958213099E+00   0.148578629095926E+01  -0.656149E-02   0.000000E+00   0.333190E+02  -0.218622E+00
   LPB:    1  -0.536198656492198E+00   0.447093734763910E+00   0.156820E-01   0.000000E+00   0.111248E+03  -0.850938E-18
   LPB:    2  -0.532168919603773E+00   0.180350599924811E+00   0.153493E-01   0.116660E+00   0.147383E+03  -0.845332E-14
   LPB:    3  -0.531202504672447E+00   0.714733828912715E-01   0.210401E-01   0.174955E+00   0.119986E+03  -0.104250E-13
   LPB:    4  -0.530751566703806E+00   0.516452455527185E-01   0.294826E-01   0.332994E+00   0.258380E+03  -0.106646E-13
   LPB:    5  -0.530387936044608E+00   0.995436457746792E-01   0.373909E-01   0.635834E+00   0.147001E+03  -0.106382E-13
   LPB:    6  -0.530129463561960E+00   0.105909825539458E+00   0.242869E-01   0.109433E+01   0.656038E+02  -0.103072E-13
   LPB:    7  -0.529882936312368E+00   0.377963239786894E-01   0.256717E-01   0.902337E+00   0.180951E+03  -0.999229E-14
   LPB:    8  -0.529703607865582E+00   0.172729290738853E-01   0.329903E-01   0.566047E+00   0.174950E+03  -0.939592E-14
  Finished solving LPB equations
  A_corr:   -0.453565932184703     
 End minimization
 Ecorr=   1450.09735118053     
 A_corr= -0.453565932184703     
 Ecorr_band=  -1450.55091711271     
 End Solvation calculations
RMM:  18    -0.133202988383E+03   -0.26981E-02   -0.29128E-03  4052   0.131E-01    0.167E-01
 Begin Solvation calculations
  rms_SCF =   0.236295457441785      tol =   2.362954574417854E-002
 Begin minimization
 Creating dielectric and ionic cavities
  area:      145.373642499446     
  volume:    669.312783506252     
  Acav:     7.632116231220901E-002
  Solving linear dielectric/ionic screening model
        iter                  A_solv                     rms
   LPB:       -0.574647968574207E+00   0.192529330120072E+01
   LPB:    0  -0.573486077966302E+00   0.175140727835735E+01  -0.835164E-02   0.000000E+00   0.333159E+02  -0.278243E+00
   LPB:    1  -0.547360990239979E+00   0.386952516691726E+00   0.146773E-01   0.000000E+00   0.739989E+02   0.175590E-17
   LPB:    2  -0.544488894007051E+00   0.182120812598046E+00   0.134941E-01   0.119576E+00   0.260085E+03  -0.186358E-14
   LPB:    3  -0.543838386399147E+00   0.824931660065924E-01   0.172402E-01   0.177278E+00   0.135476E+03  -0.261749E-14
   LPB:    4  -0.543607388287497E+00   0.666454308794952E-01   0.210399E-01   0.290974E+00   0.181197E+03  -0.281845E-14
   LPB:    5  -0.543487891827150E+00   0.468644364796850E-01   0.251246E-01   0.433203E+00   0.123314E+03  -0.278339E-14
   LPB:    6  -0.543372481310894E+00   0.227725738028168E-01   0.352535E-01   0.688315E+00   0.102769E+03  -0.343507E-14
  Finished solving LPB equations
  A_corr:   -0.467051318998685     
 End minimization
 Ecorr=   1446.19846967292     
 A_corr= -0.467051318998685     
 Ecorr_band=  -1446.66552099192     
 End Solvation calculations
RMM:  19    -0.133204800582E+03   -0.18122E-02   -0.34074E-03  4098   0.116E-01    0.786E-02
 Begin Solvation calculations
  rms_SCF =   0.100334030956678      tol =   1.003340309566780E-002
 Begin minimization
 Creating dielectric and ionic cavities
  area:      145.537709206380     
  volume:    669.483094165987     
  Acav:     7.640729733334972E-002
  Solving linear dielectric/ionic screening model
        iter                  A_solv                     rms
   LPB:       -0.559711112876231E+00   0.103220688400702E+01
   LPB:    0  -0.559371539895922E+00   0.941390495959541E+00  -0.451552E-02   0.000000E+00   0.333080E+02  -0.150403E+00
   LPB:    1  -0.551489682372159E+00   0.171080256542243E+00   0.147035E-01   0.000000E+00   0.772667E+02   0.658849E-17
   LPB:    2  -0.550731463120174E+00   0.103920707793892E+00   0.143456E-01   0.985986E-01   0.270967E+03  -0.376795E-14
   LPB:    3  -0.550553450464059E+00   0.484353882997673E-01   0.171958E-01   0.195862E+00   0.102973E+03  -0.416675E-14
   LPB:    4  -0.550435124845009E+00   0.579383494603753E-01   0.293930E-01   0.388872E+00   0.136786E+03  -0.421255E-14
   LPB:    5  -0.550315978567116E+00   0.560038520476029E-01   0.322644E-01   0.917323E+00   0.868146E+02  -0.421101E-14
   LPB:    6  -0.550195003415045E+00   0.250122557286275E-01   0.313674E-01   0.104438E+01   0.747930E+02  -0.454337E-14
   LPB:    7  -0.550106972863399E+00   0.115353137443126E-01   0.334362E-01   0.682651E+00   0.224360E+03  -0.440278E-14
   LPB:    8  -0.550047573659724E+00   0.770933035522438E-02   0.368480E-01   0.612280E+00   0.267583E+03  -0.415796E-14
  Finished solving LPB equations
  A_corr:   -0.473640276326374     
 End minimization
 Ecorr=   1442.82042240358     
 A_corr= -0.473640276326374     
 Ecorr_band=  -1443.29406267991     
 End Solvation calculations
RMM:  20    -0.133205813103E+03   -0.10125E-02   -0.95156E-04  4105   0.974E-02    0.883E-02
 Begin Solvation calculations
  rms_SCF =   0.100334030956678      tol =   1.003340309566780E-002
 Begin minimization
 Creating dielectric and ionic cavities
  area:      145.725517874616     
  volume:    669.645110257907     
  Acav:     7.650589688417356E-002
  Solving linear dielectric/ionic screening model
        iter                  A_solv                     rms
   LPB:       -0.570902078736337E+00   0.129953336450634E+01
   LPB:    0  -0.570428463625642E+00   0.119746503602048E+01  -0.533339E-02   0.000000E+00   0.333004E+02  -0.177604E+00
   LPB:    1  -0.559750055431698E+00   0.248790192104101E+00   0.142180E-01   0.000000E+00   0.695249E+02   0.144229E-16
   LPB:    2  -0.558632103262491E+00   0.113662408316778E+00   0.131222E-01   0.113435E+00   0.269173E+03  -0.522335E-14
   LPB:    3  -0.558382814844025E+00   0.452124657383537E-01   0.169252E-01   0.172883E+00   0.140855E+03  -0.584687E-14
   LPB:    4  -0.558301808079076E+00   0.367311694686644E-01   0.214159E-01   0.256813E+00   0.177261E+03  -0.611881E-14
   LPB:    5  -0.558265407363317E+00   0.250990347019403E-01   0.240166E-01   0.400695E+00   0.129693E+03  -0.612451E-14
   LPB:    6  -0.558233956732421E+00   0.123038269714911E-01   0.334830E-01   0.619736E+00   0.112505E+03  -0.644622E-14
   LPB:    7  -0.558200015896918E+00   0.801819112543524E-02   0.424710E-01   0.850795E+00   0.136102E+03  -0.685783E-14
  Finished solving LPB equations
  A_corr:   -0.481694119012744     
 End minimization
 Ecorr=   1440.30775284648     
 A_corr= -0.481694119012744     
 Ecorr_band=  -1440.78944696549     
 End Solvation calculations
RMM:  21    -0.133206576295E+03   -0.76319E-03   -0.77488E-04  4046   0.479E-02    0.625E-02
 Begin Solvation calculations
  rms_SCF =   0.100334030956678      tol =   1.003340309566780E-002
 Begin minimization
 Creating dielectric and ionic cavities
  area:      145.819286717863     
  volume:    669.815432012528     
  Acav:     7.655512552687825E-002
  Solving linear dielectric/ionic screening model
        iter                  A_solv                     rms
   LPB:       -0.570533790534998E+00   0.107523730863655E+01
   LPB:    0  -0.570274287679181E+00   0.101030573183984E+01  -0.394833E-02   0.000000E+00   0.332924E+02  -0.131449E+00
   LPB:    1  -0.563854044504103E+00   0.198740339550970E+00   0.134209E-01   0.000000E+00   0.667892E+02  -0.419995E-17
   LPB:    2  -0.563216462135051E+00   0.824435222089292E-01   0.125019E-01   0.106608E+00   0.269051E+03  -0.109773E-14
   LPB:    3  -0.563078281816417E+00   0.281562945648345E-01   0.171567E-01   0.157925E+00   0.142213E+03  -0.142653E-14
   LPB:    4  -0.563034341261795E+00   0.277909318002849E-01   0.243947E-01   0.223644E+00   0.138568E+03  -0.166008E-14
   LPB:    5  -0.563005146014981E+00   0.249709511233955E-01   0.293002E-01   0.553187E+00   0.120382E+03  -0.183556E-14
   LPB:    6  -0.562973448242687E+00   0.131832856299238E-01   0.354341E-01   0.897773E+00   0.801007E+02  -0.206817E-14
   LPB:    7  -0.562944054496874E+00   0.652056654006083E-02   0.366221E-01   0.897230E+00   0.133362E+03  -0.289055E-14
  Finished solving LPB equations
  A_corr:   -0.486388928969996     
 End minimization
 Ecorr=   1438.26202375513     
 A_corr= -0.486388928969996     
 Ecorr_band=  -1438.74841268410     
 End Solvation calculations
RMM:  22    -0.133207079285E+03   -0.50299E-03   -0.36398E-04  4091   0.490E-02    0.467E-02
 Begin Solvation calculations
  rms_SCF =   0.100334030956678      tol =   1.003340309566780E-002
 Begin minimization
 Creating dielectric and ionic cavities
  area:      145.824058098941     
  volume:    669.933910934976     
  Acav:     7.655763050194395E-002
  Solving linear dielectric/ionic screening model
        iter                  A_solv                     rms
   LPB:       -0.571553079000198E+00   0.116623476709755E+01
   LPB:    0  -0.571331642421769E+00   0.112320239438592E+01  -0.364757E-02   0.000000E+00   0.332868E+02  -0.121416E+00
   LPB:    1  -0.565394619240520E+00   0.196588022928402E+00   0.117358E-01   0.000000E+00   0.667983E+02  -0.419632E-17
   LPB:    2  -0.564799502649956E+00   0.578984741514974E-01   0.118488E-01   0.992823E-01   0.265772E+03  -0.605823E-15
   LPB:    3  -0.564703874125197E+00   0.169349880491627E-01   0.181746E-01   0.104760E+00   0.160091E+03  -0.656577E-15
   LPB:    4  -0.564682724711392E+00   0.157078048543220E-01   0.239949E-01   0.167516E+00   0.149618E+03  -0.741092E-15
   LPB:    5  -0.564670929016179E+00   0.164833643530628E-01   0.296844E-01   0.450833E+00   0.137506E+03  -0.662681E-15
   LPB:    6  -0.564657997772223E+00   0.107591224187144E-01   0.352441E-01   0.923336E+00   0.773131E+02  -0.540271E-15
   LPB:    7  -0.564642654613625E+00   0.525019819514646E-02   0.395473E-01   0.105741E+01   0.103181E+03  -0.389507E-15
  Finished solving LPB equations
  A_corr:   -0.488085024111681     
 End minimization
 Ecorr=   1437.13958890650     
 A_corr= -0.488085024111681     
 Ecorr_band=  -1437.62767393061     
 End Solvation calculations
RMM:  23    -0.133207471773E+03   -0.39249E-03   -0.20272E-04  3917   0.292E-02    0.459E-02
 Begin Solvation calculations
  rms_SCF =   9.626047309777817E-002 tol =   9.626047309777817E-003
 Begin minimization
 Creating dielectric and ionic cavities
  area:      145.820771471858     
  volume:    669.971846454274     
  Acav:     7.655590502272569E-002
  Solving linear dielectric/ionic screening model
        iter                  A_solv                     rms
   LPB:       -0.568499467239219E+00   0.804795664872657E+00
   LPB:    0  -0.568419018308877E+00   0.782453156402653E+00  -0.219862E-02   0.000000E+00   0.332850E+02  -0.731812E-01
   LPB:    1  -0.565926377767755E+00   0.124547749713597E+00   0.109882E-01   0.000000E+00   0.662985E+02   0.598134E-17
   LPB:    2  -0.565657870481890E+00   0.320719068962078E-01   0.122004E-01   0.970168E-01   0.248858E+03  -0.577279E-16
   LPB:    3  -0.565620975256896E+00   0.975573710755915E-02   0.186212E-01   0.900286E-01   0.174003E+03  -0.589087E-16
   LPB:    4  -0.565613210951489E+00   0.934609891443214E-02   0.244234E-01   0.160448E+00   0.151563E+03  -0.880492E-16
  Finished solving LPB equations
  A_corr:   -0.489057305928763     
 End minimization
 Ecorr=   1436.63863337319     
 A_corr= -0.489057305928763     
 Ecorr_band=  -1437.12769067912     
 End Solvation calculations
RMM:  24    -0.133207514921E+03   -0.43148E-04   -0.13552E-04  3896   0.241E-02    0.225E-02
 Begin Solvation calculations
  rms_SCF =   2.847067800936660E-002 tol =   2.847067800936660E-003
 Begin minimization
 Creating dielectric and ionic cavities
  area:      145.795520795983     
  volume:    669.953888374408     
  Acav:     7.654264841789102E-002
  Solving linear dielectric/ionic screening model
        iter                  A_solv                     rms
   LPB:       -0.567376867660682E+00   0.654368929175433E+00
   LPB:    0  -0.567344385088988E+00   0.643760049841954E+00  -0.139704E-02   0.000000E+00   0.332859E+02  -0.465019E-01
   LPB:    1  -0.565682992320177E+00   0.885607891676603E-01   0.102834E-01   0.000000E+00   0.749407E+02  -0.335068E-17
   LPB:    2  -0.565549495672402E+00   0.230987963801356E-01   0.116302E-01   0.710476E-01   0.269461E+03  -0.552914E-16
   LPB:    3  -0.565532449622355E+00   0.660209705413252E-02   0.212739E-01   0.698059E-01   0.117163E+03  -0.104168E-15
   LPB:    4  -0.565524640396932E+00   0.658862212183315E-02   0.353494E-01   0.275708E+00   0.104712E+03  -0.148348E-15
   LPB:    5  -0.565518136738415E+00   0.928966271703124E-02   0.394625E-01   0.746015E+00   0.150964E+03  -0.136674E-15
   LPB:    6  -0.565512794852293E+00   0.107194750397458E-01   0.328557E-01   0.986530E+00   0.701949E+02  -0.120841E-15
   LPB:    7  -0.565507887355829E+00   0.538803609239673E-02   0.292833E-01   0.103075E+01   0.138112E+03  -0.154101E-15
   LPB:    8  -0.565503860141281E+00   0.278444536481527E-02   0.359072E-01   0.669244E+00   0.136752E+03  -0.229553E-15
  Finished solving LPB equations
  A_corr:   -0.488961211723390     
 End minimization
 Ecorr=   1435.88912280641     
 A_corr= -0.488961211723390     
 Ecorr_band=  -1436.37808401813     
 End Solvation calculations
RMM:  25    -0.133207706557E+03   -0.19164E-03   -0.10744E-04  3457   0.225E-02    0.112E-02
 Begin Solvation calculations
  rms_SCF =   1.246785985081367E-002 tol =   1.246785985081367E-003
 Begin minimization
 Creating dielectric and ionic cavities
  area:      145.776691436755     
  volume:    669.910001943318     
  Acav:     7.653276300429662E-002
  Solving linear dielectric/ionic screening model
        iter                  A_solv                     rms
   LPB:       -0.564539432862268E+00   0.173597487780076E+00
   LPB:    0  -0.564533122104654E+00   0.164441349318671E+00   0.615761E-03   0.000000E+00   0.332879E+02   0.204974E-01
   LPB:    1  -0.564300927384662E+00   0.366889106389914E-01   0.148732E-01   0.000000E+00   0.754888E+02  -0.747287E-19
   LPB:    2  -0.564275938434368E+00   0.183271145265171E-01   0.134093E-01   0.119370E+00   0.268543E+03   0.382005E-15
   LPB:    3  -0.564268773878021E+00   0.793356576799317E-02   0.185523E-01   0.207229E+00   0.135488E+03   0.434923E-15
   LPB:    4  -0.564265031384666E+00   0.811213443450589E-02   0.267638E-01   0.362094E+00   0.258140E+03   0.475535E-15
   LPB:    5  -0.564263033974682E+00   0.575967769723227E-02   0.244112E-01   0.585146E+00   0.135368E+03   0.499667E-15
   LPB:    6  -0.564261892036805E+00   0.264815923072840E-02   0.258803E-01   0.539257E+00   0.202344E+03   0.550988E-15
   LPB:    7  -0.564261192322988E+00   0.125510468868576E-02   0.313871E-01   0.505237E+00   0.773618E+03   0.531312E-15
   LPB:    8  -0.564260693051800E+00   0.885599157969467E-03   0.368262E-01   0.608150E+00   0.149338E+04   0.561222E-15
  Finished solving LPB equations
  A_corr:   -0.487727930047504     
 End minimization
 Ecorr=   1436.10426723279     
 A_corr= -0.487727930047504     
 Ecorr_band=  -1436.59199516283     
 End Solvation calculations
RMM:  26    -0.133207813724E+03   -0.10717E-03   -0.32358E-05  2551   0.169E-02    0.856E-03
 Begin Solvation calculations
  rms_SCF =   9.361851571011137E-003 tol =   9.361851571011137E-004
 Begin minimization
 Creating dielectric and ionic cavities
  area:      145.790131413585     
  volume:    669.875719800453     
  Acav:     7.653981899213207E-002
  Solving linear dielectric/ionic screening model
        iter                  A_solv                     rms
   LPB:       -0.564591759448629E+00   0.802387137739255E-01
   LPB:    0  -0.564590292860047E+00   0.737067833848858E-01  -0.296835E-03   0.000000E+00   0.332896E+02  -0.988151E-02
   LPB:    1  -0.564564655567310E+00   0.104768590774951E-01   0.976198E-02   0.000000E+00   0.890264E+02   0.442764E-18
   LPB:    2  -0.564563060272576E+00   0.268430628326392E-02   0.120145E-01   0.505594E-01   0.201155E+03   0.345657E-16
   LPB:    3  -0.564562673461268E+00   0.182212921202371E-02   0.244850E-01   0.118977E+00   0.166622E+03   0.413389E-16
   LPB:    4  -0.564562458402542E+00   0.256726095092193E-02   0.334412E-01   0.407076E+00   0.762288E+02   0.451408E-16
   LPB:    5  -0.564562234104345E+00   0.158067784238233E-02   0.301068E-01   0.115847E+01   0.305112E+03   0.679777E-16
   LPB:    6  -0.564561977542508E+00   0.849961360788325E-03   0.436148E-01   0.789582E+00   0.904521E+02   0.685737E-16
  Finished solving LPB equations
  A_corr:   -0.488022158550376     
 End minimization
 Ecorr=   1435.85866173316     
 A_corr= -0.488022158550376     
 Ecorr_band=  -1436.34668389171     
 End Solvation calculations
RMM:  27    -0.133207854918E+03   -0.41194E-04   -0.11688E-05  2376   0.132E-02    0.529E-03
 Begin Solvation calculations
  rms_SCF =   7.890737118462370E-003 tol =   7.890737118462371E-004
 Begin minimization
 Creating dielectric and ionic cavities
  area:      145.815434278234     
  volume:    669.846240119206     
  Acav:     7.655310299607308E-002
  Solving linear dielectric/ionic screening model
        iter                  A_solv                     rms
   LPB:       -0.565934524054834E+00   0.281247065111314E+00
   LPB:    0  -0.565919349587941E+00   0.265563872345694E+00  -0.954792E-03   0.000000E+00   0.332909E+02  -0.317859E-01
   LPB:    1  -0.565641585293028E+00   0.405047883660258E-01   0.106149E-01   0.000000E+00   0.664631E+02   0.170576E-17
   LPB:    2  -0.565610667510081E+00   0.119606344641097E-01   0.129085E-01   0.915312E-01   0.206195E+03   0.490640E-15
   LPB:    3  -0.565606157742495E+00   0.483712199752759E-02   0.177269E-01   0.106216E+00   0.165685E+03   0.567369E-15
   LPB:    4  -0.565605102748876E+00   0.400584548761521E-02   0.233721E-01   0.177432E+00   0.106310E+03   0.573852E-15
   LPB:    5  -0.565604637205206E+00   0.252979538793821E-02   0.231525E-01   0.445461E+00   0.171908E+03   0.608020E-15
   LPB:    6  -0.565604281041355E+00   0.909687447895678E-03   0.321522E-01   0.550904E+00   0.980302E+02   0.617598E-15
   LPB:    7  -0.565603972300536E+00   0.605754063848625E-03   0.405276E-01   0.687708E+00   0.137041E+03   0.618023E-15
  Finished solving LPB equations
  A_corr:   -0.489050869304463     
 End minimization
 Ecorr=   1435.40601523035     
 A_corr= -0.489050869304463     
 Ecorr_band=  -1435.89506609965     
 End Solvation calculations
RMM:  28    -0.133207871780E+03   -0.16862E-04   -0.93445E-06  2377   0.966E-03    0.687E-03
 Begin Solvation calculations
  rms_SCF =   7.890737118462370E-003 tol =   7.890737118462371E-004
 Begin minimization
 Creating dielectric and ionic cavities
  area:      145.821556785838     
  volume:    669.809016259389     
  Acav:     7.655631731256517E-002
  Solving linear dielectric/ionic screening model
        iter                  A_solv                     rms
   LPB:       -0.565533710788979E+00   0.502066508786172E-01
   LPB:    0  -0.565533691356728E+00   0.497194461760060E-01  -0.341666E-04   0.000000E+00   0.332927E+02  -0.113750E-02
   LPB:    1  -0.565491389923859E+00   0.144889770928218E-01   0.151258E-01   0.000000E+00   0.139856E+03  -0.518898E-19
   LPB:    2  -0.565487812216670E+00   0.764038670940067E-02   0.173731E-01   0.736358E-01   0.794915E+02   0.673052E-16
   LPB:    3  -0.565486849039894E+00   0.430344522028298E-02   0.179671E-01   0.260317E+00   0.244186E+03   0.176929E-15
   LPB:    4  -0.565486367380361E+00   0.202257974794760E-02   0.212156E-01   0.423502E+00   0.200948E+03   0.204440E-15
   LPB:    5  -0.565486130889125E+00   0.183048684353570E-02   0.245244E-01   0.424749E+00   0.472828E+03   0.218784E-15
   LPB:    6  -0.565485986758645E+00   0.147499362220195E-02   0.269836E-01   0.553909E+00   0.126896E+03   0.227896E-15
   LPB:    7  -0.565485865138119E+00   0.996939398141960E-03   0.310552E-01   0.733192E+00   0.505300E+03   0.223567E-15
   LPB:    8  -0.565485745556818E+00   0.534585356031640E-03   0.409564E-01   0.745537E+00   0.134095E+03   0.220889E-15
  Finished solving LPB equations
  A_corr:   -0.488929428244253     
 End minimization
 Ecorr=   1435.25956004294     
 A_corr= -0.488929428244253     
 Ecorr_band=  -1435.74848947118     
 End Solvation calculations
RMM:  29    -0.133207906936E+03   -0.35156E-04   -0.11338E-05  2422   0.898E-03    0.318E-03
 Begin Solvation calculations
  rms_SCF =   4.813760394843782E-003 tol =   4.813760394843782E-004
 Begin minimization
 Creating dielectric and ionic cavities
  area:      145.822981589204     
  volume:    669.798613545722     
  Acav:     7.655706533433185E-002
  Solving linear dielectric/ionic screening model
        iter                  A_solv                     rms
   LPB:       -0.565361241361083E+00   0.424863846500551E-01
   LPB:    0  -0.565361173756221E+00   0.417972714902705E-01  -0.637274E-04   0.000000E+00   0.332932E+02  -0.212169E-02
   LPB:    1  -0.565342236372344E+00   0.714067832726939E-02   0.151948E-01   0.000000E+00   0.912738E+02  -0.155287E-18
   LPB:    2  -0.565340827415019E+00   0.424436952448924E-02   0.171138E-01   0.660584E-01   0.141321E+03   0.381527E-16
   LPB:    3  -0.565340484824750E+00   0.221207033118527E-02   0.171442E-01   0.242720E+00   0.140011E+03   0.290609E-16
   LPB:    4  -0.565340344668727E+00   0.160087053479140E-02   0.210460E-01   0.333261E+00   0.305261E+03   0.172894E-16
   LPB:    5  -0.565340266268427E+00   0.129476893398129E-02   0.248766E-01   0.473244E+00   0.163863E+03   0.134038E-16
   LPB:    6  -0.565340192070003E+00   0.979105331691181E-03   0.320138E-01   0.735412E+00   0.153637E+03   0.100660E-16
   LPB:    7  -0.565340111792910E+00   0.675249922388404E-03   0.358712E-01   0.965580E+00   0.293520E+03   0.124976E-16
   LPB:    8  -0.565340031907373E+00   0.396649221168308E-03   0.399812E-01   0.892825E+00   0.218395E+03   0.209317E-16
  Finished solving LPB equations
  A_corr:   -0.488782966573041     
 End minimization
 Ecorr=   1435.21673034754     
 A_corr= -0.488782966573041     
 Ecorr_band=  -1435.70551331411     
 End Solvation calculations
RMM:  30    -0.133207921709E+03   -0.14773E-04   -0.60023E-06  2356   0.763E-03    0.251E-03
 Begin Solvation calculations
  rms_SCF =   2.222605088968344E-003 tol =   2.222605088968344E-004
 Begin minimization
 Creating dielectric and ionic cavities
  area:      145.825570164663     
  volume:    669.796210026119     
  Acav:     7.655842433644822E-002
  Solving linear dielectric/ionic screening model
        iter                  A_solv                     rms
   LPB:       -0.565390568244111E+00   0.276265589220190E-01
   LPB:    0  -0.565390019791925E+00   0.202528736030841E-01  -0.181512E-03   0.000000E+00   0.332933E+02  -0.604314E-02
   LPB:    1  -0.565385630717466E+00   0.782232515953904E-02   0.121057E-01   0.000000E+00   0.101003E+03   0.240819E-18
   LPB:    2  -0.565385209339495E+00   0.177518019400097E-02   0.136488E-01   0.851520E-01   0.734152E+02   0.832766E-16
   LPB:    3  -0.565385115530771E+00   0.132420995690619E-02   0.191133E-01   0.158976E+00   0.326498E+03   0.845197E-16
   LPB:    4  -0.565385082716599E+00   0.576631934054759E-03   0.182651E-01   0.366043E+00   0.127982E+03   0.834183E-16
   LPB:    5  -0.565385058188763E+00   0.397540244584303E-03   0.324815E-01   0.420323E+00   0.465905E+03   0.806375E-16
   LPB:    6  -0.565385019410201E+00   0.433155607212354E-03   0.550531E-01   0.932796E+00   0.139159E+03   0.794017E-16
   LPB:    7  -0.565384952847846E+00   0.410363722946224E-03   0.531203E-01   0.177893E+01   0.121044E+03   0.743186E-16
   LPB:    8  -0.565384873492491E+00   0.466564650869410E-03   0.457797E-01   0.138336E+01   0.130850E+03   0.662078E-16
   LPB:    9  -0.565384809208025E+00   0.326207171268458E-03   0.392152E-01   0.945689E+00   0.338364E+03   0.574160E-16
   LPB:   10  -0.565384757653937E+00   0.352799712754567E-03   0.396389E-01   0.793396E+00   0.596005E+03   0.496354E-16
   LPB:   11  -0.565384706697614E+00   0.308469558847190E-03   0.440125E-01   0.890185E+00   0.100965E+04   0.429441E-16
   LPB:   12  -0.565384650553718E+00   0.297186092459922E-03   0.467593E-01   0.103708E+01   0.698403E+03   0.374758E-16
   LPB:   13  -0.565384587996704E+00   0.261712298000926E-03   0.482128E-01   0.108063E+01   0.750723E+03   0.315298E-16
   LPB:   14  -0.565384517382285E+00   0.248264587234302E-03   0.480492E-01   0.113265E+01   0.783717E+03   0.288949E-16
   LPB:   15  -0.565384457053411E+00   0.225079454637128E-03   0.415422E-01   0.988163E+00   0.110364E+04   0.250688E-16
   LPB:   16  -0.565384404501298E+00   0.222659809264510E-03   0.426034E-01   0.849395E+00   0.135634E+04   0.217269E-16
   LPB:   17  -0.565384365313851E+00   0.220032045843975E-03   0.396422E-01   0.801389E+00   0.175924E+04   0.188864E-16
  Finished solving LPB equations
  A_corr:   -0.488825940977403     
 End minimization
 Ecorr=   1435.09611546005     
 A_corr= -0.488825940977403     
 Ecorr_band=  -1435.58494140103     
 End Solvation calculations
RMM:  31    -0.133207928721E+03   -0.70117E-05   -0.32955E-06  2319   0.612E-03
 Begin Solvation calculations
  rms_SCF =   2.222605088968344E-003 tol =   2.222605088968344E-004
 Begin minimization
 Creating dielectric and ionic cavities
  area:      145.828756439166     
  volume:    669.796297594185     
  Acav:     7.656009713056196E-002
  Solving linear dielectric/ionic screening model
        iter                  A_solv                     rms
   LPB:       -0.565555407816903E+00   0.456244753354613E-01
   LPB:    0  -0.565553858278432E+00   0.334809314282191E-01  -0.305097E-03   0.000000E+00   0.332933E+02  -0.101577E-01
   LPB:    1  -0.565547801321648E+00   0.648674959255551E-02   0.971359E-02   0.000000E+00   0.811426E+02  -0.666203E-18
   LPB:    2  -0.565547436057142E+00   0.151575992909059E-02   0.130879E-01   0.447571E-01   0.900792E+02   0.205984E-15
   LPB:    3  -0.565547375381901E+00   0.955190911465451E-03   0.171216E-01   0.126978E+00   0.345546E+03   0.202410E-15
   LPB:    4  -0.565547344501937E+00   0.364347887315028E-03   0.242037E-01   0.360022E+00   0.116340E+03   0.203858E-15
   LPB:    5  -0.565547323299503E+00   0.239930151748417E-03   0.343796E-01   0.483382E+00   0.333917E+03   0.195240E-15
   LPB:    6  -0.565547304707571E+00   0.248948574201243E-03   0.401874E-01   0.750153E+00   0.198970E+03   0.187739E-15
   LPB:    7  -0.565547289448622E+00   0.185557069753284E-03   0.396219E-01   0.832443E+00   0.533553E+03   0.181083E-15
  Finished solving LPB equations
  A_corr:   -0.488987192318060     
 End minimization
 Ecorr=   1434.98486020812     
 A_corr= -0.488987192318060     
 Ecorr_band=  -1435.47384740044     
 End Solvation calculations
   1 F= -.13320793E+03 E0= -.13320384E+03  d E =-.133208E+03
quench:  g(F)=  0.000E+00 g(S)=  0.000E+00 dE (1.order)= 0.000E+00
 bond charge predicted
       N       E                     dE             d eps       ncg     rms          rms(c)
 Begin Solvation calculations
  rms_SCF =   2.222605088968344E-003 tol =   2.222605088968344E-004
 Begin minimization
 Creating dielectric and ionic cavities
  area:      146.031568395796     
  volume:    669.787036230263     
  Acav:     7.666657340779315E-002
  Solving linear dielectric/ionic screening model
        iter                  A_solv                     rms
   LPB:       -0.574969673314658E+00   0.933009088364896E-02
   LPB:    0  -0.574969673309407E+00   0.933126020613544E-02  -0.561632E-06   0.000000E+00   0.332937E+02  -0.186988E-04
   LPB:    1  -0.567582620907270E+00   0.330717157469558E-02   0.154197E-01   0.000000E+00   0.713383E+06   0.167800E-22
   LPB:    2  -0.566972460788307E+00   0.307341320472254E-02   0.261966E-01   0.486189E-01   0.147910E+06   0.387092E-17
   LPB:    3  -0.566785293860214E+00   0.482188491740957E-02   0.323623E-01   0.248308E+00   0.347521E+05   0.192662E-16
   LPB:    4  -0.566705116978796E+00   0.137810430105637E-01   0.352903E-01   0.392830E+00   0.731791E+04   0.515547E-16
   LPB:    5  -0.566668451707788E+00   0.308310686206678E-01   0.323446E-01   0.498952E+00   0.430923E+03   0.534215E-16
   LPB:    6  -0.566651280821082E+00   0.231292010093335E-01   0.195517E-01   0.774740E+00   0.181207E+03  -0.127037E-16
   LPB:    7  -0.566635912911468E+00   0.101513011896802E-01   0.271178E-01   0.645286E+00   0.462578E+03  -0.538923E-16
   LPB:    8  -0.566626650382027E+00   0.137705425177055E-01   0.312447E-01   0.523109E+00   0.280732E+03  -0.802697E-16
   LPB:    9  -0.566621168668868E+00   0.936053611055393E-02   0.239798E-01   0.771112E+00   0.195859E+03  -0.139901E-15
   LPB:   10  -0.566616544343353E+00   0.275195442530322E-02   0.313905E-01   0.644436E+00   0.382338E+03  -0.882680E-16
   LPB:   11  -0.566613526271717E+00   0.132209991419574E-02   0.386124E-01   0.530582E+00   0.374516E+04  -0.108330E-16
   LPB:   12  -0.566611571302935E+00   0.148693554061164E-02   0.394550E-01   0.633920E+00   0.197496E+04   0.378826E-16
   LPB:   13  -0.566610341475089E+00   0.165639576623264E-02   0.361114E-01   0.687326E+00   0.152383E+04   0.539685E-16
   LPB:   14  -0.566609508553539E+00   0.125966835091711E-02   0.340463E-01   0.718346E+00   0.116548E+04   0.634600E-16
   LPB:   15  -0.566608904742386E+00   0.714952690510309E-03   0.357684E-01   0.690030E+00   0.193398E+04   0.701131E-16
   LPB:   16  -0.566608485272678E+00   0.544293473356851E-03   0.391457E-01   0.634768E+00   0.226043E+04   0.760398E-16
   LPB:   17  -0.566608200167685E+00   0.616968853646220E-03   0.388995E-01   0.683981E+00   0.275807E+04   0.812364E-16
   LPB:   18  -0.566608005697922E+00   0.610408258971751E-03   0.366207E-01   0.724544E+00   0.135771E+04   0.817868E-16
   LPB:   19  -0.566607864316298E+00   0.447642012977097E-03   0.361693E-01   0.736083E+00   0.178815E+04   0.808006E-16
   LPB:   20  -0.566607757868570E+00   0.261644368274824E-03   0.381248E-01   0.714293E+00   0.224693E+04   0.807711E-16
   LPB:   21  -0.566607676574762E+00   0.188883929378460E-03   0.417844E-01   0.696811E+00   0.392701E+04   0.800604E-16
  Finished solving LPB equations
  A_corr:   -0.489941103166969     
 End minimization
 Ecorr=   1434.77488504617     
 A_corr= -0.489941103166969     
 Ecorr_band=  -1435.26482614934     
 End Solvation calculations
DAV:   1    -0.133211125077E+03   -0.32034E-02   -0.55898E-01  4212   0.132E+00    0.225E-01
 Begin Solvation calculations
  rms_SCF =   2.222605088968344E-003 tol =   2.222605088968344E-004
 Begin minimization
 Creating dielectric and ionic cavities
  area:      145.899056960838     
  volume:    669.691934352911     
  Acav:     7.659700490444001E-002
  Solving linear dielectric/ionic screening model
        iter                  A_solv                     rms
   LPB:       -0.569421838680533E+00   0.212554755782458E+00
   LPB:    0  -0.569365183569659E+00   0.158656610967521E+00  -0.184469E-02   0.000000E+00   0.332982E+02  -0.614249E-01
   LPB:    1  -0.568961382551749E+00   0.800411559432022E-01   0.147886E-01   0.000000E+00   0.132264E+03   0.109292E-17
   LPB:    2  -0.568903552520610E+00   0.219324416888076E-01   0.134756E-01   0.157168E+00   0.163720E+03  -0.847163E-17
   LPB:    3  -0.568879739400685E+00   0.108252919633262E-01   0.224749E-01   0.246896E+00   0.555388E+03   0.165740E-16
   LPB:    4  -0.568871479315044E+00   0.123118576201234E-01   0.242449E-01   0.321548E+00   0.233444E+03   0.250920E-16
   LPB:    5  -0.568867266556400E+00   0.711390704172130E-02   0.222656E-01   0.555352E+00   0.192121E+03   0.178629E-16
   LPB:    6  -0.568864615559751E+00   0.307795638855167E-02   0.306306E-01   0.457425E+00   0.243046E+03   0.436837E-16
   LPB:    7  -0.568863149616294E+00   0.168198588872870E-02   0.337477E-01   0.501903E+00   0.682200E+03   0.201584E-16
   LPB:    8  -0.568862280680943E+00   0.103176092852566E-02   0.339989E-01   0.588370E+00   0.698971E+03   0.105337E-16
   LPB:    9  -0.568861735539676E+00   0.675182625868877E-03   0.354851E-01   0.601091E+00   0.112321E+04   0.683875E-17
   LPB:   10  -0.568861399189233E+00   0.536578323904165E-03   0.364222E-01   0.601122E+00   0.127288E+04   0.183053E-17
   LPB:   11  -0.568861186037386E+00   0.456900824722070E-03   0.371404E-01   0.621464E+00   0.114364E+04  -0.338867E-17
   LPB:   12  -0.568861048154380E+00   0.421955392234931E-03   0.367098E-01   0.654465E+00   0.128697E+04  -0.734951E-17
   LPB:   13  -0.568860957850149E+00   0.380005772815762E-03   0.357399E-01   0.672707E+00   0.117904E+04  -0.992993E-17
   LPB:   14  -0.568860897828017E+00   0.309065454205594E-03   0.351182E-01   0.676433E+00   0.118399E+04  -0.114142E-16
   LPB:   15  -0.568860856462126E+00   0.237399447834245E-03   0.360477E-01   0.671407E+00   0.133273E+04  -0.126343E-16
   LPB:   16  -0.568860826768963E+00   0.171588539623467E-03   0.373523E-01   0.692746E+00   0.146561E+04  -0.136476E-16
  Finished solving LPB equations
  A_corr:   -0.492263821864523     
 End minimization
 Ecorr=   1434.67148693012     
 A_corr= -0.492263821864523     
 Ecorr_band=  -1435.16375075198     
 End Solvation calculations
RMM:   2    -0.133214709402E+03   -0.35843E-02   -0.42392E-02  5814   0.415E-01    0.190E-01
 Begin Solvation calculations
  rms_SCF =   2.222605088968344E-003 tol =   2.222605088968344E-004
 Begin minimization
 Creating dielectric and ionic cavities
  area:      145.890547246155     
  volume:    669.702358168296     
  Acav:     7.659253730423160E-002
  Solving linear dielectric/ionic screening model
        iter                  A_solv                     rms
   LPB:       -0.569670718552174E+00   0.749591746600154E-01
   LPB:    0  -0.569666205281513E+00   0.630787500523472E-01  -0.520659E-03   0.000000E+00   0.332977E+02  -0.173367E-01
   LPB:    1  -0.569632188912407E+00   0.228211395796805E-01   0.124577E-01   0.000000E+00   0.103573E+03   0.613494E-18
   LPB:    2  -0.569627069985150E+00   0.394074799199918E-02   0.129749E-01   0.144486E+00   0.205810E+03  -0.275657E-16
   LPB:    3  -0.569625474582979E+00   0.246018691417539E-02   0.246209E-01   0.164245E+00   0.583095E+03  -0.355651E-16
   LPB:    4  -0.569624886831484E+00   0.295553747774280E-02   0.274624E-01   0.330286E+00   0.219202E+03  -0.363426E-16
   LPB:    5  -0.569624539684162E+00   0.237967070805109E-02   0.251583E-01   0.644727E+00   0.252855E+03  -0.273026E-16
   LPB:    6  -0.569624271714748E+00   0.117713290856006E-02   0.312051E-01   0.622341E+00   0.171530E+03   0.625965E-18
   LPB:    7  -0.569624084575232E+00   0.611176006390859E-03   0.342731E-01   0.635846E+00   0.104502E+04   0.938373E-17
   LPB:    8  -0.569623960907659E+00   0.363468303090453E-03   0.348782E-01   0.649367E+00   0.754546E+03   0.192811E-16
   LPB:    9  -0.569623882767032E+00   0.283602512899340E-03   0.362500E-01   0.607948E+00   0.167866E+04   0.292425E-16
   LPB:   10  -0.569623830438871E+00   0.239596781025326E-03   0.373139E-01   0.650574E+00   0.140238E+04   0.367466E-16
   LPB:   11  -0.569623796573131E+00   0.209973757822393E-03   0.362106E-01   0.666900E+00   0.158342E+04   0.420609E-16
  Finished solving LPB equations
  A_corr:   -0.493031259268899     
 End minimization
 Ecorr=   1434.58547330248     
 A_corr= -0.493031259268899     
 Ecorr_band=  -1435.07850456175     
 End Solvation calculations
RMM:   3    -0.133213710588E+03    0.99881E-03   -0.21947E-03  6165   0.952E-02    0.100E-01
 Begin Solvation calculations
  rms_SCF =   2.222605088968344E-003 tol =   2.222605088968344E-004
 Begin minimization
 Creating dielectric and ionic cavities
  area:      145.866430267161     
  volume:    669.686125944046     
  Acav:     7.657987589025946E-002
  Solving linear dielectric/ionic screening model
        iter                  A_solv                     rms
   LPB:       -0.572058493369931E+00   0.157871494804065E+00
   LPB:    0  -0.572017987308413E+00   0.999864561768244E-01  -0.155978E-02   0.000000E+00   0.332984E+02  -0.519382E-01
   LPB:    1  -0.571771659422630E+00   0.482699279830030E-01   0.158627E-01   0.000000E+00   0.157664E+03   0.327551E-17
   LPB:    2  -0.571746926900175E+00   0.199256152968800E-01   0.146030E-01   0.109066E+00   0.129408E+03  -0.362178E-15
   LPB:    3  -0.571737346084304E+00   0.736760687259742E-02   0.190041E-01   0.297665E+00   0.349153E+03  -0.328494E-15
   LPB:    4  -0.571733946884858E+00   0.784110597816249E-02   0.228942E-01   0.294507E+00   0.215987E+03  -0.247910E-15
   LPB:    5  -0.571732384524310E+00   0.483221788665012E-02   0.209886E-01   0.501356E+00   0.212280E+03  -0.236272E-15
   LPB:    6  -0.571731469130586E+00   0.169220297618898E-02   0.285085E-01   0.431357E+00   0.169527E+03  -0.238611E-15
   LPB:    7  -0.571730992978786E+00   0.964416174300894E-03   0.324642E-01   0.456779E+00   0.824119E+03  -0.226088E-15
   LPB:    8  -0.571730722379940E+00   0.537581395503849E-03   0.332671E-01   0.554588E+00   0.398341E+03  -0.220758E-15
   LPB:    9  -0.571730557703403E+00   0.402795112010583E-03   0.353398E-01   0.572871E+00   0.662266E+03  -0.225070E-15
   LPB:   10  -0.571730456897498E+00   0.321425420634147E-03   0.361769E-01   0.597980E+00   0.505107E+03  -0.229759E-15
   LPB:   11  -0.571730393582029E+00   0.282573302743340E-03   0.362793E-01   0.626321E+00   0.502287E+03  -0.230186E-15
   LPB:   12  -0.571730351978286E+00   0.248974132911391E-03   0.359137E-01   0.663776E+00   0.523986E+03  -0.230664E-15
   LPB:   13  -0.571730323613297E+00   0.210690447336035E-03   0.359687E-01   0.680746E+00   0.525445E+03  -0.230891E-15
  Finished solving LPB equations
  A_corr:   -0.495150447723037     
 End minimization
 Ecorr=   1434.32106329340     
 A_corr= -0.495150447723037     
 Ecorr_band=  -1434.81621374112     
 End Solvation calculations
RMM:   4    -0.133213633884E+03    0.76703E-04   -0.71772E-04  4271   0.896E-02    0.828E-02
 Begin Solvation calculations
  rms_SCF =   2.222605088968344E-003 tol =   2.222605088968344E-004
 Begin minimization
 Creating dielectric and ionic cavities
  area:      145.863348814017     
  volume:    669.691976048667     
  Acav:     7.657825812735872E-002
  Solving linear dielectric/ionic screening model
        iter                  A_solv                     rms
   LPB:       -0.573595443978336E+00   0.160217304535818E+00
   LPB:    0  -0.573574211526355E+00   0.131238118450705E+00  -0.112929E-02   0.000000E+00   0.332982E+02  -0.376032E-01
   LPB:    1  -0.573417539779011E+00   0.522950449427465E-01   0.125938E-01   0.000000E+00   0.104598E+03  -0.130482E-17
   LPB:    2  -0.573393532952039E+00   0.807487501268414E-02   0.128427E-01   0.150260E+00   0.174211E+03  -0.623302E-16
   LPB:    3  -0.573387198760280E+00   0.565168429258660E-02   0.232785E-01   0.145565E+00   0.483741E+03  -0.713630E-16
   LPB:    4  -0.573385346625639E+00   0.514372013786228E-02   0.236458E-01   0.287861E+00   0.163700E+03  -0.826203E-16
   LPB:    5  -0.573384513495586E+00   0.320301074183127E-02   0.220252E-01   0.482918E+00   0.255758E+03  -0.963994E-16
   LPB:    6  -0.573384049083126E+00   0.115367016257632E-02   0.283039E-01   0.433776E+00   0.164523E+03  -0.960837E-16
   LPB:    7  -0.573383807014463E+00   0.665846736210197E-03   0.311270E-01   0.473962E+00   0.674748E+03  -0.110610E-15
   LPB:    8  -0.573383661990009E+00   0.364447493594989E-03   0.343009E-01   0.543670E+00   0.338046E+03  -0.115936E-15
   LPB:    9  -0.573383567427582E+00   0.297577525304936E-03   0.373849E-01   0.598255E+00   0.401250E+03  -0.119504E-15
   LPB:   10  -0.573383505381959E+00   0.251866405713161E-03   0.377014E-01   0.650626E+00   0.318797E+03  -0.121976E-15
   LPB:   11  -0.573383464201436E+00   0.240024680555951E-03   0.370712E-01   0.674996E+00   0.345702E+03  -0.125610E-15
   LPB:   12  -0.573383436169740E+00   0.211372382996769E-03   0.361785E-01   0.697499E+00   0.310947E+03  -0.128444E-15
  Finished solving LPB equations
  A_corr:   -0.496805178042381     
 End minimization
 Ecorr=   1434.03435779022     
 A_corr= -0.496805178042381     
 Ecorr_band=  -1434.53116296826     
 End Solvation calculations
RMM:   5    -0.133213530159E+03    0.10373E-03   -0.44746E-04  4071   0.916E-02    0.383E-02
 Begin Solvation calculations
  rms_SCF =   2.222605088968344E-003 tol =   2.222605088968344E-004
 Begin minimization
 Creating dielectric and ionic cavities
  area:      145.872081918478     
  volume:    669.716635531525     
  Acav:     7.658284300720090E-002
  Solving linear dielectric/ionic screening model
        iter                  A_solv                     rms
   LPB:       -0.575340457221155E+00   0.121995900256515E+00
   LPB:    0  -0.575317163970198E+00   0.731827132784994E-01  -0.118284E-02   0.000000E+00   0.332970E+02  -0.393852E-01
   LPB:    1  -0.575179307678851E+00   0.281882379744856E-01   0.162502E-01   0.000000E+00   0.140365E+03   0.239986E-17
   LPB:    2  -0.575167376883121E+00   0.139628270767302E-01   0.162191E-01   0.867110E-01   0.130024E+03  -0.451399E-15
   LPB:    3  -0.575163624073532E+00   0.522457589598285E-02   0.179664E-01   0.283957E+00   0.190827E+03  -0.510542E-15
   LPB:    4  -0.575162190576333E+00   0.526551885222519E-02   0.218815E-01   0.313635E+00   0.205031E+03  -0.548525E-15
   LPB:    5  -0.575161554152716E+00   0.376168255243678E-02   0.201306E-01   0.482582E+00   0.220651E+03  -0.557528E-15
   LPB:    6  -0.575161161718040E+00   0.115311114808970E-02   0.265827E-01   0.466958E+00   0.119613E+03  -0.545447E-15
   LPB:    7  -0.575160942765253E+00   0.674696443480079E-03   0.319560E-01   0.464119E+00   0.426703E+03  -0.547470E-15
   LPB:    8  -0.575160804323675E+00   0.422358483941462E-03   0.348630E-01   0.579568E+00   0.214620E+03  -0.546588E-15
   LPB:    9  -0.575160710641545E+00   0.353256110493470E-03   0.372069E-01   0.634060E+00   0.246302E+03  -0.547647E-15
   LPB:   10  -0.575160647933654E+00   0.297404520143878E-03   0.368631E-01   0.675612E+00   0.197315E+03  -0.548383E-15
   LPB:   11  -0.575160605549425E+00   0.264152616022343E-03   0.359301E-01   0.693451E+00   0.251592E+03  -0.548199E-15
   LPB:   12  -0.575160576286863E+00   0.194797896798918E-03   0.357973E-01   0.692973E+00   0.222490E+03  -0.548074E-15
  Finished solving LPB equations
  A_corr:   -0.498577733279662     
 End minimization
 Ecorr=   1433.64196520351     
 A_corr= -0.498577733279662     
 Ecorr_band=  -1434.14054293679     
 End Solvation calculations
RMM:   6    -0.133213506761E+03    0.23398E-04   -0.14192E-04  3761   0.365E-02    0.185E-02
 Begin Solvation calculations
  rms_SCF =   2.222605088968344E-003 tol =   2.222605088968344E-004
 Begin minimization
 Creating dielectric and ionic cavities
  area:      145.880899018098     
  volume:    669.727943483870     
  Acav:     7.658747198450123E-002
  Solving linear dielectric/ionic screening model
        iter                  A_solv                     rms
   LPB:       -0.575651971539854E+00   0.522937565118316E-01
   LPB:    0  -0.575650529785211E+00   0.457561940006548E-01  -0.294281E-03   0.000000E+00   0.332965E+02  -0.979851E-02
   LPB:    1  -0.575638728743093E+00   0.118757601554347E-01   0.105062E-01   0.000000E+00   0.943889E+02  -0.523721E-18
   LPB:    2  -0.575637131088276E+00   0.164459487864559E-02   0.134741E-01   0.105562E+00   0.154251E+03   0.868495E-16
   LPB:    3  -0.575636854913799E+00   0.127440542605408E-02   0.227383E-01   0.102434E+00   0.337403E+03   0.854659E-16
   LPB:    4  -0.575636771264305E+00   0.996845249678136E-03   0.243632E-01   0.282685E+00   0.102714E+03   0.860575E-16
   LPB:    5  -0.575636729097234E+00   0.809271778084166E-03   0.243992E-01   0.503348E+00   0.336868E+03   0.951262E-16
   LPB:    6  -0.575636700075422E+00   0.321062135473952E-03   0.300087E-01   0.559603E+00   0.868033E+02   0.104964E-15
   LPB:    7  -0.575636677477418E+00   0.234892227861151E-03   0.367826E-01   0.635258E+00   0.174004E+03   0.118605E-15
   LPB:    8  -0.575636654756253E+00   0.171599756242123E-03   0.443597E-01   0.833708E+00   0.933991E+02   0.127768E-15
  Finished solving LPB equations
  A_corr:   -0.499049182771752     
 End minimization
 Ecorr=   1433.51285284882     
 A_corr= -0.499049182771752     
 Ecorr_band=  -1434.01190203159     
 End Solvation calculations
RMM:   7    -0.133213512812E+03   -0.60508E-05   -0.33404E-05  2565   0.224E-02
 Begin Solvation calculations
  rms_SCF =   2.222605088968344E-003 tol =   2.222605088968344E-004
 Begin minimization
 Creating dielectric and ionic cavities
  area:      145.903534432058     
  volume:    669.765149116514     
  Acav:     7.659935557683024E-002
  Solving linear dielectric/ionic screening model
        iter                  A_solv                     rms
   LPB:       -0.577184387733851E+00   0.103554897357836E+00
   LPB:    0  -0.577170820417381E+00   0.673704001346131E-01  -0.902764E-03   0.000000E+00   0.332947E+02  -0.300573E-01
   LPB:    1  -0.577094246829279E+00   0.337240484047916E-01   0.145957E-01   0.000000E+00   0.113857E+03   0.115783E-17
   LPB:    2  -0.577086382886406E+00   0.819162283438678E-02   0.128221E-01   0.116903E+00   0.958852E+02  -0.415434E-15
   LPB:    3  -0.577084129473283E+00   0.408860944538351E-02   0.187974E-01   0.195462E+00   0.319674E+03  -0.456201E-15
   LPB:    4  -0.577083350050851E+00   0.307789269903262E-02   0.233236E-01   0.278763E+00   0.103609E+03  -0.467001E-15
   LPB:    5  -0.577082984819093E+00   0.249586279072370E-02   0.235274E-01   0.464533E+00   0.317069E+03  -0.494921E-15
   LPB:    6  -0.577082733170601E+00   0.901903003987916E-03   0.293117E-01   0.553044E+00   0.891097E+02  -0.487823E-15
   LPB:    7  -0.577082555875541E+00   0.621406203277278E-03   0.347017E-01   0.595103E+00   0.186412E+03  -0.491367E-15
   LPB:    8  -0.577082431854731E+00   0.410432693490429E-03   0.368804E-01   0.658192E+00   0.130670E+03  -0.495928E-15
   LPB:    9  -0.577082348396821E+00   0.360942249048650E-03   0.370257E-01   0.670293E+00   0.192109E+03  -0.504472E-15
   LPB:   10  -0.577082293269776E+00   0.304800803938417E-03   0.356663E-01   0.685715E+00   0.166155E+03  -0.511046E-15
   LPB:   11  -0.577082255657235E+00   0.246992685915008E-03   0.355669E-01   0.684194E+00   0.283676E+03  -0.512902E-15
   LPB:   12  -0.577082230017307E+00   0.167344903497825E-03   0.359242E-01   0.674905E+00   0.233840E+03  -0.514499E-15
  Finished solving LPB equations
  A_corr:   -0.500482874440477     
 End minimization
 Ecorr=   1433.06027423859     
 A_corr= -0.500482874440477     
 Ecorr_band=  -1433.56075711303     
 End Solvation calculations
   2 F= -.13321351E+03 E0= -.13320946E+03  d E =-.558409E-02
quench:  g(F)=  0.000E+00 g(S)=  0.000E+00 dE (1.order)= 0.000E+00
 bond charge predicted
       N       E                     dE             d eps       ncg     rms          rms(c)
 Begin Solvation calculations
  rms_SCF =   2.222605088968344E-003 tol =   2.222605088968344E-004
 Begin minimization
 Creating dielectric and ionic cavities
  area:      146.069259801423     
  volume:    669.679472828511     
  Acav:     7.668636139574726E-002
  Solving linear dielectric/ionic screening model
        iter                  A_solv                     rms
   LPB:       -0.583022548111636E+00   0.754071572213715E-02
   LPB:    0  -0.583022546957761E+00   0.772827792638487E-02  -0.832493E-05   0.000000E+00   0.332988E+02  -0.277210E-03
   LPB:    1  -0.579456715787454E+00   0.306921348793616E-02   0.155139E-01   0.000000E+00   0.404748E+06  -0.131278E-19
   LPB:    2  -0.579137367376575E+00   0.409523698199124E-02   0.267102E-01   0.520173E-01   0.897918E+05  -0.112705E-16
   LPB:    3  -0.579036605297604E+00   0.936414988148540E-02   0.326554E-01   0.258080E+00   0.146140E+05  -0.144129E-16
   LPB:    4  -0.578994996340149E+00   0.238968497790716E-01   0.334420E-01   0.403229E+00   0.103891E+04  -0.142760E-16
   LPB:    5  -0.578978425673106E+00   0.279857552077769E-01   0.219599E-01   0.606477E+00   0.185755E+03  -0.170491E-16
   LPB:    6  -0.578964979470455E+00   0.849598739992717E-02   0.222460E-01   0.801010E+00   0.327596E+03  -0.417977E-16
   LPB:    7  -0.578955364377117E+00   0.669462327643942E-02   0.355680E-01   0.447246E+00   0.626912E+03  -0.628098E-16
   LPB:    8  -0.578950173959809E+00   0.108415785850344E-01   0.313722E-01   0.612017E+00   0.360717E+03  -0.540809E-16
   LPB:    9  -0.578947044780531E+00   0.600176623617688E-02   0.238842E-01   0.791887E+00   0.132854E+03  -0.379768E-16
   LPB:   10  -0.578944520915450E+00   0.185353896123538E-02   0.325092E-01   0.592570E+00   0.100903E+04   0.933138E-17
   LPB:   11  -0.578942825202196E+00   0.728012378874874E-03   0.395798E-01   0.551848E+00   0.103362E+04   0.151364E-15
   LPB:   12  -0.578941697751102E+00   0.954684208924023E-03   0.406338E-01   0.647637E+00   0.105875E+04   0.266771E-15
   LPB:   13  -0.578940989301800E+00   0.118547212489312E-02   0.374630E-01   0.681546E+00   0.118120E+04   0.342770E-15
   LPB:   14  -0.578940527528589E+00   0.101660083264255E-02   0.350156E-01   0.697366E+00   0.590287E+03   0.389632E-15
   LPB:   15  -0.578940185144830E+00   0.631201470947649E-03   0.361106E-01   0.718972E+00   0.114086E+04   0.420082E-15
   LPB:   16  -0.578939968642864E+00   0.393314930193521E-03   0.354130E-01   0.644793E+00   0.113902E+04   0.444196E-15
   LPB:   17  -0.578939814876905E+00   0.465669162093863E-03   0.414068E-01   0.607421E+00   0.103080E+04   0.459521E-15
   LPB:   18  -0.578939708621872E+00   0.494213753012463E-03   0.362387E-01   0.789565E+00   0.119854E+04   0.470666E-15
   LPB:   19  -0.578939633985834E+00   0.362658385900912E-03   0.350507E-01   0.726232E+00   0.742933E+03   0.478245E-15
   LPB:   20  -0.578939580826995E+00   0.215741501461956E-03   0.367811E-01   0.678733E+00   0.144821E+04   0.481117E-15
  Finished solving LPB equations
  A_corr:   -0.502253219431247     
 End minimization
 Ecorr=   1432.77929570063     
 A_corr= -0.502253219431247     
 Ecorr_band=  -1433.28154892006     
 End Solvation calculations
DAV:   1    -0.133215388825E+03   -0.18821E-02   -0.27231E-01  4176   0.112E+00    0.102E-01
 Begin Solvation calculations
  rms_SCF =   2.222605088968344E-003 tol =   2.222605088968344E-004
 Begin minimization
 Creating dielectric and ionic cavities
  area:      145.947946226307     
  volume:    669.688832518617     
  Acav:     7.662267176881092E-002
  Solving linear dielectric/ionic screening model
        iter                  A_solv                     rms
   LPB:       -0.579948701298239E+00   0.770435824242754E-01
   LPB:    0  -0.579942812808457E+00   0.574802126340450E-01  -0.594711E-03   0.000000E+00   0.332983E+02  -0.198029E-01
   LPB:    1  -0.579921034864323E+00   0.189053569620308E-01   0.111811E-01   0.000000E+00   0.864946E+02  -0.159300E-17
   LPB:    2  -0.579917357023116E+00   0.387611449811937E-02   0.145737E-01   0.129566E+00   0.112240E+03   0.536736E-16
   LPB:    3  -0.579916369908263E+00   0.295384082687869E-02   0.221435E-01   0.176644E+00   0.336998E+03   0.729719E-16
   LPB:    4  -0.579916004584666E+00   0.244306523627873E-02   0.232996E-01   0.351728E+00   0.117914E+03   0.799418E-16
   LPB:    5  -0.579915786979258E+00   0.132681832328350E-02   0.255966E-01   0.542198E+00   0.343705E+03   0.785892E-16
   LPB:    6  -0.579915641898270E+00   0.540098722015336E-03   0.322258E-01   0.529566E+00   0.245140E+03   0.745312E-16
   LPB:    7  -0.579915543540983E+00   0.400251840658031E-03   0.355275E-01   0.614943E+00   0.571092E+03   0.579947E-16
   LPB:    8  -0.579915474644951E+00   0.278249632199774E-03   0.378112E-01   0.658161E+00   0.604818E+03   0.468267E-16
   LPB:    9  -0.579915427949741E+00   0.269928333211052E-03   0.375917E-01   0.681720E+00   0.886889E+03   0.385530E-16
   LPB:   10  -0.579915396057654E+00   0.248426259146274E-03   0.361808E-01   0.709618E+00   0.559006E+03   0.325534E-16
   LPB:   11  -0.579915373048810E+00   0.195267403124585E-03   0.365514E-01   0.714144E+00   0.114120E+04   0.278707E-16
  Finished solving LPB equations
  A_corr:   -0.503292701279999     
 End minimization
 Ecorr=   1432.57648896116     
 A_corr= -0.503292701279999     
 Ecorr_band=  -1433.07978166244     
 End Solvation calculations
RMM:   2    -0.133216305242E+03   -0.91642E-03   -0.99574E-03  4733   0.301E-01    0.543E-02
 Begin Solvation calculations
  rms_SCF =   2.222605088968344E-003 tol =   2.222605088968344E-004
 Begin minimization
 Creating dielectric and ionic cavities
  area:      145.937460180360     
  volume:    669.704951295722     
  Acav:     7.661716659468901E-002
  Solving linear dielectric/ionic screening model
        iter                  A_solv                     rms
   LPB:       -0.580270177482140E+00   0.312412927467405E-01
   LPB:    0  -0.580268916210300E+00   0.197549533131566E-01  -0.275241E-03   0.000000E+00   0.332976E+02  -0.916485E-02
   LPB:    1  -0.580262959494659E+00   0.705231652061560E-02   0.153718E-01   0.000000E+00   0.876758E+02  -0.308444E-19
   LPB:    2  -0.580262244790413E+00   0.316989912183506E-02   0.160463E-01   0.114939E+00   0.109235E+03  -0.298306E-16
   LPB:    3  -0.580262041347594E+00   0.158650332608781E-02   0.183701E-01   0.248644E+00   0.218009E+03  -0.375239E-16
   LPB:    4  -0.580261946507497E+00   0.121190214629414E-02   0.224347E-01   0.381717E+00   0.145552E+03  -0.492516E-16
   LPB:    5  -0.580261899435376E+00   0.985700456447999E-03   0.225028E-01   0.494830E+00   0.308649E+03  -0.566104E-16
   LPB:    6  -0.580261866373927E+00   0.328873195502865E-03   0.268755E-01   0.588082E+00   0.124535E+03  -0.595909E-16
   LPB:    7  -0.580261841950490E+00   0.206325485529503E-03   0.377350E-01   0.526135E+00   0.381892E+03  -0.621191E-16
  Finished solving LPB equations
  A_corr:   -0.503644675355801     
 End minimization
 Ecorr=   1432.46351253350     
 A_corr= -0.503644675355801     
 Ecorr_band=  -1432.96715720886     
 End Solvation calculations
RMM:   3    -0.133216226071E+03    0.79171E-04   -0.83028E-04  4904   0.914E-02    0.511E-02
 Begin Solvation calculations
  rms_SCF =   2.222605088968344E-003 tol =   2.222605088968344E-004
 Begin minimization
 Creating dielectric and ionic cavities
  area:      145.938817951090     
  volume:    669.715788182281     
  Acav:     7.661787942432230E-002
  Solving linear dielectric/ionic screening model
        iter                  A_solv                     rms
   LPB:       -0.580496165178417E+00   0.249232132176618E-01
   LPB:    0  -0.580495688064753E+00   0.193423555671263E-01  -0.169287E-03   0.000000E+00   0.332971E+02  -0.563675E-02
   LPB:    1  -0.580492835581768E+00   0.486370903068206E-02   0.141510E-01   0.000000E+00   0.606485E+02   0.435801E-19
   LPB:    2  -0.580492437304046E+00   0.211031500523556E-02   0.134380E-01   0.147033E+00   0.260294E+03  -0.311949E-16
   LPB:    3  -0.580492331293436E+00   0.117526772750927E-02   0.189046E-01   0.189205E+00   0.154073E+03  -0.388923E-16
   LPB:    4  -0.580492286373901E+00   0.854130986299710E-03   0.247991E-01   0.323012E+00   0.107442E+03  -0.409957E-16
   LPB:    5  -0.580492256527725E+00   0.612774850492018E-03   0.277198E-01   0.594427E+00   0.235363E+03  -0.443502E-16
   LPB:    6  -0.580492227843407E+00   0.260154544829870E-03   0.338311E-01   0.787463E+00   0.112712E+03  -0.514005E-16
   LPB:    7  -0.580492205032936E+00   0.166902846219267E-03   0.379025E-01   0.709802E+00   0.213954E+03  -0.520437E-16
  Finished solving LPB equations
  A_corr:   -0.503874325608614     
 End minimization
 Ecorr=   1432.36540512913     
 A_corr= -0.503874325608614     
 Ecorr_band=  -1432.86927945474     
 End Solvation calculations
RMM:   4    -0.133216202353E+03    0.23718E-04   -0.11483E-04  3709   0.434E-02    0.296E-02
 Begin Solvation calculations
  rms_SCF =   2.222605088968344E-003 tol =   2.222605088968344E-004
 Begin minimization
 Creating dielectric and ionic cavities
  area:      145.950931929409     
  volume:    669.739698789065     
  Acav:     7.662423926293965E-002
  Solving linear dielectric/ionic screening model
        iter                  A_solv                     rms
   LPB:       -0.581131864181490E+00   0.529726483924032E-01
   LPB:    0  -0.581128659806445E+00   0.344584872095706E-01  -0.438724E-03   0.000000E+00   0.332959E+02  -0.146077E-01
   LPB:    1  -0.581113041078712E+00   0.157354204283372E-01   0.137149E-01   0.000000E+00   0.930349E+02   0.452922E-18
   LPB:    2  -0.581111024031425E+00   0.477228620362080E-02   0.140282E-01   0.126259E+00   0.837424E+02   0.134066E-16
   LPB:    3  -0.581110451676950E+00   0.229230450902180E-02   0.182671E-01   0.217912E+00   0.351882E+03   0.197155E-17
   LPB:    4  -0.581110206569970E+00   0.180441918549615E-02   0.248448E-01   0.314864E+00   0.109483E+03  -0.120888E-17
   LPB:    5  -0.581110066483757E+00   0.146012190671894E-02   0.251738E-01   0.564063E+00   0.351624E+03   0.119666E-16
   LPB:    6  -0.581109949036633E+00   0.552942331474423E-03   0.317918E-01   0.663864E+00   0.108493E+03   0.173758E-16
   LPB:    7  -0.581109863053083E+00   0.378058463789714E-03   0.373208E-01   0.623646E+00   0.282500E+03   0.310948E-16
   LPB:    8  -0.581109805391822E+00   0.303289608314635E-03   0.364952E-01   0.685778E+00   0.201113E+03   0.449084E-16
   LPB:    9  -0.581109767518708E+00   0.252825723544686E-03   0.354937E-01   0.675354E+00   0.385368E+03   0.556022E-16
   LPB:   10  -0.581109742778213E+00   0.193724312357326E-03   0.353633E-01   0.655655E+00   0.283880E+03   0.618147E-16
  Finished solving LPB equations
  A_corr:   -0.504485503515273     
 End minimization
 Ecorr=   1432.11316701354     
 A_corr= -0.504485503515273     
 Ecorr_band=  -1432.61765251706     
 End Solvation calculations
RMM:   5    -0.133216219987E+03   -0.17634E-04   -0.41439E-05  2697   0.238E-02    0.170E-02
 Begin Solvation calculations
  rms_SCF =   2.222605088968344E-003 tol =   2.222605088968344E-004
 Begin minimization
 Creating dielectric and ionic cavities
  area:      145.955657411626     
  volume:    669.747319520116     
  Acav:     7.662672014110390E-002
  Solving linear dielectric/ionic screening model
        iter                  A_solv                     rms
   LPB:       -0.581415500111503E+00   0.319978513455376E-01
   LPB:    0  -0.581414537244074E+00   0.234575883554589E-01  -0.240494E-03   0.000000E+00   0.332956E+02  -0.800740E-02
[...]
   LPB:    0  -0.616033366082867E+00   0.195886425134541E-01  -0.774170E-06   0.000000E+00   0.333196E+02  -0.257951E-04
   LPB:    1  -0.616032269936682E+00   0.191530012973815E-02   0.879883E-02   0.000000E+00   0.737963E+02  -0.128282E-20
   LPB:    2  -0.616032171584546E+00   0.339797822025344E-03   0.164339E-01   0.480397E-01   0.132150E+03  -0.299558E-18
   LPB:    3  -0.616032158895761E+00   0.165648709277986E-03   0.229639E-01   0.923274E-01   0.237039E+03  -0.379952E-18
   LPB:    4  -0.616032154987908E+00   0.118605383591503E-03   0.281792E-01   0.250978E+00   0.324246E+03  -0.407609E-18
   LPB:    5  -0.616032153296479E+00   0.132247879106507E-03   0.273823E-01   0.445425E+00   0.318359E+03  -0.118791E-17
   LPB:    6  -0.616032152430200E+00   0.112281966931467E-03   0.257082E-01   0.545508E+00   0.171197E+03  -0.112061E-17
   LPB:    7  -0.616032151909622E+00   0.605896550609344E-04   0.260711E-01   0.592572E+00   0.249806E+03  -0.708931E-19
   LPB:    8  -0.616032151543257E+00   0.219974114114357E-04   0.336361E-01   0.545484E+00   0.382112E+03   0.166124E-17
  Finished solving LPB equations
  A_corr:   -0.539348171306831     
 End minimization
 Ecorr=   1427.63111396440     
 A_corr= -0.539348171306831     
 Ecorr_band=  -1428.17046213571     
 End Solvation calculations
 175 F= -.13322463E+03 E0= -.13322107E+03  d E =0.301274E-04
quench:  g(F)=  0.000E+00 g(S)=  0.000E+00 dE (1.order)= 0.000E+00
 bond charge predicted
       N       E                     dE             d eps       ncg     rms          rms(c)
 Begin Solvation calculations
  rms_SCF =   5.081082009673467E-004 tol =   5.081082009673467E-005
 Begin minimization
 Creating dielectric and ionic cavities
  area:      146.066098369128     
  volume:    669.234485023784     
  Acav:     7.668470164379226E-002
  Solving linear dielectric/ionic screening model
        iter                  A_solv                     rms
   LPB:       -0.616035526007072E+00   0.325469876926986E-03
   LPB:    0  -0.616035526006893E+00   0.326385933407654E-03   0.103695E-06   0.000000E+00   0.333196E+02   0.345508E-05
   LPB:    1  -0.616026192924514E+00   0.117763595665589E-03   0.151879E-01   0.000000E+00   0.735028E+06  -0.579953E-22
   LPB:    2  -0.616025405304730E+00   0.814477018250375E-04   0.265389E-01   0.482954E-01   0.144962E+06  -0.256905E-18
   LPB:    3  -0.616025152475292E+00   0.134811366260759E-03   0.329843E-01   0.258278E+00   0.553424E+05   0.121496E-18
   LPB:    4  -0.616025039224663E+00   0.288322425856919E-03   0.360470E-01   0.409874E+00   0.910462E+04   0.286981E-18
   LPB:    5  -0.616024982761181E+00   0.628277467100798E-03   0.359533E-01   0.499871E+00   0.112888E+04   0.117954E-17
   LPB:    6  -0.616024955623213E+00   0.865857914654662E-03   0.280474E-01   0.616108E+00   0.214364E+03   0.163614E-17
   LPB:    7  -0.616024937781700E+00   0.467803792879388E-03   0.233169E-01   0.790817E+00   0.216173E+03   0.982496E-18
   LPB:    8  -0.616024925023993E+00   0.539140808490396E-03   0.304295E-01   0.547918E+00   0.449515E+03  -0.111974E-16
   LPB:    9  -0.616024918319074E+00   0.481576134418981E-03   0.217732E-01   0.734503E+00   0.174599E+03  -0.205473E-16
   LPB:   10  -0.616024912323425E+00   0.134091249736510E-03   0.261133E-01   0.745597E+00   0.367957E+03  -0.257369E-16
   LPB:   11  -0.616024907947134E+00   0.459349262327165E-04   0.386340E-01   0.493357E+00   0.282049E+04  -0.338101E-16
  Finished solving LPB equations
  A_corr:   -0.539340206303341     
 End minimization
 Ecorr=   1427.63139579326     
 A_corr= -0.539340206303341     
 Ecorr_band=  -1428.17073599956     
 End Solvation calculations
DAV:   1    -0.133224597903E+03    0.26668E-04   -0.62558E-04  5481   0.881E-02    0.962E-03
 Begin Solvation calculations
  rms_SCF =   5.081082009673467E-004 tol =   5.081082009673467E-005
 Begin minimization
 Creating dielectric and ionic cavities
  area:      146.065106952659     
  volume:    669.232508586811     
  Acav:     7.668418115014597E-002
  Solving linear dielectric/ionic screening model
        iter                  A_solv                     rms
   LPB:       -0.616065035898517E+00   0.169950130211924E-01
   LPB:    0  -0.616065025568976E+00   0.168835858781344E-01  -0.249003E-04   0.000000E+00   0.333197E+02  -0.829671E-03
   LPB:    1  -0.616064083976269E+00   0.179298694599900E-02   0.932081E-02   0.000000E+00   0.759115E+02   0.249774E-19
   LPB:    2  -0.616063958892002E+00   0.394127755908445E-03   0.163085E-01   0.759242E-01   0.247539E+03   0.181729E-17
   LPB:    3  -0.616063932899241E+00   0.285766631065342E-03   0.261857E-01   0.129419E+00   0.506237E+03   0.119735E-17
   LPB:    4  -0.616063923659801E+00   0.297803868139286E-03   0.283968E-01   0.327783E+00   0.298543E+03   0.305597E-18
   LPB:    5  -0.616063919123405E+00   0.253766440091412E-03   0.250301E-01   0.557022E+00   0.255517E+03   0.222931E-18
   LPB:    6  -0.616063916147574E+00   0.159702400121700E-03   0.278275E-01   0.590046E+00   0.209284E+03  -0.119962E-18
   LPB:    7  -0.616063914114715E+00   0.841889076932773E-04   0.311049E-01   0.611145E+00   0.432883E+03  -0.838154E-18
   LPB:    8  -0.616063912653212E+00   0.375593997635097E-04   0.360842E-01   0.619732E+00   0.697533E+03  -0.122283E-17
  Finished solving LPB equations
  A_corr:   -0.539379731503066     
 End minimization
 Ecorr=   1427.63116950157     
 A_corr= -0.539379731503066     
 Ecorr_band=  -1428.17054923307     
 End Solvation calculations
RMM:   2    -0.133224601371E+03   -0.34685E-05   -0.42559E-05  2587   0.174E-02
 Begin Solvation calculations
  rms_SCF =   5.081082009673467E-004 tol =   5.081082009673467E-005
 Begin minimization
 Creating dielectric and ionic cavities
  area:      146.064682067896     
  volume:    669.233165548639     
  Acav:     7.668395808564522E-002
  Solving linear dielectric/ionic screening model
        iter                  A_solv                     rms
   LPB:       -0.616061978381616E+00   0.161649834072989E-01
   LPB:    0  -0.616061978372386E+00   0.161647728842247E-01   0.744341E-06   0.000000E+00   0.333197E+02   0.248012E-04
   LPB:    1  -0.616061222644560E+00   0.155869660930476E-02   0.882944E-02   0.000000E+00   0.741974E+02  -0.317943E-21
   LPB:    2  -0.616061152376494E+00   0.281563500171427E-03   0.164785E-01   0.498205E-01   0.142105E+03  -0.269010E-18
   LPB:    3  -0.616061142286180E+00   0.154467066632954E-03   0.240104E-01   0.985521E-01   0.260821E+03  -0.282327E-18
   LPB:    4  -0.616061138613985E+00   0.131901160037703E-03   0.303572E-01   0.287844E+00   0.336235E+03  -0.294597E-18
   LPB:    5  -0.616061136921332E+00   0.139715778649706E-03   0.269097E-01   0.519992E+00   0.326123E+03  -0.458465E-18
   LPB:    6  -0.616061135998114E+00   0.112509184031347E-03   0.260009E-01   0.564489E+00   0.191417E+03  -0.270997E-18
   LPB:    7  -0.616061135389236E+00   0.619160802944982E-04   0.279995E-01   0.612441E+00   0.299145E+03   0.104107E-18
   LPB:    8  -0.616061134911163E+00   0.264605105334800E-04   0.358235E-01   0.613687E+00   0.593065E+03   0.161248E-17
  Finished solving LPB equations
  A_corr:   -0.539377176825518     
 End minimization
 Ecorr=   1427.62915801066     
 A_corr= -0.539377176825518     
 Ecorr_band=  -1428.16853518748     
 End Solvation calculations
 176 F= -.13322460E+03 E0= -.13322104E+03  d E =0.273184E-04
quench:  g(F)=  0.000E+00 g(S)=  0.000E+00 dE (1.order)= 0.000E+00
 bond charge predicted
       N       E                     dE             d eps       ncg     rms          rms(c)
 Begin Solvation calculations
  rms_SCF =   5.081082009673467E-004 tol =   5.081082009673467E-005
 Begin minimization
 Creating dielectric and ionic cavities
  area:      146.063241558406     
  volume:    669.231706974848     
  Acav:     7.668320181816307E-002
  Solving linear dielectric/ionic screening model
        iter                  A_solv                     rms
   LPB:       -0.616073374205336E+00   0.320755055263942E-03
   LPB:    0  -0.616073374205053E+00   0.321353777191161E-03  -0.130407E-06   0.000000E+00   0.333197E+02  -0.434514E-05
   LPB:    1  -0.616064260450189E+00   0.115971101953403E-03   0.157758E-01   0.000000E+00   0.696753E+06   0.373265E-21
   LPB:    2  -0.616063271121873E+00   0.705831556607481E-04   0.275966E-01   0.620554E-01   0.172476E+06   0.129055E-18
   LPB:    3  -0.616062940357932E+00   0.110298802470133E-03   0.332325E-01   0.277632E+00   0.901147E+05   0.169966E-18
   LPB:    4  -0.616062792317066E+00   0.258299434781843E-03   0.360071E-01   0.413084E+00   0.190415E+05   0.550006E-18
   LPB:    5  -0.616062719276288E+00   0.679259104352778E-03   0.362962E-01   0.489453E+00   0.210273E+04   0.107998E-17
   LPB:    6  -0.616062686137207E+00   0.119827707418885E-02   0.278606E-01   0.591079E+00   0.260240E+03   0.147927E-17
   LPB:    7  -0.616062665658913E+00   0.543689389117282E-03   0.194405E-01   0.885599E+00   0.208247E+03   0.262549E-17
   LPB:    8  -0.616062649075402E+00   0.395988147205091E-03   0.311687E-01   0.505093E+00   0.627644E+03   0.446305E-17
   LPB:    9  -0.616062639857914E+00   0.483338535727127E-03   0.280776E-01   0.617014E+00   0.206650E+03   0.622485E-17
   LPB:   10  -0.616062633538597E+00   0.210655904278557E-03   0.244276E-01   0.788019E+00   0.216198E+03   0.554456E-17
   LPB:   11  -0.616062628553728E+00   0.768117026295002E-04   0.361178E-01   0.533510E+00   0.100143E+04   0.932147E-17
   LPB:   12  -0.616062625235482E+00   0.651782345954459E-04   0.380160E-01   0.632425E+00   0.277445E+04   0.146365E-16
   LPB:   13  -0.616062623233672E+00   0.688179021727498E-04   0.349965E-01   0.655324E+00   0.168839E+04   0.191970E-16
   LPB:   14  -0.616062621905867E+00   0.485273562201889E-04   0.332306E-01   0.698551E+00   0.144800E+04   0.221435E-16
  Finished solving LPB equations
  A_corr:   -0.539379420087704     
 End minimization
 Ecorr=   1427.62892296294     
 A_corr= -0.539379420087704     
 Ecorr_band=  -1428.16830238303     
 End Solvation calculations
DAV:   1    -0.133224569327E+03    0.28576E-04   -0.60849E-04  5382   0.795E-02    0.924E-03
 Begin Solvation calculations
  rms_SCF =   5.081082009673467E-004 tol =   5.081082009673467E-005
 Begin minimization
 Creating dielectric and ionic cavities
  area:      146.065633637260     
  volume:    669.233204183607     
  Acav:     7.668445765956146E-002
  Solving linear dielectric/ionic screening model
        iter                  A_solv                     rms
   LPB:       -0.616044684331226E+00   0.193001197466036E-01
   LPB:    0  -0.616044674541526E+00   0.192042370411955E-01   0.242409E-04   0.000000E+00   0.333197E+02   0.807700E-03
   LPB:    1  -0.616043483972504E+00   0.217145871865004E-02   0.918268E-02   0.000000E+00   0.764294E+02   0.291098E-19
   LPB:    2  -0.616043302545948E+00   0.396383833081110E-03   0.180096E-01   0.776983E-01   0.178628E+03   0.154432E-17
   LPB:    3  -0.616043275252575E+00   0.236367710789938E-03   0.254664E-01   0.106388E+00   0.471507E+03   0.435843E-17
   LPB:    4  -0.616043265468420E+00   0.103719681853946E-03   0.278793E-01   0.327456E+00   0.535975E+03   0.491708E-17
   LPB:    5  -0.616043260984520E+00   0.787449791875906E-04   0.318325E-01   0.401369E+00   0.805872E+03   0.372423E-17
   LPB:    6  -0.616043258635704E+00   0.103783809073696E-03   0.335292E-01   0.497325E+00   0.642372E+03   0.318778E-17
   LPB:    7  -0.616043257316230E+00   0.132244873866186E-03   0.328217E-01   0.573870E+00   0.242922E+03   0.254346E-17
   LPB:    8  -0.616043256563618E+00   0.117899078104340E-03   0.267184E-01   0.700682E+00   0.206349E+03   0.306939E-17
   LPB:    9  -0.616043255993593E+00   0.488842753606350E-04   0.280507E-01   0.721425E+00   0.242684E+03   0.227146E-17
  Finished solving LPB equations
  A_corr:   -0.539358798334032     
 End minimization
 Ecorr=   1427.63379613160     
 A_corr= -0.539358798334032     
 Ecorr_band=  -1428.17315492993     
 End Solvation calculations
RMM:   2    -0.133224573323E+03   -0.39963E-05   -0.39899E-05  2561   0.191E-02
 Begin Solvation calculations
  rms_SCF =   5.081082009673467E-004 tol =   5.081082009673467E-005
 Begin minimization
 Creating dielectric and ionic cavities
  area:      146.064391521361     
  volume:    669.233250464926     
  Acav:     7.668380554871464E-002
  Solving linear dielectric/ionic screening model
        iter                  A_solv                     rms
   LPB:       -0.616039114841427E+00   0.198209906939505E-01
   LPB:    0  -0.616039114824734E+00   0.198208680440438E-01  -0.100100E-05   0.000000E+00   0.333197E+02  -0.333530E-04
   LPB:    1  -0.616037992780887E+00   0.193824873714654E-02   0.879728E-02   0.000000E+00   0.738060E+02   0.510000E-21
   LPB:    2  -0.616037892142462E+00   0.343542962923999E-03   0.164438E-01   0.479844E-01   0.131878E+03  -0.449046E-18
   LPB:    3  -0.616037879184695E+00   0.167195294186143E-03   0.229499E-01   0.922544E-01   0.237068E+03  -0.445175E-18
   LPB:    4  -0.616037875193607E+00   0.119257393513379E-03   0.281841E-01   0.250807E+00   0.324821E+03   0.116025E-17
   LPB:    5  -0.616037873468700E+00   0.132994140524864E-03   0.273998E-01   0.444561E+00   0.319362E+03   0.150112E-17
   LPB:    6  -0.616037872588755E+00   0.113224711561510E-03   0.256906E-01   0.544079E+00   0.171893E+03   0.183714E-17
   LPB:    7  -0.616037872062321E+00   0.611760798726882E-04   0.259989E-01   0.591164E+00   0.248751E+03   0.281974E-17
   LPB:    8  -0.616037871692808E+00   0.221656354702026E-04   0.335485E-01   0.543960E+00   0.380675E+03   0.392616E-17
  Finished solving LPB equations
  A_corr:   -0.539354066144093     
 End minimization
 Ecorr=   1427.63071034917     
 A_corr= -0.539354066144093     
 Ecorr_band=  -1428.17006441531     
 End Solvation calculations
 177 F= -.13322457E+03 E0= -.13322101E+03  d E =0.280477E-04
quench:  g(F)=  0.000E+00 g(S)=  0.000E+00 dE (1.order)= 0.000E+00
 bond charge predicted
       N       E                     dE             d eps       ncg     rms          rms(c)
 Begin Solvation calculations
  rms_SCF =   5.081082009673467E-004 tol =   5.081082009673467E-005
 Begin minimization
 Creating dielectric and ionic cavities
  area:      146.065654854739     
  volume:    669.233839464683     
  Acav:     7.668446879873785E-002
  Solving linear dielectric/ionic screening model
        iter                  A_solv                     rms
   LPB:       -0.616041418471967E+00   0.319617597642694E-03
   LPB:    0  -0.616041418471815E+00   0.320431241766399E-03   0.955717E-07   0.000000E+00   0.333196E+02   0.318441E-05
   LPB:    1  -0.616032355176323E+00   0.114960684858500E-03   0.151793E-01   0.000000E+00   0.743477E+06  -0.458708E-22
   LPB:    2  -0.616031590430547E+00   0.781086966818057E-04   0.265598E-01   0.482235E-01   0.147788E+06  -0.173105E-18
   LPB:    3  -0.616031344331070E+00   0.128110990545484E-03   0.330258E-01   0.258800E+00   0.578272E+05  -0.192139E-18
   LPB:    4  -0.616031233766079E+00   0.273345350990877E-03   0.360954E-01   0.411063E+00   0.974923E+04  -0.190067E-18
   LPB:    5  -0.616031178451578E+00   0.597284978308147E-03   0.360971E-01   0.500266E+00   0.121716E+04  -0.643355E-18
   LPB:    6  -0.616031151763332E+00   0.847501553094711E-03   0.285287E-01   0.610481E+00   0.222449E+03  -0.424955E-17
   LPB:    7  -0.616031134582257E+00   0.462218162464814E-03   0.232156E-01   0.791100E+00   0.208659E+03  -0.750721E-17
   LPB:    8  -0.616031122110089E+00   0.508377032391012E-03   0.305936E-01   0.550861E+00   0.471195E+03  -0.637399E-17
   LPB:    9  -0.616031115629190E+00   0.493999882287583E-03   0.222614E-01   0.714121E+00   0.178943E+03  -0.400687E-17
   LPB:   10  -0.616031109948677E+00   0.141985770525471E-03   0.251137E-01   0.776950E+00   0.334570E+03  -0.261473E-17
   LPB:   11  -0.616031105713683E+00   0.468158407201579E-04   0.383318E-01   0.488446E+00   0.255089E+04  -0.281527E-17
  Finished solving LPB equations
  A_corr:   -0.539346636914945     
 End minimization
 Ecorr=   1427.63102241310     
 A_corr= -0.539346636914945     
 Ecorr_band=  -1428.17036905001     
 End Solvation calculations
DAV:   1    -0.133224543207E+03    0.26120E-04   -0.59749E-04  5427   0.885E-02    0.950E-03
 Begin Solvation calculations
  rms_SCF =   5.081082009673467E-004 tol =   5.081082009673467E-005
 Begin minimization
 Creating dielectric and ionic cavities
  area:      146.064690930802     
  volume:    669.231912211143     
  Acav:     7.668396273867120E-002
  Solving linear dielectric/ionic screening model
        iter                  A_solv                     rms
   LPB:       -0.616070037199555E+00   0.169273634896273E-01
   LPB:    0  -0.616070027622726E+00   0.168232929962604E-01  -0.239759E-04   0.000000E+00   0.333197E+02  -0.798871E-03
   LPB:    1  -0.616069095023020E+00   0.178264119006782E-02   0.931299E-02   0.000000E+00   0.758612E+02  -0.112704E-19
   LPB:    2  -0.616068971166877E+00   0.392579980348490E-03   0.163410E-01   0.756888E-01   0.245258E+03   0.543613E-17
   LPB:    3  -0.616068945600114E+00   0.282985657159475E-03   0.261204E-01   0.129139E+00   0.500273E+03   0.622864E-17
   LPB:    4  -0.616068936506024E+00   0.293111279589520E-03   0.284356E-01   0.326739E+00   0.300213E+03   0.711391E-17
   LPB:    5  -0.616068932058795E+00   0.251333150101446E-03   0.250645E-01   0.554795E+00   0.256199E+03   0.739863E-17
   LPB:    6  -0.616068929149661E+00   0.158839635089559E-03   0.277595E-01   0.590638E+00   0.208778E+03   0.107006E-16
   LPB:    7  -0.616068927164567E+00   0.836609638787232E-04   0.310136E-01   0.610770E+00   0.428117E+03   0.140179E-16
   LPB:    8  -0.616068925738634E+00   0.371671711314247E-04   0.360354E-01   0.618215E+00   0.690628E+03   0.167358E-16
  Finished solving LPB equations
  A_corr:   -0.539384962999963     
 End minimization
 Ecorr=   1427.63085152083     
 A_corr= -0.539384962999963     
 Ecorr_band=  -1428.17023648383     
 End Solvation calculations
RMM:   2    -0.133224546643E+03   -0.34356E-05   -0.41991E-05  2593   0.175E-02
 Begin Solvation calculations
  rms_SCF =   5.081082009673467E-004 tol =   5.081082009673467E-005
 Begin minimization
 Creating dielectric and ionic cavities
  area:      146.064268705219     
  volume:    669.232570927570     
  Acav:     7.668374107023981E-002
  Solving linear dielectric/ionic screening model
        iter                  A_solv                     rms
   LPB:       -0.616066514227425E+00   0.161730364086463E-01
   LPB:    0  -0.616066514208382E+00   0.161726736170829E-01   0.106912E-05   0.000000E+00   0.333197E+02   0.356227E-04
   LPB:    1  -0.616065757746100E+00   0.155709066833526E-02   0.882848E-02   0.000000E+00   0.742131E+02   0.218061E-20
   LPB:    2  -0.616065687712005E+00   0.281105302047606E-03   0.164518E-01   0.496815E-01   0.142443E+03  -0.176303E-18
   LPB:    3  -0.616065677678273E+00   0.154158757055255E-03   0.239992E-01   0.982134E-01   0.260346E+03  -0.702569E-19
   LPB:    4  -0.616065674042764E+00   0.132054943899932E-03   0.302922E-01   0.287057E+00   0.334591E+03  -0.233168E-18
   LPB:    5  -0.616065672369674E+00   0.139332575670128E-03   0.268293E-01   0.519607E+00   0.324632E+03   0.537307E-18
   LPB:    6  -0.616065671458455E+00   0.111369603118912E-03   0.259576E-01   0.562923E+00   0.190533E+03   0.133599E-17
   LPB:    7  -0.616065670858575E+00   0.609337747647784E-04   0.280133E-01   0.610017E+00   0.301753E+03   0.114544E-17
   LPB:    8  -0.616065670389925E+00   0.259555625528693E-04   0.358193E-01   0.610986E+00   0.596851E+03   0.537817E-18
  Finished solving LPB equations
  A_corr:   -0.539381929319686     
 End minimization
 Ecorr=   1427.62886957012     
 A_corr= -0.539381929319686     
 Ecorr_band=  -1428.16825149944     
 End Solvation calculations
 178 F= -.13322455E+03 E0= -.13322098E+03  d E =0.266806E-04
quench:  g(F)=  0.000E+00 g(S)=  0.000E+00 dE (1.order)= 0.000E+00
 reached required accuracy - stopping structural energy minimisation
