 vasp.5.4.4.18Apr17-6-g9f103f2a35 (build Feb 06 2024 13:54:16) complex          
  
 POSCAR found type information on POSCAR  Ni N  O 
 02/POSCAR found :  3 types and      40 ions
 scaLAPACK will be used

 ----------------------------------------------------------------------------- 
|                                                                             |
|  ADVICE TO THIS USER RUNNING 'VASP/VAMP'   (HEAR YOUR MASTER'S VOICE ...):  |
|                                                                             |
|      You enforced a specific xc-type in the INCAR file,                     |
|      a different type was found on the POTCAR file                          |
|          I HOPE YOU KNOW, WHAT YOU ARE  DOING                               |
|                                                                             |
 ----------------------------------------------------------------------------- 

 LDA part: xc-table for Pade appr. of Perdew
 POSCAR found type information on POSCAR  Ni N  O 
 00/POSCAR found :  3 types and      40 ions
 POSCAR found type information on POSCAR  Ni N  O 
 06/POSCAR found :  3 types and      40 ions
 Jacobian:    19.3150482140651     
 POSCAR, INCAR and KPOINTS ok, starting setup
 FFT: planning ...
 WAVECAR not read
 entering main loop
       N       E                     dE             d eps       ncg     rms          rms(c)
DAV:   1     0.251910801296E+04    0.25191E+04   -0.12486E+05  5976   0.112E+03
DAV:   2     0.917512171729E+02   -0.24274E+04   -0.22897E+04  5976   0.312E+02
DAV:   3    -0.198749045163E+03   -0.29050E+03   -0.25051E+03  7158   0.128E+02
DAV:   4    -0.222168163486E+03   -0.23419E+02   -0.22551E+02  6651   0.335E+01
DAV:   5    -0.222866806466E+03   -0.69864E+00   -0.63236E+00  6633   0.515E+00    0.569E+01
DAV:   6    -0.219700871793E+03    0.31659E+01   -0.33941E+02  6726   0.109E+02    0.801E+01
DAV:   7    -0.254801169188E+03   -0.35100E+02   -0.18271E+02  6651   0.158E+02    0.108E+02
DAV:   8    -0.283906632799E+03   -0.29105E+02   -0.94302E+01  6729   0.118E+02    0.119E+02
DAV:   9    -0.210214956438E+03    0.73692E+02   -0.68115E+01  8214   0.739E+01    0.751E+01
DAV:  10    -0.200437503174E+03    0.97775E+01   -0.56977E+01  6585   0.721E+01    0.719E+01
DAV:  11    -0.187631301175E+03    0.12806E+02   -0.36162E+01  6777   0.666E+01    0.587E+01
DAV:  12    -0.189755001030E+03   -0.21237E+01   -0.40976E+01  6732   0.482E+01    0.656E+01
DAV:  13    -0.191071057711E+03   -0.13161E+01   -0.28925E+01  6498   0.450E+01    0.703E+01
DAV:  14    -0.181996303534E+03    0.90748E+01   -0.23517E+01  6570   0.351E+01    0.487E+01
DAV:  15    -0.178770462406E+03    0.32258E+01   -0.91436E+00  6741   0.286E+01    0.397E+01
DAV:  16    -0.182600819399E+03   -0.38304E+01   -0.80238E+00  6756   0.316E+01    0.547E+01
DAV:  17    -0.178864159838E+03    0.37367E+01   -0.13092E+01  6741   0.235E+01    0.313E+01
DAV:  18    -0.177909413881E+03    0.95475E+00   -0.39409E+00  6348   0.213E+01    0.229E+01
DAV:  19    -0.178541728435E+03   -0.63231E+00   -0.31377E+00  6474   0.176E+01    0.257E+01
DAV:  20    -0.177788477896E+03    0.75325E+00   -0.25223E+00  6462   0.156E+01    0.178E+01
DAV:  21    -0.178088950054E+03   -0.30047E+00   -0.15177E+00  6498   0.129E+01    0.165E+01
DAV:  22    -0.179443760645E+03   -0.13548E+01   -0.17017E+00  6348   0.125E+01    0.151E+01
DAV:  23    -0.180454523810E+03   -0.10108E+01   -0.12317E+00  6213   0.109E+01    0.152E+01
DAV:  24    -0.182530008863E+03   -0.20755E+01   -0.12661E+00  6282   0.102E+01    0.159E+01
DAV:  25    -0.183332902575E+03   -0.80289E+00   -0.94131E-01  6240   0.920E+00    0.145E+01
DAV:  26    -0.184195435753E+03   -0.86253E+00   -0.58468E-01  6195   0.583E+00    0.149E+01
DAV:  27    -0.184524648847E+03   -0.32921E+00   -0.29027E-01  6363   0.470E+00    0.147E+01
DAV:  28    -0.185069446423E+03   -0.54480E+00   -0.26548E-01  6246   0.387E+00    0.141E+01
DAV:  29    -0.185771755837E+03   -0.70231E+00   -0.50151E-01  6363   0.497E+00    0.119E+01
DAV:  30    -0.187210677275E+03   -0.14389E+01   -0.11465E+00  6345   0.860E+00    0.110E+01
DAV:  31    -0.188252154898E+03   -0.10415E+01   -0.11149E+00  6480   0.859E+00    0.729E+00
DAV:  32    -0.188771928603E+03   -0.51977E+00   -0.47208E-01  6438   0.580E+00    0.782E+00
DAV:  33    -0.189253526191E+03   -0.48160E+00   -0.44378E-01  6309   0.483E+00    0.574E+00
DAV:  34    -0.189459031489E+03   -0.20551E+00   -0.15898E-01  6486   0.221E+00    0.588E+00
DAV:  35    -0.189595929305E+03   -0.13690E+00   -0.58767E-02  6417   0.159E+00    0.588E+00
DAV:  36    -0.189813780818E+03   -0.21785E+00   -0.60331E-02  6309   0.190E+00    0.592E+00
DAV:  37    -0.190189852141E+03   -0.37607E+00   -0.16049E-01  6270   0.290E+00    0.469E+00
DAV:  38    -0.190649518278E+03   -0.45967E+00   -0.21677E-01  6378   0.404E+00    0.496E+00
DAV:  39    -0.191029788992E+03   -0.38027E+00   -0.26738E-01  6273   0.393E+00    0.281E+00
DAV:  40    -0.191155421276E+03   -0.12563E+00   -0.86591E-02  6450   0.226E+00    0.271E+00
DAV:  41    -0.191319815847E+03   -0.16439E+00   -0.54459E-02  6219   0.180E+00    0.236E+00
DAV:  42    -0.191373569890E+03   -0.53754E-01   -0.17351E-02  6336   0.103E+00    0.255E+00
DAV:  43    -0.191423337876E+03   -0.49768E-01   -0.83697E-03  6240   0.712E-01    0.265E+00
DAV:  44    -0.191446139171E+03   -0.22801E-01   -0.30841E-03  6255   0.424E-01    0.254E+00
DAV:  45    -0.191495789708E+03   -0.49651E-01   -0.44341E-03  6270   0.558E-01    0.219E+00
DAV:  46    -0.191614624152E+03   -0.11883E+00   -0.14059E-02  6294   0.112E+00    0.229E+00
DAV:  47    -0.191765836109E+03   -0.15121E+00   -0.29175E-02  6219   0.136E+00    0.237E+00
DAV:  48    -0.191802325683E+03   -0.36490E-01   -0.11517E-02  6402   0.787E-01    0.219E+00
DAV:  49    -0.191825131067E+03   -0.22805E-01   -0.72930E-03  6153   0.759E-01    0.176E+00
DAV:  50    -0.191868204821E+03   -0.43074E-01   -0.63417E-03  6330   0.774E-01    0.154E+00
DAV:  51    -0.191885932689E+03   -0.17728E-01   -0.12120E-02  6573   0.107E+00    0.126E+00
DAV:  52    -0.191984867909E+03   -0.98935E-01   -0.17123E-02  6468   0.982E-01    0.159E+00
DAV:  53    -0.192020203185E+03   -0.35335E-01   -0.87737E-03  6282   0.875E-01    0.144E+00
DAV:  54    -0.192066405954E+03   -0.46203E-01   -0.17536E-02  6528   0.997E-01    0.173E+00
DAV:  55    -0.192087131692E+03   -0.20726E-01   -0.73392E-03  6282   0.788E-01    0.160E+00
DAV:  56    -0.192097990491E+03   -0.10859E-01   -0.12887E-02  6294   0.971E-01    0.762E-01
DAV:  57    -0.192106268253E+03   -0.82778E-02   -0.38904E-03  6534   0.592E-01    0.740E-01
DAV:  58    -0.192115051409E+03   -0.87832E-02   -0.27783E-03  6462   0.491E-01    0.682E-01
DAV:  59    -0.192120164590E+03   -0.51132E-02   -0.17131E-03  6300   0.393E-01    0.571E-01
DAV:  60    -0.192124428874E+03   -0.42643E-02   -0.11682E-03  6249   0.339E-01    0.365E-01
DAV:  61    -0.192132278622E+03   -0.78497E-02   -0.19147E-03  6021   0.372E-01    0.494E-01
DAV:  62    -0.192134343067E+03   -0.20644E-02   -0.10245E-03  6246   0.328E-01    0.378E-01
DAV:  63    -0.192138169386E+03   -0.38263E-02   -0.13411E-03  5772   0.317E-01    0.372E-01
DAV:  64    -0.192142341493E+03   -0.41721E-02   -0.47553E-04  5160   0.211E-01    0.408E-01
DAV:  65    -0.192144658273E+03   -0.23168E-02   -0.34862E-04  4683   0.183E-01    0.413E-01
DAV:  66    -0.192145652515E+03   -0.99424E-03   -0.69229E-04  4431   0.255E-01    0.253E-01
DAV:  67    -0.192147249032E+03   -0.15965E-02   -0.31576E-04  3984   0.194E-01    0.184E-01
DAV:  68    -0.192149993881E+03   -0.27448E-02   -0.21972E-04  4413   0.120E-01    0.145E-01
DAV:  69    -0.192151070366E+03   -0.10765E-02   -0.12542E-04  3906   0.102E-01    0.139E-01
DAV:  70    -0.192151771682E+03   -0.70132E-03   -0.58796E-05  3648   0.730E-02    0.102E-01
DAV:  71    -0.192152727017E+03   -0.95534E-03   -0.10137E-04  3738   0.875E-02    0.772E-02
DAV:  72    -0.192152856103E+03   -0.12909E-03   -0.49726E-05  3645   0.661E-02    0.423E-02
DAV:  73    -0.192153562485E+03   -0.70638E-03   -0.34284E-05  3708   0.444E-02    0.724E-02
DAV:  74    -0.192154174146E+03   -0.61166E-03   -0.25052E-05  3681   0.298E-02    0.758E-02
DAV:  75    -0.192154426035E+03   -0.25189E-03   -0.15170E-05  3558   0.309E-02    0.659E-02
DAV:  76    -0.192154438713E+03   -0.12678E-04   -0.13244E-05  3516   0.401E-02
   1 F= -.19215444E+03 E0= -.19215170E+03  d E =-.192154E+03  mag=    25.3498
quench:  g(F)=  0.000E+00 g(S)=  0.000E+00 dE (1.order)= 0.000E+00
 bond charge predicted
       N       E                     dE             d eps       ncg     rms          rms(c)
DAV:   1    -0.192147661735E+03    0.67643E-02   -0.70413E-01  6075   0.143E+00    0.228E-01
DAV:   2    -0.192151434067E+03   -0.37723E-02   -0.23370E-02  8217   0.619E-01    0.910E-01
DAV:   3    -0.192151823337E+03   -0.38927E-03   -0.15082E-02  6687   0.904E-01    0.105E+00
DAV:   4    -0.192150217161E+03    0.16062E-02   -0.81758E-03  6465   0.811E-01    0.463E-01
DAV:   5    -0.192149981297E+03    0.23586E-03   -0.15522E-03  6471   0.462E-01    0.260E-01
DAV:   6    -0.192149968217E+03    0.13079E-04   -0.53518E-04  4869   0.282E-01
   2 F= -.19214997E+03 E0= -.19214707E+03  d E =0.447050E-02  mag=    25.3453
quench:  g(F)=  0.000E+00 g(S)=  0.000E+00 dE (1.order)= 0.000E+00
 bond charge predicted
       N       E                     dE             d eps       ncg     rms          rms(c)
DAV:   1    -0.192130483816E+03    0.19497E-01   -0.27884E+00  6000   0.289E+00    0.510E-01
DAV:   2    -0.192156199252E+03   -0.25715E-01   -0.10394E-01  8613   0.203E+00    0.268E+00
DAV:   3    -0.192152542509E+03    0.36567E-02   -0.84002E-02  6519   0.243E+00    0.279E+00
DAV:   4    -0.192137710970E+03    0.14832E-01   -0.54091E-02  6570   0.179E+00    0.956E-01
DAV:   5    -0.192141412710E+03   -0.37017E-02   -0.96172E-03  6792   0.113E+00    0.111E+00
DAV:   6    -0.192137968652E+03    0.34441E-02   -0.52733E-03  6627   0.930E-01    0.265E-01
DAV:   7    -0.192138757154E+03   -0.78850E-03   -0.16478E-03  6468   0.482E-01    0.438E-01
DAV:   8    -0.192138683833E+03    0.73321E-04   -0.12944E-03  6366   0.403E-01    0.266E-01
DAV:   9    -0.192138662762E+03    0.21071E-04   -0.52172E-04  4650   0.270E-01
   3 F= -.19213866E+03 E0= -.19213570E+03  d E =0.113055E-01  mag=    25.3361
quench:  g(F)=  0.000E+00 g(S)=  0.000E+00 dE (1.order)= 0.000E+00
 bond charge predicted
       N       E                     dE             d eps       ncg     rms          rms(c)
DAV:   1    -0.192100684967E+03    0.37999E-01   -0.63471E+00  5988   0.437E+00    0.662E-01
DAV:   2    -0.192123662118E+03   -0.22977E-01   -0.18305E-01  8049   0.159E+00    0.172E+00
DAV:   3    -0.192130377171E+03   -0.67151E-02   -0.58406E-02  6876   0.226E+00    0.265E+00
DAV:   4    -0.192133213930E+03   -0.28368E-02   -0.10049E-01  6588   0.239E+00    0.281E+00
DAV:   5    -0.192119473804E+03    0.13740E-01   -0.45167E-02  6756   0.178E+00    0.105E+00
DAV:   6    -0.192117676721E+03    0.17971E-02   -0.47907E-03  6750   0.955E-01    0.414E-01
DAV:   7    -0.192120055507E+03   -0.23788E-02   -0.42232E-03  6840   0.736E-01    0.824E-01
DAV:   8    -0.192118434642E+03    0.16209E-02   -0.33231E-03  6663   0.690E-01    0.309E-01
DAV:   9    -0.192118785283E+03   -0.35064E-03   -0.11220E-03  6186   0.399E-01    0.392E-01
DAV:  10    -0.192118467228E+03    0.31805E-03   -0.75264E-04  5166   0.312E-01    0.148E-01
DAV:  11    -0.192118447018E+03    0.20210E-04   -0.16383E-04  3450   0.146E-01
   4 F= -.19211845E+03 E0= -.19211531E+03  d E =0.202157E-01  mag=    25.3222
quench:  g(F)=  0.000E+00 g(S)=  0.000E+00 dE (1.order)= 0.000E+00
 bond charge predicted
       N       E                     dE             d eps       ncg     rms          rms(c)
DAV:   1    -0.192054835673E+03    0.63632E-01   -0.11577E+01  5976   0.591E+00    0.905E-01
DAV:   2    -0.192093610677E+03   -0.38775E-01   -0.33480E-01  7956   0.202E+00    0.168E+00
DAV:   3    -0.192098275789E+03   -0.46651E-02   -0.60202E-02  6696   0.297E+00    0.232E+00
DAV:   4    -0.192163426221E+03   -0.65150E-01   -0.22172E-01  7002   0.362E+00    0.606E+00
DAV:   5    -0.192088487250E+03    0.74939E-01   -0.15039E-01  6981   0.301E+00    0.164E+00
DAV:   6    -0.192086352696E+03    0.21346E-02   -0.12613E-02  7017   0.144E+00    0.551E-01
DAV:   7    -0.192090678231E+03   -0.43255E-02   -0.76683E-03  6975   0.980E-01    0.113E+00
DAV:   8    -0.192087475853E+03    0.32024E-02   -0.63973E-03  6678   0.928E-01    0.344E-01
DAV:   9    -0.192087870297E+03   -0.39444E-03   -0.18530E-03  6714   0.507E-01    0.389E-01
DAV:  10    -0.192087704385E+03    0.16591E-03   -0.10634E-03  6129   0.366E-01    0.247E-01
DAV:  11    -0.192087572864E+03    0.13152E-03   -0.38111E-04  3642   0.217E-01    0.770E-02
DAV:  12    -0.192087655199E+03   -0.82334E-04   -0.11206E-04  3537   0.108E-01
   5 F= -.19208766E+03 E0= -.19208420E+03  d E =0.307918E-01  mag=    25.3014
quench:  g(F)=  0.000E+00 g(S)=  0.000E+00 dE (1.order)= 0.000E+00
 bond charge predicted
       N       E                     dE             d eps       ncg     rms          rms(c)
DAV:   1    -0.191997949881E+03    0.89623E-01   -0.13903E+01  6012   0.633E+00    0.104E+00
DAV:   2    -0.192055085581E+03   -0.57136E-01   -0.47906E-01  7989   0.242E+00    0.299E+00
DAV:   3    -0.192105984327E+03   -0.50899E-01   -0.29005E-01  6951   0.415E+00    0.595E+00
DAV:   4    -0.192046396867E+03    0.59587E-01   -0.21810E-01  6639   0.402E+00    0.242E+00
DAV:   5    -0.192036202163E+03    0.10195E-01   -0.49112E-02  7098   0.225E+00    0.129E+00
DAV:   6    -0.192037749518E+03   -0.15474E-02   -0.16618E-02  7212   0.146E+00    0.131E+00
DAV:   7    -0.192037984482E+03   -0.23496E-03   -0.17005E-02  6633   0.136E+00    0.129E+00
DAV:   8    -0.192035238060E+03    0.27464E-02   -0.74642E-03  6822   0.102E+00    0.831E-01
DAV:   9    -0.192035538599E+03   -0.30054E-03   -0.48918E-03  6789   0.753E-01    0.725E-01
DAV:  10    -0.192034174246E+03    0.13644E-02   -0.25878E-03  6738   0.613E-01    0.196E-01
DAV:  11    -0.192034385022E+03   -0.21078E-03   -0.66174E-04  5799   0.266E-01    0.223E-01
DAV:  12    -0.192034392899E+03   -0.78766E-05   -0.30548E-04  3564   0.184E-01
   6 F= -.19203439E+03 E0= -.19203063E+03  d E =0.532623E-01  mag=    25.2768
quench:  g(F)=  0.000E+00 g(S)=  0.000E+00 dE (1.order)= 0.000E+00
 bond charge predicted
       N       E                     dE             d eps       ncg     rms          rms(c)
DAV:   1    -0.192032668612E+03    0.17164E-02   -0.50772E+00  6183   0.340E+00    0.805E-01
DAV:   2    -0.192068091398E+03   -0.35423E-01   -0.26596E-01  8001   0.186E+00    0.284E+00
DAV:   3    -0.192068902504E+03   -0.81111E-03   -0.14331E-01  7470   0.282E+00    0.310E+00
DAV:   4    -0.192058951594E+03    0.99509E-02   -0.68240E-02  7128   0.236E+00    0.207E+00
DAV:   5    -0.192048187568E+03    0.10764E-01   -0.20299E-02  7119   0.162E+00    0.627E-01
DAV:   6    -0.192052410482E+03   -0.42229E-02   -0.11863E-02  6870   0.132E+00    0.122E+00
DAV:   7    -0.192049628619E+03    0.27819E-02   -0.90138E-03  6735   0.111E+00    0.908E-01
DAV:   8    -0.192047640674E+03    0.19879E-02   -0.39226E-03  6861   0.763E-01    0.426E-01
DAV:   9    -0.192048115839E+03   -0.47517E-03   -0.27249E-03  6777   0.507E-01    0.514E-01
DAV:  10    -0.192047533527E+03    0.58231E-03   -0.13048E-03  6498   0.418E-01    0.246E-01
DAV:  11    -0.192047532798E+03    0.72956E-06   -0.35434E-04  3699   0.189E-01
   7 F= -.19204753E+03 E0= -.19204371E+03  d E =-.131399E-01  mag=    25.2558
quench:  g(F)=  0.000E+00 g(S)=  0.000E+00 dE (1.order)= 0.000E+00
 bond charge predicted
       N       E                     dE             d eps       ncg     rms          rms(c)
DAV:   1    -0.192040430980E+03    0.71025E-02   -0.12019E+00  6066   0.185E+00    0.333E-01
DAV:   2    -0.192055981087E+03   -0.15550E-01   -0.64674E-02  8814   0.128E+00    0.233E+00
DAV:   3    -0.192044048335E+03    0.11933E-01   -0.39824E-02  7563   0.144E+00    0.792E-01
DAV:   4    -0.192045295479E+03   -0.12471E-02   -0.66366E-03  6576   0.949E-01    0.757E-01
DAV:   5    -0.192044038120E+03    0.12574E-02   -0.38943E-03  7089   0.706E-01    0.444E-01
DAV:   6    -0.192044087790E+03   -0.49670E-04   -0.16561E-03  6759   0.486E-01    0.411E-01
DAV:   7    -0.192044063246E+03    0.24544E-04   -0.18156E-03  6270   0.402E-01    0.369E-01
DAV:   8    -0.192043891082E+03    0.17216E-03   -0.68710E-04  4743   0.318E-01    0.282E-01
DAV:   9    -0.192043901058E+03   -0.99766E-05   -0.48960E-04  3978   0.241E-01
   8 F= -.19204390E+03 E0= -.19203995E+03  d E =0.363174E-02  mag=    25.2433
quench:  g(F)=  0.000E+00 g(S)=  0.000E+00 dE (1.order)= 0.000E+00
 bond charge predicted
       N       E                     dE             d eps       ncg     rms          rms(c)
DAV:   1    -0.192026391686E+03    0.17499E-01   -0.27357E+00  5976   0.295E+00    0.444E-01
DAV:   2    -0.192039757833E+03   -0.13366E-01   -0.89472E-02  8118   0.120E+00    0.166E+00
DAV:   3    -0.192045425717E+03   -0.56679E-02   -0.63390E-02  6753   0.190E+00    0.243E+00
DAV:   4    -0.192035697565E+03    0.97282E-02   -0.34391E-02  6534   0.168E+00    0.101E+00
DAV:   5    -0.192034913418E+03    0.78415E-03   -0.80969E-03  7098   0.991E-01    0.770E-01
DAV:   6    -0.192033991544E+03    0.92187E-03   -0.25711E-03  6855   0.634E-01    0.495E-01
DAV:   7    -0.192034209052E+03   -0.21751E-03   -0.25316E-03  6576   0.484E-01    0.474E-01
DAV:   8    -0.192033832979E+03    0.37607E-03   -0.13642E-03  6294   0.427E-01    0.304E-01
DAV:   9    -0.192033939435E+03   -0.10646E-03   -0.85070E-04  5643   0.311E-01    0.293E-01
DAV:  10    -0.192033752291E+03    0.18714E-03   -0.49550E-04  3780   0.250E-01    0.115E-01
DAV:  11    -0.192033801125E+03   -0.48833E-04   -0.10149E-04  3456   0.109E-01
   9 F= -.19203380E+03 E0= -.19202967E+03  d E =0.100999E-01  mag=    25.2249
quench:  g(F)=  0.000E+00 g(S)=  0.000E+00 dE (1.order)= 0.000E+00
 bond charge predicted
       N       E                     dE             d eps       ncg     rms          rms(c)
DAV:   1    -0.192008933665E+03    0.24819E-01   -0.52606E+00  5994   0.406E+00    0.616E-01
DAV:   2    -0.192040723286E+03   -0.31790E-01   -0.18096E-01  8199   0.184E+00    0.282E+00
DAV:   3    -0.192035152995E+03    0.55703E-02   -0.12130E-01  6903   0.260E+00    0.269E+00
DAV:   4    -0.192026095076E+03    0.90579E-02   -0.48361E-02  6609   0.217E+00    0.134E+00
DAV:   5    -0.192023366256E+03    0.27288E-02   -0.15840E-02  6858   0.137E+00    0.991E-01
DAV:   6    -0.192022993385E+03    0.37287E-03   -0.50283E-03  7083   0.825E-01    0.830E-01
DAV:   7    -0.192022330662E+03    0.66272E-03   -0.63361E-03  6837   0.727E-01    0.597E-01
DAV:   8    -0.192022201805E+03    0.12886E-03   -0.21660E-03  6804   0.543E-01    0.530E-01
DAV:   9    -0.192022155037E+03    0.46768E-04   -0.17110E-03  6411   0.446E-01    0.409E-01
DAV:  10    -0.192021720056E+03    0.43498E-03   -0.90310E-04  6291   0.357E-01    0.947E-02
DAV:  11    -0.192021866250E+03   -0.14619E-03   -0.22590E-04  3477   0.167E-01    0.169E-01
DAV:  12    -0.192021878439E+03   -0.12189E-04   -0.14957E-04  3528   0.130E-01
  10 F= -.19202188E+03 E0= -.19201749E+03  d E =0.119227E-01  mag=    25.2001
quench:  g(F)=  0.000E+00 g(S)=  0.000E+00 dE (1.order)= 0.000E+00
 bond charge predicted
       N       E                     dE             d eps       ncg     rms          rms(c)
DAV:   1    -0.191996112156E+03    0.25754E-01   -0.56031E+00  6030   0.402E+00    0.768E-01
DAV:   2    -0.192016997085E+03   -0.20885E-01   -0.23771E-01  7146   0.128E+00    0.112E+00
DAV:   3    -0.192050078243E+03   -0.33081E-01   -0.93751E-02  6741   0.274E+00    0.409E+00
DAV:   4    -0.192036713393E+03    0.13365E-01   -0.15050E-01  6873   0.297E+00    0.323E+00
DAV:   5    -0.192014170699E+03    0.22543E-01   -0.62561E-02  7176   0.217E+00    0.108E+00
DAV:   6    -0.192015299093E+03   -0.11284E-02   -0.75922E-03  7236   0.108E+00    0.943E-01
DAV:   7    -0.192014813547E+03    0.48555E-03   -0.83040E-03  6759   0.956E-01    0.824E-01
DAV:   8    -0.192013326312E+03    0.14872E-02   -0.44605E-03  6732   0.841E-01    0.510E-01
DAV:   9    -0.192013754254E+03   -0.42794E-03   -0.28085E-03  6690   0.588E-01    0.569E-01
DAV:  10    -0.192012972499E+03    0.78176E-03   -0.17509E-03  6456   0.477E-01    0.235E-01
DAV:  11    -0.192013045504E+03   -0.73005E-04   -0.37001E-04  3753   0.217E-01
  11 F= -.19201305E+03 E0= -.19200852E+03  d E =0.883294E-02  mag=    25.1720
quench:  g(F)=  0.000E+00 g(S)=  0.000E+00 dE (1.order)= 0.000E+00
 bond charge predicted
       N       E                     dE             d eps       ncg     rms          rms(c)
DAV:   1    -0.192019993486E+03   -0.70210E-02   -0.24585E+00  6135   0.240E+00    0.559E-01
DAV:   2    -0.192044603103E+03   -0.24610E-01   -0.13765E-01  8238   0.158E+00    0.271E+00
DAV:   3    -0.192033015362E+03    0.11588E-01   -0.85935E-02  7716   0.213E+00    0.184E+00
DAV:   4    -0.192030816124E+03    0.21992E-02   -0.24750E-02  6744   0.160E+00    0.134E+00
DAV:   5    -0.192026745656E+03    0.40705E-02   -0.10882E-02  7083   0.113E+00    0.639E-01
DAV:   6    -0.192028175915E+03   -0.14303E-02   -0.55748E-03  7110   0.902E-01    0.858E-01
DAV:   7    -0.192027053844E+03    0.11221E-02   -0.65275E-03  6663   0.837E-01    0.718E-01
DAV:   8    -0.192026756807E+03    0.29704E-03   -0.25858E-03  6831   0.601E-01    0.630E-01
DAV:   9    -0.192026011853E+03    0.74495E-03   -0.19337E-03  6330   0.439E-01    0.268E-01
DAV:  10    -0.192025930193E+03    0.81660E-04   -0.54762E-04  5055   0.273E-01
  12 F= -.19202593E+03 E0= -.19202128E+03  d E =-.128847E-01  mag=    25.1526
quench:  g(F)=  0.000E+00 g(S)=  0.000E+00 dE (1.order)= 0.000E+00
 bond charge predicted
       N       E                     dE             d eps       ncg     rms          rms(c)
DAV:   1    -0.192029880939E+03   -0.38691E-02   -0.95799E-01  6036   0.172E+00    0.351E-01
DAV:   2    -0.192043878736E+03   -0.13998E-01   -0.54209E-02  8559   0.143E+00    0.210E+00
DAV:   3    -0.192041395721E+03    0.24830E-02   -0.58338E-02  7137   0.189E+00    0.211E+00
DAV:   4    -0.192033275943E+03    0.81198E-02   -0.24375E-02  6576   0.129E+00    0.670E-01
DAV:   5    -0.192033813212E+03   -0.53727E-03   -0.56678E-03  7179   0.701E-01    0.655E-01
DAV:   6    -0.192033003845E+03    0.80937E-03   -0.18752E-03  6885   0.515E-01    0.404E-01
DAV:   7    -0.192033305297E+03   -0.30145E-03   -0.18488E-03  6084   0.466E-01    0.454E-01
DAV:   8    -0.192032955898E+03    0.34940E-03   -0.11994E-03  6126   0.391E-01    0.289E-01
DAV:   9    -0.192032991472E+03   -0.35575E-04   -0.54983E-04  4824   0.273E-01
  13 F= -.19203299E+03 E0= -.19202827E+03  d E =-.706128E-02  mag=    25.1350
quench:  g(F)=  0.000E+00 g(S)=  0.000E+00 dE (1.order)= 0.000E+00
 bond charge predicted
       N       E                     dE             d eps       ncg     rms          rms(c)
DAV:   1    -0.192039922086E+03   -0.69662E-02   -0.23784E+00  5976   0.278E+00    0.472E-01
DAV:   2    -0.192059309787E+03   -0.19388E-01   -0.94268E-02  8295   0.135E+00    0.232E+00
DAV:   3    -0.192052550610E+03    0.67592E-02   -0.77504E-02  7125   0.206E+00    0.199E+00
DAV:   4    -0.192048067229E+03    0.44834E-02   -0.18145E-02  6717   0.134E+00    0.112E+00
DAV:   5    -0.192046608888E+03    0.14583E-02   -0.86993E-03  7053   0.102E+00    0.854E-01
DAV:   6    -0.192046277057E+03    0.33183E-03   -0.41652E-03  6738   0.660E-01    0.681E-01
DAV:   7    -0.192045189824E+03    0.10872E-02   -0.23861E-03  6456   0.533E-01    0.242E-01
DAV:   8    -0.192045459569E+03   -0.26974E-03   -0.82628E-04  5931   0.315E-01    0.308E-01
DAV:   9    -0.192045398782E+03    0.60787E-04   -0.64760E-04  5358   0.266E-01
  14 F= -.19204540E+03 E0= -.19204053E+03  d E =-.124073E-01  mag=    25.1130
quench:  g(F)=  0.000E+00 g(S)=  0.000E+00 dE (1.order)= 0.000E+00
 bond charge predicted
       N       E                     dE             d eps       ncg     rms          rms(c)
DAV:   1    -0.192057473743E+03   -0.12014E-01   -0.46446E+00  5988   0.386E+00    0.701E-01
DAV:   2    -0.192076507134E+03   -0.19033E-01   -0.17140E-01  7599   0.139E+00    0.139E+00
DAV:   3    -0.192078034407E+03   -0.15273E-02   -0.45129E-02  6585   0.227E+00    0.178E+00
DAV:   4    -0.192074095821E+03    0.39386E-02   -0.25952E-02  6711   0.166E+00    0.154E+00
DAV:   5    -0.192083074821E+03   -0.89790E-02   -0.56977E-02  7410   0.180E+00    0.245E+00
DAV:   6    -0.192070961928E+03    0.12113E-01   -0.19124E-02  6978   0.118E+00    0.925E-01
DAV:   7    -0.192069758828E+03    0.12031E-02   -0.46229E-03  6972   0.698E-01    0.433E-01
DAV:   8    -0.192070665984E+03   -0.90716E-03   -0.25453E-03  6864   0.598E-01    0.604E-01
DAV:   9    -0.192069930587E+03    0.73540E-03   -0.23071E-03  6528   0.514E-01    0.288E-01
DAV:  10    -0.192069880781E+03    0.49806E-04   -0.80643E-04  6315   0.341E-01
  15 F= -.19206988E+03 E0= -.19206502E+03  d E =-.244820E-01  mag=    25.0809
quench:  g(F)=  0.000E+00 g(S)=  0.000E+00 dE (1.order)= 0.000E+00
 bond charge predicted
       N       E                     dE             d eps       ncg     rms          rms(c)
DAV:   1    -0.192076527820E+03   -0.65972E-02   -0.58066E+00  6018   0.419E+00    0.890E-01
DAV:   2    -0.192141761851E+03   -0.65234E-01   -0.31533E-01  8460   0.265E+00    0.412E+00
DAV:   3    -0.192138386103E+03    0.33757E-02   -0.29787E-01  7425   0.414E+00    0.477E+00
DAV:   4    -0.192104357420E+03    0.34029E-01   -0.13764E-01  6822   0.341E+00    0.240E+00
DAV:   5    -0.192094919987E+03    0.94374E-02   -0.42062E-02  7296   0.202E+00    0.136E+00
DAV:   6    -0.192095399287E+03   -0.47930E-03   -0.13329E-02  7383   0.131E+00    0.128E+00
DAV:   7    -0.192091422304E+03    0.39770E-02   -0.11910E-02  7002   0.106E+00    0.599E-01
DAV:   8    -0.192093172163E+03   -0.17499E-02   -0.48653E-03  6930   0.797E-01    0.950E-01
DAV:   9    -0.192091167034E+03    0.20051E-02   -0.43537E-03  6618   0.738E-01    0.402E-01
DAV:  10    -0.192090895501E+03    0.27153E-03   -0.11282E-03  6801   0.405E-01    0.135E-01
DAV:  11    -0.192091221485E+03   -0.32598E-03   -0.33350E-04  4023   0.196E-01    0.196E-01
DAV:  12    -0.192091203851E+03    0.17634E-04   -0.26760E-04  3699   0.178E-01
  16 F= -.19209120E+03 E0= -.19208619E+03  d E =-.213231E-01  mag=    25.0421
quench:  g(F)=  0.000E+00 g(S)=  0.000E+00 dE (1.order)= 0.000E+00
 bond charge predicted
       N       E                     dE             d eps       ncg     rms          rms(c)
DAV:   1    -0.192109288331E+03   -0.18067E-01   -0.21279E+00  6150   0.228E+00    0.552E-01
DAV:   2    -0.192125190576E+03   -0.15902E-01   -0.11996E-01  8073   0.132E+00    0.188E+00
DAV:   3    -0.192138174830E+03   -0.12984E-01   -0.93172E-02  6933   0.233E+00    0.315E+00
DAV:   4    -0.192121424184E+03    0.16751E-01   -0.54959E-02  6792   0.200E+00    0.149E+00
DAV:   5    -0.192117145669E+03    0.42785E-02   -0.11563E-02  7887   0.111E+00    0.609E-01
DAV:   6    -0.192117882165E+03   -0.73650E-03   -0.39745E-03  7269   0.755E-01    0.696E-01
DAV:   7    -0.192117412970E+03    0.46919E-03   -0.40554E-03  6576   0.655E-01    0.544E-01
DAV:   8    -0.192117050623E+03    0.36235E-03   -0.17400E-03  6567   0.511E-01    0.353E-01
DAV:   9    -0.192117297996E+03   -0.24737E-03   -0.15278E-03  5949   0.389E-01    0.350E-01
DAV:  10    -0.192117144628E+03    0.15337E-03   -0.57240E-04  4893   0.293E-01    0.201E-01
DAV:  11    -0.192117190984E+03   -0.46356E-04   -0.17594E-04  3543   0.135E-01
  17 F= -.19211719E+03 E0= -.19211219E+03  d E =-.259871E-01  mag=    25.0120
quench:  g(F)=  0.000E+00 g(S)=  0.000E+00 dE (1.order)= 0.000E+00
 bond charge predicted
       N       E                     dE             d eps       ncg     rms          rms(c)
DAV:   1    -0.192132613277E+03   -0.15469E-01   -0.16687E+00  6000   0.229E+00    0.467E-01
DAV:   2    -0.192152505125E+03   -0.19892E-01   -0.87532E-02  8640   0.138E+00    0.229E+00
DAV:   3    -0.192146760972E+03    0.57442E-02   -0.80409E-02  7362   0.211E+00    0.219E+00
DAV:   4    -0.192140101698E+03    0.66593E-02   -0.25795E-02  6747   0.156E+00    0.110E+00
DAV:   5    -0.192138831763E+03    0.12699E-02   -0.10813E-02  6855   0.107E+00    0.846E-01
DAV:   6    -0.192138400247E+03    0.43152E-03   -0.45156E-03  7206   0.735E-01    0.687E-01
DAV:   7    -0.192137306212E+03    0.10940E-02   -0.27639E-03  6780   0.555E-01    0.313E-01
DAV:   8    -0.192137398895E+03   -0.92682E-04   -0.89246E-04  6258   0.344E-01
  18 F= -.19213740E+03 E0= -.19213236E+03  d E =-.202079E-01  mag=    24.9938
quench:  g(F)=  0.000E+00 g(S)=  0.000E+00 dE (1.order)= 0.000E+00
 bond charge predicted
       N       E                     dE             d eps       ncg     rms          rms(c)
DAV:   1    -0.192156077369E+03   -0.18771E-01   -0.33885E+00  5976   0.327E+00    0.684E-01
DAV:   2    -0.192184055793E+03   -0.27978E-01   -0.15354E-01  8529   0.220E+00    0.236E+00
DAV:   3    -0.192169041673E+03    0.15014E-01   -0.53369E-02  6570   0.259E+00    0.126E+00
DAV:   4    -0.192188815513E+03   -0.19774E-01   -0.60488E-02  6918   0.205E+00    0.327E+00
DAV:   5    -0.192174844835E+03    0.13971E-01   -0.10564E-01  6918   0.244E+00    0.210E+00
DAV:   6    -0.192167297203E+03    0.75476E-02   -0.11995E-02  6981   0.111E+00    0.888E-01
DAV:   7    -0.192166605039E+03    0.69216E-03   -0.52671E-03  7056   0.749E-01    0.669E-01
DAV:   8    -0.192166029311E+03    0.57573E-03   -0.32690E-03  7128   0.637E-01    0.374E-01
DAV:   9    -0.192166480277E+03   -0.45097E-03   -0.20667E-03  6597   0.465E-01    0.484E-01
DAV:  10    -0.192165961557E+03    0.51872E-03   -0.14507E-03  6681   0.441E-01    0.170E-01
DAV:  11    -0.192166221426E+03   -0.25987E-03   -0.51811E-04  4476   0.270E-01    0.277E-01
DAV:  12    -0.192166088214E+03    0.13321E-03   -0.31888E-04  3561   0.216E-01    0.752E-02
DAV:  13    -0.192166163872E+03   -0.75657E-04   -0.73407E-05  3531   0.930E-02
  19 F= -.19216616E+03 E0= -.19216110E+03  d E =-.287650E-01  mag=    24.9596
quench:  g(F)=  0.000E+00 g(S)=  0.000E+00 dE (1.order)= 0.000E+00
 bond charge predicted
       N       E                     dE             d eps       ncg     rms          rms(c)
DAV:   1    -0.192178692437E+03   -0.12604E-01   -0.56857E+00  6006   0.417E+00    0.861E-01
DAV:   2    -0.192224831022E+03   -0.46139E-01   -0.26535E-01  8337   0.198E+00    0.295E+00
DAV:   3    -0.192255885362E+03   -0.31054E-01   -0.27677E-01  7341   0.399E+00    0.548E+00
DAV:   4    -0.192201681293E+03    0.54204E-01   -0.12982E-01  6849   0.316E+00    0.197E+00
DAV:   5    -0.192198483303E+03    0.31980E-02   -0.34037E-02  6957   0.191E+00    0.139E+00
DAV:   6    -0.192198509814E+03   -0.26511E-04   -0.15689E-02  7335   0.136E+00    0.127E+00
DAV:   7    -0.192194431958E+03    0.40779E-02   -0.85100E-03  6831   0.106E+00    0.555E-01
DAV:   8    -0.192195000254E+03   -0.56830E-03   -0.35426E-03  6861   0.696E-01    0.605E-01
DAV:   9    -0.192194511294E+03    0.48896E-03   -0.25378E-03  6657   0.565E-01    0.449E-01
DAV:  10    -0.192194032533E+03    0.47876E-03   -0.12569E-03  6696   0.438E-01    0.164E-01
DAV:  11    -0.192194245668E+03   -0.21313E-03   -0.58327E-04  4605   0.253E-01    0.268E-01
DAV:  12    -0.192194103882E+03    0.14179E-03   -0.35757E-04  3390   0.212E-01    0.544E-02
DAV:  13    -0.192194213433E+03   -0.10955E-03   -0.81608E-05  3450   0.940E-02    0.900E-02
DAV:  14    -0.192194439722E+03   -0.22629E-03   -0.73626E-05  3570   0.829E-02    0.607E-02
DAV:  15    -0.192194523442E+03   -0.83721E-04   -0.38952E-05  3453   0.646E-02
  20 F= -.19219452E+03 E0= -.19218951E+03  d E =-.283596E-01  mag=    24.9241
quench:  g(F)=  0.000E+00 g(S)=  0.000E+00 dE (1.order)= 0.000E+00
 bond charge predicted
       N       E                     dE             d eps       ncg     rms          rms(c)
DAV:   1    -0.192203521614E+03   -0.90819E-02   -0.39835E+00  6051   0.325E+00    0.713E-01
DAV:   2    -0.192228561189E+03   -0.25040E-01   -0.20671E-01  8139   0.158E+00    0.228E+00
DAV:   3    -0.192245330572E+03   -0.16769E-01   -0.12882E-01  7143   0.273E+00    0.353E+00
DAV:   4    -0.192226926770E+03    0.18404E-01   -0.10508E-01  6615   0.276E+00    0.197E+00
DAV:   5    -0.192217496125E+03    0.94306E-02   -0.14792E-02  7434   0.147E+00    0.788E-01
DAV:   6    -0.192218149069E+03   -0.65294E-03   -0.67655E-03  7392   0.990E-01    0.819E-01
DAV:   7    -0.192218419957E+03   -0.27089E-03   -0.75612E-03  6873   0.869E-01    0.833E-01
DAV:   8    -0.192217075245E+03    0.13447E-02   -0.38619E-03  6867   0.738E-01    0.484E-01
DAV:   9    -0.192216949366E+03    0.12588E-03   -0.26141E-03  6504   0.473E-01    0.360E-01
DAV:  10    -0.192216837178E+03    0.11219E-03   -0.91558E-04  6354   0.368E-01    0.278E-01
DAV:  11    -0.192216763647E+03    0.73531E-04   -0.50095E-04  3741   0.222E-01
  21 F= -.19221676E+03 E0= -.19221182E+03  d E =-.222402E-01  mag=    24.9011
quench:  g(F)=  0.000E+00 g(S)=  0.000E+00 dE (1.order)= 0.000E+00
 bond charge predicted
       N       E                     dE             d eps       ncg     rms          rms(c)
DAV:   1    -0.192229991417E+03   -0.13154E-01   -0.20794E+00  6036   0.238E+00    0.536E-01
DAV:   2    -0.192251384213E+03   -0.21393E-01   -0.11265E-01  8283   0.137E+00    0.225E+00
DAV:   3    -0.192248015780E+03    0.33684E-02   -0.92353E-02  7644   0.223E+00    0.244E+00
DAV:   4    -0.192238921541E+03    0.90942E-02   -0.27753E-02  6759   0.162E+00    0.111E+00
DAV:   5    -0.192237184185E+03    0.17374E-02   -0.10167E-02  7431   0.112E+00    0.734E-01
DAV:   6    -0.192237442966E+03   -0.25878E-03   -0.56881E-03  7224   0.845E-01    0.761E-01
DAV:   7    -0.192236172161E+03    0.12708E-02   -0.38817E-03  6915   0.699E-01    0.422E-01
DAV:   8    -0.192236666391E+03   -0.49423E-03   -0.24406E-03  6894   0.535E-01    0.565E-01
DAV:   9    -0.192235807405E+03    0.85899E-03   -0.15737E-03  6540   0.437E-01    0.188E-01
DAV:  10    -0.192235839000E+03   -0.31594E-04   -0.44196E-04  4533   0.241E-01
  22 F= -.19223584E+03 E0= -.19223086E+03  d E =-.190754E-01  mag=    24.8886
quench:  g(F)=  0.000E+00 g(S)=  0.000E+00 dE (1.order)= 0.000E+00
 bond charge predicted
       N       E                     dE             d eps       ncg     rms          rms(c)
DAV:   1    -0.192247203469E+03   -0.11396E-01   -0.25336E+00  5976   0.280E+00    0.534E-01
DAV:   2    -0.192262464334E+03   -0.15261E-01   -0.10532E-01  8355   0.139E+00    0.158E+00
DAV:   3    -0.192265976541E+03   -0.35122E-02   -0.48015E-02  6675   0.209E+00    0.230E+00
DAV:   4    -0.192265102978E+03    0.87356E-03   -0.64353E-02  6534   0.198E+00    0.217E+00
DAV:   5    -0.192257335969E+03    0.77670E-02   -0.39216E-02  7299   0.155E+00    0.108E+00
DAV:   6    -0.192255712628E+03    0.16233E-02   -0.41937E-03  7272   0.774E-01    0.631E-01
DAV:   7    -0.192255167837E+03    0.54479E-03   -0.36716E-03  6948   0.541E-01    0.386E-01
DAV:   8    -0.192255740815E+03   -0.57298E-03   -0.21068E-03  7029   0.495E-01    0.523E-01
DAV:   9    -0.192255167945E+03    0.57287E-03   -0.16622E-03  6444   0.398E-01    0.237E-01
DAV:  10    -0.192255177775E+03   -0.98308E-05   -0.55458E-04  5517   0.283E-01
  23 F= -.19225518E+03 E0= -.19225026E+03  d E =-.193388E-01  mag=    24.8736
quench:  g(F)=  0.000E+00 g(S)=  0.000E+00 dE (1.order)= 0.000E+00
 bond charge predicted
       N       E                     dE             d eps       ncg     rms          rms(c)
DAV:   1    -0.192261516244E+03   -0.63483E-02   -0.54757E+00  5976   0.416E+00    0.803E-01
DAV:   2    -0.192316810374E+03   -0.55294E-01   -0.25742E-01  8511   0.236E+00    0.366E+00
DAV:   3    -0.192310581548E+03    0.62288E-02   -0.23218E-01  7263   0.366E+00    0.415E+00
DAV:   4    -0.192285165404E+03    0.25416E-01   -0.99670E-02  6750   0.289E+00    0.196E+00
DAV:   5    -0.192281052012E+03    0.41134E-02   -0.35137E-02  6948   0.181E+00    0.131E+00
DAV:   6    -0.192280442899E+03    0.60911E-03   -0.13245E-02  7197   0.126E+00    0.115E+00
DAV:   7    -0.192277064450E+03    0.33784E-02   -0.88698E-03  6762   0.930E-01    0.446E-01
DAV:   8    -0.192277887516E+03   -0.82307E-03   -0.31279E-03  7056   0.583E-01    0.560E-01
DAV:   9    -0.192277525872E+03    0.36164E-03   -0.23685E-03  6594   0.505E-01    0.365E-01
DAV:  10    -0.192277235477E+03    0.29040E-03   -0.10981E-03  6762   0.389E-01    0.159E-01
DAV:  11    -0.192277358663E+03   -0.12319E-03   -0.42908E-04  3984   0.229E-01    0.251E-01
DAV:  12    -0.192277180379E+03    0.17828E-03   -0.26753E-04  3555   0.190E-01    0.390E-02
DAV:  13    -0.192277239144E+03   -0.58765E-04   -0.68824E-05  3459   0.875E-02
  24 F= -.19227724E+03 E0= -.19227239E+03  d E =-.220614E-01  mag=    24.8591
quench:  g(F)=  0.000E+00 g(S)=  0.000E+00 dE (1.order)= 0.000E+00
 bond charge predicted
       N       E                     dE             d eps       ncg     rms          rms(c)
DAV:   1    -0.192270764594E+03    0.64158E-02   -0.65608E+00  5994   0.438E+00    0.827E-01
DAV:   2    -0.192298447974E+03   -0.27683E-01   -0.27961E-01  8076   0.155E+00    0.175E+00
DAV:   3    -0.192355509905E+03   -0.57062E-01   -0.19004E-01  6909   0.342E+00    0.533E+00
DAV:   4    -0.192305166530E+03    0.50343E-01   -0.21431E-01  6576   0.367E+00    0.242E+00
DAV:   5    -0.192292076590E+03    0.13090E-01   -0.21736E-02  7272   0.178E+00    0.840E-01
DAV:   6    -0.192292931394E+03   -0.85480E-03   -0.81329E-03  7698   0.106E+00    0.884E-01
DAV:   7    -0.192293588597E+03   -0.65720E-03   -0.85128E-03  6843   0.917E-01    0.865E-01
DAV:   8    -0.192292362837E+03    0.12258E-02   -0.46669E-03  6930   0.821E-01    0.559E-01
DAV:   9    -0.192292167272E+03    0.19556E-03   -0.36363E-03  6789   0.580E-01    0.462E-01
DAV:  10    -0.192291958983E+03    0.20829E-03   -0.14897E-03  6876   0.465E-01    0.359E-01
DAV:  11    -0.192291711949E+03    0.24703E-03   -0.77593E-04  4770   0.273E-01    0.220E-01
DAV:  12    -0.192291633889E+03    0.78060E-04   -0.24484E-04  3798   0.181E-01
  25 F= -.19229163E+03 E0= -.19228684E+03  d E =-.143947E-01  mag=    24.8430
quench:  g(F)=  0.000E+00 g(S)=  0.000E+00 dE (1.order)= 0.000E+00
 bond charge predicted
       N       E                     dE             d eps       ncg     rms          rms(c)
DAV:   1    -0.192296262790E+03   -0.45508E-02   -0.42657E+00  6075   0.334E+00    0.747E-01
DAV:   2    -0.192334919271E+03   -0.38656E-01   -0.21717E-01  8031   0.187E+00    0.302E+00
DAV:   3    -0.192326977890E+03    0.79414E-02   -0.15715E-01  7578   0.291E+00    0.310E+00
DAV:   4    -0.192314759016E+03    0.12219E-01   -0.54380E-02  6801   0.216E+00    0.163E+00
DAV:   5    -0.192310095910E+03    0.46631E-02   -0.22156E-02  7557   0.158E+00    0.954E-01
DAV:   6    -0.192311505653E+03   -0.14097E-02   -0.12936E-02  7209   0.125E+00    0.115E+00
DAV:   7    -0.192308782621E+03    0.27230E-02   -0.83093E-03  7020   0.105E+00    0.704E-01
DAV:   8    -0.192309323480E+03   -0.54086E-03   -0.46757E-03  6846   0.801E-01    0.804E-01
DAV:   9    -0.192307499187E+03    0.18243E-02   -0.35018E-03  6810   0.642E-01    0.288E-01
DAV:  10    -0.192307536432E+03   -0.37245E-04   -0.10351E-03  6861   0.353E-01    0.209E-01
DAV:  11    -0.192307554160E+03   -0.17727E-04   -0.45900E-04  4350   0.224E-01
  26 F= -.19230755E+03 E0= -.19230279E+03  d E =-.159203E-01  mag=    24.8408
quench:  g(F)=  0.000E+00 g(S)=  0.000E+00 dE (1.order)= 0.000E+00
 bond charge predicted
       N       E                     dE             d eps       ncg     rms          rms(c)
DAV:   1    -0.192312804749E+03   -0.52683E-02   -0.21566E+00  6021   0.250E+00    0.469E-01
DAV:   2    -0.192320559865E+03   -0.77551E-02   -0.93012E-02  6996   0.697E-01    0.558E-01
DAV:   3    -0.192335287733E+03   -0.14728E-01   -0.36426E-02  6933   0.169E+00    0.259E+00
DAV:   4    -0.192326614653E+03    0.86731E-02   -0.63594E-02  6663   0.192E+00    0.175E+00
DAV:   5    -0.192319560922E+03    0.70537E-02   -0.13728E-02  7215   0.115E+00    0.342E-01
DAV:   6    -0.192321026053E+03   -0.14651E-02   -0.33237E-03  7773   0.650E-01    0.679E-01
DAV:   7    -0.192320141842E+03    0.88421E-03   -0.23208E-03  6498   0.562E-01    0.331E-01
DAV:   8    -0.192320032999E+03    0.10884E-03   -0.10069E-03  5811   0.386E-01    0.245E-01
DAV:   9    -0.192320140120E+03   -0.10712E-03   -0.71230E-04  5331   0.286E-01    0.265E-01
DAV:  10    -0.192319968984E+03    0.17114E-03   -0.39463E-04  3867   0.247E-01    0.116E-01
DAV:  11    -0.192319968876E+03    0.10800E-06   -0.14971E-04  3504   0.122E-01
  27 F= -.19231997E+03 E0= -.19231531E+03  d E =-.124147E-01  mag=    24.8337
quench:  g(F)=  0.000E+00 g(S)=  0.000E+00 dE (1.order)= 0.000E+00
 bond charge predicted
       N       E                     dE             d eps       ncg     rms          rms(c)
DAV:   1    -0.192316852722E+03    0.31163E-02   -0.44103E+00  5976   0.376E+00    0.651E-01
DAV:   2    -0.192357638174E+03   -0.40785E-01   -0.19724E-01  8358   0.192E+00    0.323E+00
DAV:   3    -0.192337279170E+03    0.20359E-01   -0.12247E-01  7392   0.260E+00    0.218E+00
DAV:   4    -0.192335584513E+03    0.16947E-02   -0.29017E-02  6717   0.185E+00    0.136E+00
DAV:   5    -0.192332566121E+03    0.30184E-02   -0.15930E-02  7131   0.150E+00    0.996E-01
DAV:   6    -0.192331566640E+03    0.99948E-03   -0.70929E-03  6759   0.953E-01    0.786E-01
DAV:   7    -0.192330091455E+03    0.14752E-02   -0.42791E-03  6849   0.669E-01    0.343E-01
DAV:   8    -0.192330841672E+03   -0.75022E-03   -0.19965E-03  7017   0.482E-01    0.512E-01
DAV:   9    -0.192330426105E+03    0.41557E-03   -0.14582E-03  6423   0.411E-01    0.249E-01
DAV:  10    -0.192330378460E+03    0.47644E-04   -0.54137E-04  5067   0.284E-01
  28 F= -.19233038E+03 E0= -.19232584E+03  d E =-.104096E-01  mag=    24.8345
quench:  g(F)=  0.000E+00 g(S)=  0.000E+00 dE (1.order)= 0.000E+00
 bond charge predicted
       N       E                     dE             d eps       ncg     rms          rms(c)
DAV:   1    -0.192311540723E+03    0.18885E-01   -0.79331E+00  5976   0.501E+00    0.830E-01
DAV:   2    -0.192343796899E+03   -0.32256E-01   -0.29923E-01  7914   0.182E+00    0.185E+00
DAV:   3    -0.192345844685E+03   -0.20478E-02   -0.57882E-02  6786   0.262E+00    0.214E+00
DAV:   4    -0.192413678561E+03   -0.67834E-01   -0.18265E-01  6930   0.342E+00    0.593E+00
DAV:   5    -0.192333109238E+03    0.80569E-01   -0.13792E-01  7098   0.293E+00    0.110E+00
DAV:   6    -0.192335903114E+03   -0.27939E-02   -0.86130E-03  7683   0.115E+00    0.552E-01
DAV:   7    -0.192339135395E+03   -0.32323E-02   -0.62415E-03  6690   0.875E-01    0.100E+00
DAV:   8    -0.192336540882E+03    0.25945E-02   -0.51695E-03  6825   0.852E-01    0.303E-01
DAV:   9    -0.192337743528E+03   -0.12026E-02   -0.25536E-03  6597   0.564E-01    0.610E-01
DAV:  10    -0.192336775075E+03    0.96845E-03   -0.15719E-03  6504   0.498E-01    0.237E-01
DAV:  11    -0.192336697807E+03    0.77268E-04   -0.42604E-04  3654   0.212E-01
  29 F= -.19233670E+03 E0= -.19233220E+03  d E =-.631935E-02  mag=    24.8343
quench:  g(F)=  0.000E+00 g(S)=  0.000E+00 dE (1.order)= 0.000E+00
 bond charge predicted
       N       E                     dE             d eps       ncg     rms          rms(c)
DAV:   1    -0.192299472855E+03    0.37302E-01   -0.97242E+00  6018   0.534E+00    0.102E+00
DAV:   2    -0.192337521501E+03   -0.38049E-01   -0.40020E-01  6459   0.157E+00    0.143E+00
DAV:   3    -0.192448840095E+03   -0.11132E+00   -0.29310E-01  6831   0.440E+00    0.720E+00
DAV:   4    -0.192342846256E+03    0.10599E+00   -0.27484E-01  6834   0.417E+00    0.278E+00
DAV:   5    -0.192333646800E+03    0.91995E-02   -0.48626E-02  8259   0.233E+00    0.136E+00
DAV:   6    -0.192333348753E+03    0.29805E-03   -0.19829E-02  7086   0.154E+00    0.130E+00
DAV:   7    -0.192330665290E+03    0.26835E-02   -0.13333E-02  6891   0.121E+00    0.923E-01
DAV:   8    -0.192332083973E+03   -0.14187E-02   -0.80123E-03  7047   0.101E+00    0.114E+00
DAV:   9    -0.192328297278E+03    0.37867E-02   -0.64217E-03  6774   0.851E-01    0.318E-01
DAV:  10    -0.192328748083E+03   -0.45080E-03   -0.18567E-03  7152   0.461E-01    0.342E-01
DAV:  11    -0.192328726838E+03    0.21245E-04   -0.96179E-04  6195   0.339E-01
  30 F= -.19232873E+03 E0= -.19232444E+03  d E =0.797097E-02  mag=    24.8475
quench:  g(F)=  0.000E+00 g(S)=  0.000E+00 dE (1.order)= 0.000E+00
 bond charge predicted
       N       E                     dE             d eps       ncg     rms          rms(c)
DAV:   1    -0.192330341201E+03   -0.15931E-02   -0.39457E+00  6078   0.322E+00    0.692E-01
DAV:   2    -0.192400542980E+03   -0.70202E-01   -0.27667E-01  8853   0.263E+00    0.490E+00
DAV:   3    -0.192344055687E+03    0.56487E-01   -0.14626E-01  8346   0.284E+00    0.133E+00
DAV:   4    -0.192348750661E+03   -0.46950E-02   -0.21528E-02  6873   0.159E+00    0.147E+00
DAV:   5    -0.192344352981E+03    0.43977E-02   -0.18017E-02  7389   0.143E+00    0.764E-01
DAV:   6    -0.192346374213E+03   -0.20212E-02   -0.10594E-02  6969   0.113E+00    0.105E+00
DAV:   7    -0.192345082983E+03    0.12912E-02   -0.76908E-03  7011   0.104E+00    0.809E-01
DAV:   8    -0.192344579527E+03    0.50346E-03   -0.50001E-03  6585   0.812E-01    0.774E-01
DAV:   9    -0.192342959940E+03    0.16196E-02   -0.31403E-03  6723   0.625E-01    0.216E-01
DAV:  10    -0.192343338712E+03   -0.37877E-03   -0.11559E-03  6885   0.376E-01    0.327E-01
DAV:  11    -0.192343092782E+03    0.24593E-03   -0.66727E-04  5511   0.282E-01    0.162E-01
DAV:  12    -0.192343035763E+03    0.57019E-04   -0.16216E-04  3486   0.145E-01
  31 F= -.19234304E+03 E0= -.19233869E+03  d E =-.143089E-01  mag=    24.8517
quench:  g(F)=  0.000E+00 g(S)=  0.000E+00 dE (1.order)= 0.000E+00
 bond charge predicted
       N       E                     dE             d eps       ncg     rms          rms(c)
DAV:   1    -0.192325432215E+03    0.17661E-01   -0.41339E+00  5988   0.363E+00    0.598E-01
DAV:   2    -0.192347515874E+03   -0.22084E-01   -0.16104E-01  7821   0.140E+00    0.193E+00
DAV:   3    -0.192354820447E+03   -0.73046E-02   -0.90490E-02  6804   0.231E+00    0.286E+00
DAV:   4    -0.192344936172E+03    0.98843E-02   -0.56189E-02  6762   0.209E+00    0.164E+00
DAV:   5    -0.192339807323E+03    0.51288E-02   -0.15741E-02  7320   0.137E+00    0.773E-01
DAV:   6    -0.192338886375E+03    0.92095E-03   -0.47078E-03  7185   0.836E-01    0.479E-01
DAV:   7    -0.192339246547E+03   -0.36017E-03   -0.31166E-03  6687   0.554E-01    0.580E-01
DAV:   8    -0.192339006009E+03    0.24054E-03   -0.20120E-03  6978   0.529E-01    0.491E-01
DAV:   9    -0.192338490790E+03    0.51522E-03   -0.17648E-03  6264   0.381E-01    0.263E-01
DAV:  10    -0.192338453696E+03    0.37094E-04   -0.66283E-04  5508   0.280E-01
  32 F= -.19233845E+03 E0= -.19233426E+03  d E =0.458207E-02  mag=    24.8643
quench:  g(F)=  0.000E+00 g(S)=  0.000E+00 dE (1.order)= 0.000E+00
 bond charge predicted
       N       E                     dE             d eps       ncg     rms          rms(c)
DAV:   1    -0.192301509424E+03    0.36981E-01   -0.76848E+00  5976   0.493E+00    0.782E-01
DAV:   2    -0.192334872679E+03   -0.33363E-01   -0.28138E-01  8139   0.191E+00    0.190E+00
DAV:   3    -0.192338047133E+03   -0.31745E-02   -0.66798E-02  6645   0.262E+00    0.258E+00
DAV:   4    -0.192359269508E+03   -0.21222E-01   -0.14322E-01  6804   0.293E+00    0.393E+00
DAV:   5    -0.192327168119E+03    0.32101E-01   -0.96761E-02  6924   0.245E+00    0.138E+00
DAV:   6    -0.192325944551E+03    0.12236E-02   -0.11249E-02  7761   0.118E+00    0.765E-01
DAV:   7    -0.192327059401E+03   -0.11149E-02   -0.98116E-03  7257   0.871E-01    0.850E-01
DAV:   8    -0.192326545084E+03    0.51432E-03   -0.44714E-03  6861   0.794E-01    0.775E-01
DAV:   9    -0.192325215425E+03    0.13297E-02   -0.38069E-03  6813   0.599E-01    0.343E-01
DAV:  10    -0.192325332759E+03   -0.11733E-03   -0.14919E-03  7071   0.443E-01    0.285E-01
DAV:  11    -0.192325324183E+03    0.85761E-05   -0.77931E-04  6084   0.296E-01
  33 F= -.19232532E+03 E0= -.19232120E+03  d E =0.131295E-01  mag=    24.8780
quench:  g(F)=  0.000E+00 g(S)=  0.000E+00 dE (1.order)= 0.000E+00
 bond charge predicted
       N       E                     dE             d eps       ncg     rms          rms(c)
DAV:   1    -0.192265548926E+03    0.59784E-01   -0.10051E+01  6000   0.549E+00    0.987E-01
DAV:   2    -0.192310837493E+03   -0.45289E-01   -0.42015E-01  7089   0.187E+00    0.230E+00
DAV:   3    -0.192366862192E+03   -0.56025E-01   -0.25123E-01  6942   0.387E+00    0.567E+00
DAV:   4    -0.192315598608E+03    0.51264E-01   -0.18311E-01  6861   0.370E+00    0.273E+00
DAV:   5    -0.192298584069E+03    0.17015E-01   -0.36159E-02  7908   0.222E+00    0.942E-01
DAV:   6    -0.192300052905E+03   -0.14688E-02   -0.13899E-02  7653   0.137E+00    0.108E+00
DAV:   7    -0.192299083345E+03    0.96956E-03   -0.97934E-03  6885   0.102E+00    0.981E-01
DAV:   8    -0.192297665497E+03    0.14178E-02   -0.60172E-03  6975   0.871E-01    0.749E-01
DAV:   9    -0.192296563733E+03    0.11018E-02   -0.47902E-03  6846   0.627E-01    0.363E-01
DAV:  10    -0.192296889612E+03   -0.32588E-03   -0.19183E-03  7308   0.467E-01    0.385E-01
DAV:  11    -0.192296676000E+03    0.21361E-03   -0.10975E-03  6102   0.333E-01    0.207E-01
DAV:  12    -0.192296673759E+03    0.22409E-05   -0.27617E-04  3810   0.192E-01
  34 F= -.19229667E+03 E0= -.19229269E+03  d E =0.286504E-01  mag=    24.9062
quench:  g(F)=  0.000E+00 g(S)=  0.000E+00 dE (1.order)= 0.000E+00
 bond charge predicted
       N       E                     dE             d eps       ncg     rms          rms(c)
DAV:   1    -0.192284099308E+03    0.12577E-01   -0.47343E+00  6039   0.356E+00    0.758E-01
DAV:   2    -0.192368569825E+03   -0.84471E-01   -0.32518E-01  8787   0.293E+00    0.528E+00
DAV:   3    -0.192305278544E+03    0.63291E-01   -0.19578E-01  8127   0.326E+00    0.201E+00
DAV:   4    -0.192305093654E+03    0.18489E-03   -0.42859E-02  6705   0.207E+00    0.164E+00
DAV:   5    -0.192299920265E+03    0.51734E-02   -0.25367E-02  7536   0.153E+00    0.909E-01
DAV:   6    -0.192301978385E+03   -0.20581E-02   -0.13683E-02  7404   0.124E+00    0.116E+00
DAV:   7    -0.192300324550E+03    0.16538E-02   -0.10641E-02  7008   0.110E+00    0.849E-01
DAV:   8    -0.192300432517E+03   -0.10797E-03   -0.53231E-03  6831   0.901E-01    0.863E-01
DAV:   9    -0.192298332138E+03    0.21004E-02   -0.41968E-03  6804   0.684E-01    0.299E-01
DAV:  10    -0.192298511973E+03   -0.17984E-03   -0.12952E-03  6954   0.399E-01    0.263E-01
DAV:  11    -0.192298630930E+03   -0.11896E-03   -0.70460E-04  5760   0.295E-01    0.273E-01
DAV:  12    -0.192298440959E+03    0.18997E-03   -0.31578E-04  3600   0.221E-01    0.497E-02
DAV:  13    -0.192298527819E+03   -0.86860E-04   -0.94889E-05  3465   0.987E-02
  35 F= -.19229853E+03 E0= -.19229461E+03  d E =-.185406E-02  mag=    24.9244
quench:  g(F)=  0.000E+00 g(S)=  0.000E+00 dE (1.order)= 0.000E+00
 bond charge predicted
       N       E                     dE             d eps       ncg     rms          rms(c)
DAV:   1    -0.192271745995E+03    0.26695E-01   -0.36305E+00  6000   0.334E+00    0.572E-01
DAV:   2    -0.192294367157E+03   -0.22621E-01   -0.15596E-01  7929   0.146E+00    0.219E+00
DAV:   3    -0.192293272247E+03    0.10949E-02   -0.78233E-02  6753   0.210E+00    0.218E+00
DAV:   4    -0.192290841423E+03    0.24308E-02   -0.44474E-02  6786   0.195E+00    0.165E+00
DAV:   5    -0.192284010482E+03    0.68309E-02   -0.11328E-02  7488   0.126E+00    0.640E-01
DAV:   6    -0.192283867906E+03    0.14258E-03   -0.39330E-03  7539   0.746E-01    0.501E-01
DAV:   7    -0.192283977517E+03   -0.10961E-03   -0.25959E-03  6663   0.561E-01    0.541E-01
DAV:   8    -0.192283204510E+03    0.77301E-03   -0.17791E-03  7047   0.508E-01    0.196E-01
DAV:   9    -0.192283609392E+03   -0.40488E-03   -0.93771E-04  5682   0.349E-01    0.367E-01
DAV:  10    -0.192283288872E+03    0.32052E-03   -0.56919E-04  4905   0.298E-01    0.139E-01
DAV:  11    -0.192283335511E+03   -0.46639E-04   -0.13452E-04  3477   0.123E-01
  36 F= -.19228334E+03 E0= -.19227947E+03  d E =0.151923E-01  mag=    24.9474
quench:  g(F)=  0.000E+00 g(S)=  0.000E+00 dE (1.order)= 0.000E+00
 bond charge predicted
       N       E                     dE             d eps       ncg     rms          rms(c)
DAV:   1    -0.192241741961E+03    0.41547E-01   -0.57568E+00  5982   0.423E+00    0.676E-01
DAV:   2    -0.192270576896E+03   -0.28835E-01   -0.22452E-01  7992   0.158E+00    0.186E+00
DAV:   3    -0.192298811853E+03   -0.28235E-01   -0.15049E-01  7017   0.294E+00    0.432E+00
DAV:   4    -0.192262889682E+03    0.35922E-01   -0.11746E-01  6786   0.273E+00    0.155E+00
DAV:   5    -0.192261433133E+03    0.14565E-02   -0.23589E-02  7077   0.153E+00    0.105E+00
DAV:   6    -0.192261079089E+03    0.35404E-03   -0.89892E-03  7740   0.103E+00    0.919E-01
DAV:   7    -0.192259814612E+03    0.12645E-02   -0.67489E-03  6975   0.854E-01    0.597E-01
DAV:   8    -0.192260775867E+03   -0.96126E-03   -0.40892E-03  6852   0.717E-01    0.780E-01
DAV:   9    -0.192259240118E+03    0.15357E-02   -0.31188E-03  6702   0.609E-01    0.270E-01
DAV:  10    -0.192259332139E+03   -0.92020E-04   -0.97934E-04  6690   0.358E-01
  37 F= -.19225933E+03 E0= -.19225566E+03  d E =0.240034E-01  mag=    24.9684
quench:  g(F)=  0.000E+00 g(S)=  0.000E+00 dE (1.order)= 0.000E+00
 bond charge predicted
       N       E                     dE             d eps       ncg     rms          rms(c)
DAV:   1    -0.192203671066E+03    0.55569E-01   -0.74848E+00  6000   0.476E+00    0.868E-01
DAV:   2    -0.192241793429E+03   -0.38122E-01   -0.32110E-01  7830   0.211E+00    0.224E+00
DAV:   3    -0.192235967706E+03    0.58257E-02   -0.60616E-02  6609   0.272E+00    0.178E+00
DAV:   4    -0.192314100670E+03   -0.78133E-01   -0.20666E-01  7260   0.342E+00    0.613E+00
DAV:   5    -0.192225209589E+03    0.88891E-01   -0.15673E-01  7509   0.303E+00    0.112E+00
DAV:   6    -0.192228817862E+03   -0.36083E-02   -0.10725E-02  8271   0.124E+00    0.800E-01
DAV:   7    -0.192229405536E+03   -0.58767E-03   -0.78107E-03  6720   0.899E-01    0.878E-01
DAV:   8    -0.192227745376E+03    0.16602E-02   -0.50027E-03  6882   0.806E-01    0.436E-01
DAV:   9    -0.192228138549E+03   -0.39317E-03   -0.30281E-03  6660   0.558E-01    0.516E-01
DAV:  10    -0.192227669210E+03    0.46934E-03   -0.14176E-03  6759   0.458E-01    0.277E-01
DAV:  11    -0.192227698676E+03   -0.29466E-04   -0.57339E-04  4209   0.239E-01
  38 F= -.19222770E+03 E0= -.19222422E+03  d E =0.316335E-01  mag=    24.9997
quench:  g(F)=  0.000E+00 g(S)=  0.000E+00 dE (1.order)= 0.000E+00
 bond charge predicted
       N       E                     dE             d eps       ncg     rms          rms(c)
DAV:   1    -0.192204991070E+03    0.22678E-01   -0.43918E+00  6006   0.348E+00    0.694E-01
DAV:   2    -0.192241552807E+03   -0.36562E-01   -0.22778E-01  8175   0.181E+00    0.283E+00
DAV:   3    -0.192237804133E+03    0.37487E-02   -0.14263E-01  7800   0.274E+00    0.297E+00
DAV:   4    -0.192223453359E+03    0.14351E-01   -0.53823E-02  6606   0.209E+00    0.142E+00
DAV:   5    -0.192220348041E+03    0.31053E-02   -0.17783E-02  7422   0.142E+00    0.897E-01
DAV:   6    -0.192221701963E+03   -0.13539E-02   -0.11197E-02  7557   0.112E+00    0.106E+00
DAV:   7    -0.192220270664E+03    0.14313E-02   -0.75700E-03  6948   0.102E+00    0.790E-01
DAV:   8    -0.192220653177E+03   -0.38251E-03   -0.45866E-03  6765   0.834E-01    0.860E-01
DAV:   9    -0.192218707731E+03    0.19454E-02   -0.37341E-03  6735   0.648E-01    0.254E-01
DAV:  10    -0.192218912185E+03   -0.20445E-03   -0.10679E-03  6696   0.354E-01    0.237E-01
DAV:  11    -0.192219027586E+03   -0.11540E-03   -0.54936E-04  4602   0.243E-01    0.206E-01
DAV:  12    -0.192218962591E+03    0.64995E-04   -0.24644E-04  3543   0.173E-01
  39 F= -.19221896E+03 E0= -.19221548E+03  d E =0.873608E-02  mag=    25.0248
quench:  g(F)=  0.000E+00 g(S)=  0.000E+00 dE (1.order)= 0.000E+00
 bond charge predicted
       N       E                     dE             d eps       ncg     rms          rms(c)
DAV:   1    -0.192196469965E+03    0.22558E-01   -0.29420E+00  6000   0.294E+00    0.536E-01
DAV:   2    -0.192211532970E+03   -0.15063E-01   -0.12445E-01  7830   0.125E+00    0.153E+00
DAV:   3    -0.192221823894E+03   -0.10291E-01   -0.65671E-02  6810   0.204E+00    0.270E+00
DAV:   4    -0.192213945893E+03    0.78780E-02   -0.71610E-02  6711   0.212E+00    0.194E+00
DAV:   5    -0.192206428035E+03    0.75179E-02   -0.11816E-02  8178   0.110E+00    0.705E-01
DAV:   6    -0.192206074739E+03    0.35330E-03   -0.36251E-03  7347   0.740E-01    0.525E-01
DAV:   7    -0.192206682646E+03   -0.60791E-03   -0.40669E-03  6702   0.654E-01    0.663E-01
DAV:   8    -0.192205578994E+03    0.11037E-02   -0.23118E-03  7101   0.582E-01    0.294E-01
DAV:   9    -0.192205750548E+03   -0.17155E-03   -0.12743E-03  5934   0.366E-01    0.340E-01
DAV:  10    -0.192205592030E+03    0.15852E-03   -0.65504E-04  5160   0.298E-01    0.199E-01
DAV:  11    -0.192205645883E+03   -0.53853E-04   -0.25610E-04  3501   0.161E-01
  40 F= -.19220565E+03 E0= -.19220227E+03  d E =0.133167E-01  mag=    25.0495
quench:  g(F)=  0.000E+00 g(S)=  0.000E+00 dE (1.order)= 0.000E+00
 bond charge predicted
       N       E                     dE             d eps       ncg     rms          rms(c)
DAV:   1    -0.192174065731E+03    0.31526E-01   -0.38631E+00  5988   0.343E+00    0.552E-01
DAV:   2    -0.192199353219E+03   -0.25287E-01   -0.15613E-01  8124   0.152E+00    0.227E+00
DAV:   3    -0.192200278447E+03   -0.92523E-03   -0.10145E-01  7332   0.233E+00    0.272E+00
DAV:   4    -0.192187609359E+03    0.12669E-01   -0.47225E-02  6663   0.189E+00    0.116E+00
DAV:   5    -0.192186132965E+03    0.14764E-02   -0.12993E-02  6933   0.119E+00    0.827E-01
DAV:   6    -0.192186362068E+03   -0.22910E-03   -0.64297E-03  7314   0.847E-01    0.789E-01
DAV:   7    -0.192185352814E+03    0.10093E-02   -0.45812E-03  6909   0.715E-01    0.489E-01
DAV:   8    -0.192185863175E+03   -0.51036E-03   -0.23316E-03  6807   0.566E-01    0.589E-01
DAV:   9    -0.192185109340E+03    0.75383E-03   -0.19422E-03  6486   0.471E-01    0.244E-01
DAV:  10    -0.192185109337E+03    0.27794E-08   -0.60791E-04  5931   0.292E-01
  41 F= -.19218511E+03 E0= -.19218190E+03  d E =0.205365E-01  mag=    25.0715
quench:  g(F)=  0.000E+00 g(S)=  0.000E+00 dE (1.order)= 0.000E+00
 bond charge predicted
       N       E                     dE             d eps       ncg     rms          rms(c)
DAV:   1    -0.192143013123E+03    0.42096E-01   -0.52222E+00  6000   0.396E+00    0.719E-01
DAV:   2    -0.192170102213E+03   -0.27089E-01   -0.21436E-01  7884   0.182E+00    0.201E+00
DAV:   3    -0.192164889186E+03    0.52130E-02   -0.45051E-02  6684   0.231E+00    0.160E+00
DAV:   4    -0.192208374218E+03   -0.43485E-01   -0.12516E-01  7182   0.274E+00    0.473E+00
DAV:   5    -0.192160753301E+03    0.47621E-01   -0.12955E-01  7305   0.276E+00    0.144E+00
DAV:   6    -0.192160097383E+03    0.65592E-03   -0.84348E-03  8010   0.102E+00    0.748E-01
DAV:   7    -0.192160153297E+03   -0.55914E-04   -0.76147E-03  7038   0.795E-01    0.756E-01
DAV:   8    -0.192159532972E+03    0.62033E-03   -0.37942E-03  6891   0.685E-01    0.573E-01
DAV:   9    -0.192158949247E+03    0.58372E-03   -0.29469E-03  6504   0.506E-01    0.352E-01
DAV:  10    -0.192158906898E+03    0.42349E-04   -0.99003E-04  6858   0.370E-01
  42 F= -.19215891E+03 E0= -.19215577E+03  d E =0.262024E-01  mag=    25.0978
quench:  g(F)=  0.000E+00 g(S)=  0.000E+00 dE (1.order)= 0.000E+00
 bond charge predicted
       N       E                     dE             d eps       ncg     rms          rms(c)
DAV:   1    -0.192136304859E+03    0.22644E-01   -0.35214E+00  5994   0.314E+00    0.651E-01
DAV:   2    -0.192200481469E+03   -0.64177E-01   -0.23717E-01  8832   0.271E+00    0.473E+00
DAV:   3    -0.192157723778E+03    0.42758E-01   -0.17646E-01  7806   0.311E+00    0.242E+00
DAV:   4    -0.192152233579E+03    0.54902E-02   -0.55383E-02  6639   0.221E+00    0.152E+00
DAV:   5    -0.192147538076E+03    0.46955E-02   -0.19955E-02  7695   0.135E+00    0.876E-01
DAV:   6    -0.192147521999E+03    0.16077E-04   -0.71220E-03  7683   0.968E-01    0.756E-01
DAV:   7    -0.192147743137E+03   -0.22114E-03   -0.75698E-03  6849   0.844E-01    0.790E-01
DAV:   8    -0.192147253720E+03    0.48942E-03   -0.37184E-03  6921   0.767E-01    0.658E-01
DAV:   9    -0.192146730158E+03    0.52356E-03   -0.28036E-03  6600   0.568E-01    0.488E-01
DAV:  10    -0.192146208256E+03    0.52190E-03   -0.12575E-03  6714   0.415E-01    0.135E-01
DAV:  11    -0.192146500179E+03   -0.29192E-03   -0.48807E-04  4632   0.252E-01    0.267E-01
DAV:  12    -0.192146380055E+03    0.12012E-03   -0.31557E-04  3549   0.208E-01    0.446E-02
DAV:  13    -0.192146450282E+03   -0.70227E-04   -0.61941E-05  3465   0.762E-02
  43 F= -.19214645E+03 E0= -.19214347E+03  d E =0.124566E-01  mag=    25.1253
quench:  g(F)=  0.000E+00 g(S)=  0.000E+00 dE (1.order)= 0.000E+00
 bond charge predicted
       N       E                     dE             d eps       ncg     rms          rms(c)
DAV:   1    -0.192132247254E+03    0.14133E-01   -0.19699E+00  6018   0.234E+00    0.458E-01
DAV:   2    -0.192146258463E+03   -0.14011E-01   -0.94884E-02  8025   0.118E+00    0.190E+00
DAV:   3    -0.192144375393E+03    0.18831E-02   -0.53991E-02  6984   0.170E+00    0.168E+00
DAV:   4    -0.192143072301E+03    0.13031E-02   -0.29542E-02  6801   0.153E+00    0.137E+00
DAV:   5    -0.192138567277E+03    0.45050E-02   -0.64585E-03  7470   0.955E-01    0.538E-01
DAV:   6    -0.192138804194E+03   -0.23692E-03   -0.27744E-03  7101   0.661E-01    0.535E-01
DAV:   7    -0.192138571773E+03    0.23242E-03   -0.27834E-03  6675   0.542E-01    0.468E-01
DAV:   8    -0.192138223439E+03    0.34833E-03   -0.13678E-03  6789   0.443E-01    0.307E-01
DAV:   9    -0.192138238386E+03   -0.14946E-04   -0.93464E-04  4923   0.314E-01
  44 F= -.19213824E+03 E0= -.19213528E+03  d E =0.821190E-02  mag=    25.1444
quench:  g(F)=  0.000E+00 g(S)=  0.000E+00 dE (1.order)= 0.000E+00
 bond charge predicted
       N       E                     dE             d eps       ncg     rms          rms(c)
DAV:   1    -0.192117726582E+03    0.20497E-01   -0.22564E+00  5994   0.264E+00    0.459E-01
DAV:   2    -0.192181363289E+03   -0.63637E-01   -0.17995E-01  9738   0.254E+00    0.498E+00
DAV:   3    -0.192122214838E+03    0.59148E-01   -0.11880E-01  7941   0.253E+00    0.857E-01
DAV:   4    -0.192126348504E+03   -0.41337E-02   -0.12126E-02  6777   0.124E+00    0.106E+00
DAV:   5    -0.192124296510E+03    0.20520E-02   -0.98146E-03  7158   0.100E+00    0.660E-01
DAV:   6    -0.192124961876E+03   -0.66537E-03   -0.43827E-03  6927   0.699E-01    0.705E-01
DAV:   7    -0.192123891656E+03    0.10702E-02   -0.30205E-03  6765   0.585E-01    0.321E-01
DAV:   8    -0.192124226156E+03   -0.33450E-03   -0.11765E-03  6372   0.410E-01    0.417E-01
DAV:   9    -0.192123931863E+03    0.29429E-03   -0.86869E-04  5409   0.324E-01    0.200E-01
DAV:  10    -0.192123912244E+03    0.19618E-04   -0.33213E-04  3801   0.221E-01
  45 F= -.19212391E+03 E0= -.19212120E+03  d E =0.143261E-01  mag=    25.1630
quench:  g(F)=  0.000E+00 g(S)=  0.000E+00 dE (1.order)= 0.000E+00
 bond charge predicted
       N       E                     dE             d eps       ncg     rms          rms(c)
DAV:   1    -0.192094334291E+03    0.29598E-01   -0.35946E+00  5988   0.330E+00    0.578E-01
DAV:   2    -0.192109935327E+03   -0.15601E-01   -0.13746E-01  7653   0.132E+00    0.134E+00
DAV:   3    -0.192116210837E+03   -0.62755E-02   -0.43346E-02  6705   0.202E+00    0.227E+00
DAV:   4    -0.192121279912E+03   -0.50691E-02   -0.83479E-02  6825   0.217E+00    0.274E+00
DAV:   5    -0.192107117339E+03    0.14163E-01   -0.55388E-02  7353   0.181E+00    0.116E+00
DAV:   6    -0.192105819833E+03    0.12975E-02   -0.47957E-03  7692   0.790E-01    0.699E-01
DAV:   7    -0.192105449735E+03    0.37010E-03   -0.52732E-03  6870   0.666E-01    0.544E-01
DAV:   8    -0.192105314958E+03    0.13478E-03   -0.21198E-03  6921   0.545E-01    0.480E-01
DAV:   9    -0.192105108700E+03    0.20626E-03   -0.18044E-03  6216   0.446E-01    0.367E-01
DAV:  10    -0.192104812222E+03    0.29648E-03   -0.73121E-04  6273   0.343E-01    0.134E-01
DAV:  11    -0.192104961730E+03   -0.14951E-03   -0.22859E-04  3735   0.151E-01    0.164E-01
DAV:  12    -0.192104943247E+03    0.18482E-04   -0.14522E-04  3537   0.132E-01
  46 F= -.19210494E+03 E0= -.19210234E+03  d E =0.189690E-01  mag=    25.1873
quench:  g(F)=  0.000E+00 g(S)=  0.000E+00 dE (1.order)= 0.000E+00
 bond charge predicted
       N       E                     dE             d eps       ncg     rms          rms(c)
DAV:   1    -0.192080594638E+03    0.24367E-01   -0.33552E+00  5988   0.311E+00    0.574E-01
DAV:   2    -0.192110554736E+03   -0.29960E-01   -0.16493E-01  8295   0.167E+00    0.287E+00
DAV:   3    -0.192096556861E+03    0.13998E-01   -0.94554E-02  7653   0.221E+00    0.185E+00
DAV:   4    -0.192093985873E+03    0.25710E-02   -0.24409E-02  6702   0.152E+00    0.136E+00
DAV:   5    -0.192090581297E+03    0.34046E-02   -0.12299E-02  7299   0.118E+00    0.740E-01
DAV:   6    -0.192091874653E+03   -0.12934E-02   -0.68221E-03  6873   0.909E-01    0.919E-01
DAV:   7    -0.192090430693E+03    0.14440E-02   -0.55189E-03  6873   0.811E-01    0.619E-01
DAV:   8    -0.192090671203E+03   -0.24051E-03   -0.25406E-03  6765   0.585E-01    0.642E-01
DAV:   9    -0.192089648848E+03    0.10224E-02   -0.21449E-03  6561   0.485E-01    0.197E-01
DAV:  10    -0.192089722824E+03   -0.73976E-04   -0.52751E-04  5259   0.254E-01
  47 F= -.19208972E+03 E0= -.19208729E+03  d E =0.152204E-01  mag=    25.2068
quench:  g(F)=  0.000E+00 g(S)=  0.000E+00 dE (1.order)= 0.000E+00
 bond charge predicted
       N       E                     dE             d eps       ncg     rms          rms(c)
DAV:   1    -0.192082517359E+03    0.71315E-02   -0.15865E+00  6015   0.203E+00    0.454E-01
DAV:   2    -0.192091252191E+03   -0.87348E-02   -0.74096E-02  7917   0.110E+00    0.121E+00
DAV:   3    -0.192090872962E+03    0.37923E-03   -0.22117E-02  6657   0.149E+00    0.127E+00
DAV:   4    -0.192102780198E+03   -0.11907E-01   -0.51715E-02  6957   0.170E+00    0.266E+00
DAV:   5    -0.192087246828E+03    0.15533E-01   -0.39286E-02  7425   0.152E+00    0.721E-01
DAV:   6    -0.192087501103E+03   -0.25427E-03   -0.25760E-03  7539   0.629E-01    0.477E-01
DAV:   7    -0.192087867013E+03   -0.36591E-03   -0.30111E-03  6696   0.596E-01    0.591E-01
DAV:   8    -0.192087115336E+03    0.75168E-03   -0.19099E-03  6762   0.524E-01    0.331E-01
DAV:   9    -0.192087197585E+03   -0.82249E-04   -0.95931E-04  5625   0.350E-01
  48 F= -.19208720E+03 E0= -.19208499E+03  d E =0.252524E-02  mag=    25.2242
quench:  g(F)=  0.000E+00 g(S)=  0.000E+00 dE (1.order)= 0.000E+00
 bond charge predicted
       N       E                     dE             d eps       ncg     rms          rms(c)
DAV:   1    -0.192077439644E+03    0.96757E-02   -0.12145E+00  6000   0.196E+00    0.368E-01
DAV:   2    -0.192146991062E+03   -0.69551E-01   -0.16056E-01  9867   0.268E+00    0.540E+00
DAV:   3    -0.192076539067E+03    0.70452E-01   -0.11115E-01  8079   0.250E+00    0.538E-01
DAV:   4    -0.192082109242E+03   -0.55702E-02   -0.69907E-03  7029   0.970E-01    0.942E-01
DAV:   5    -0.192080662504E+03    0.14467E-02   -0.62975E-03  6993   0.783E-01    0.492E-01
DAV:   6    -0.192081140292E+03   -0.47779E-03   -0.22486E-03  7008   0.534E-01    0.533E-01
DAV:   7    -0.192080620622E+03    0.51967E-03   -0.22511E-03  6450   0.487E-01    0.310E-01
DAV:   8    -0.192080572586E+03    0.48037E-04   -0.69217E-04  5379   0.311E-01
  49 F= -.19208057E+03 E0= -.19207826E+03  d E =0.662500E-02  mag=    25.2371
quench:  g(F)=  0.000E+00 g(S)=  0.000E+00 dE (1.order)= 0.000E+00
 bond charge predicted
       N       E                     dE             d eps       ncg     rms          rms(c)
DAV:   1    -0.192065991947E+03    0.14629E-01   -0.21517E+00  5982   0.259E+00    0.480E-01
DAV:   2    -0.192100218063E+03   -0.34226E-01   -0.12403E-01  8901   0.213E+00    0.357E+00
DAV:   3    -0.192081005457E+03    0.19213E-01   -0.12038E-01  6951   0.264E+00    0.223E+00
DAV:   4    -0.192073509940E+03    0.74955E-02   -0.34346E-02  6669   0.160E+00    0.101E+00
DAV:   5    -0.192073350118E+03    0.15982E-03   -0.57346E-03  7269   0.876E-01    0.890E-01
DAV:   6    -0.192072268776E+03    0.10813E-02   -0.36656E-03  7008   0.706E-01    0.637E-01
DAV:   7    -0.192072105964E+03    0.16281E-03   -0.33049E-03  6627   0.571E-01    0.499E-01
DAV:   8    -0.192071739944E+03    0.36602E-03   -0.18683E-03  6741   0.497E-01    0.330E-01
DAV:   9    -0.192071979248E+03   -0.23930E-03   -0.93306E-04  6129   0.348E-01    0.382E-01
DAV:  10    -0.192071634949E+03    0.34430E-03   -0.73635E-04  5082   0.291E-01    0.951E-02
DAV:  11    -0.192071741304E+03   -0.10635E-03   -0.18814E-04  3513   0.159E-01    0.140E-01
DAV:  12    -0.192071778388E+03   -0.37085E-04   -0.11337E-04  3510   0.114E-01
  50 F= -.19207178E+03 E0= -.19206966E+03  d E =0.879420E-02  mag=    25.2581
quench:  g(F)=  0.000E+00 g(S)=  0.000E+00 dE (1.order)= 0.000E+00
 bond charge predicted
       N       E                     dE             d eps       ncg     rms          rms(c)
DAV:   1    -0.192057644536E+03    0.14097E-01   -0.27946E+00  5988   0.291E+00    0.517E-01
DAV:   2    -0.192075905404E+03   -0.18261E-01   -0.11267E-01  8151   0.129E+00    0.216E+00
DAV:   3    -0.192073179245E+03    0.27262E-02   -0.78032E-02  7278   0.200E+00    0.208E+00
DAV:   4    -0.192067012236E+03    0.61670E-02   -0.27531E-02  6630   0.155E+00    0.106E+00
DAV:   5    -0.192065276967E+03    0.17353E-02   -0.96819E-03  7089   0.110E+00    0.751E-01
DAV:   6    -0.192065791109E+03   -0.51414E-03   -0.47517E-03  7077   0.774E-01    0.746E-01
DAV:   7    -0.192064774550E+03    0.10166E-02   -0.49634E-03  6735   0.712E-01    0.531E-01
DAV:   8    -0.192064763902E+03    0.10648E-04   -0.14775E-03  6594   0.435E-01    0.486E-01
DAV:   9    -0.192064375061E+03    0.38884E-03   -0.13692E-03  5922   0.349E-01    0.215E-01
DAV:  10    -0.192064319634E+03    0.55427E-04   -0.34554E-04  4119   0.214E-01
  51 F= -.19206432E+03 E0= -.19206237E+03  d E =0.745875E-02  mag=    25.2762
quench:  g(F)=  0.000E+00 g(S)=  0.000E+00 dE (1.order)= 0.000E+00
 bond charge predicted
       N       E                     dE             d eps       ncg     rms          rms(c)
DAV:   1    -0.192062165531E+03    0.22095E-02   -0.15538E+00  6063   0.196E+00    0.466E-01
DAV:   2    -0.192070038710E+03   -0.78732E-02   -0.74046E-02  7818   0.106E+00    0.115E+00
DAV:   3    -0.192074012598E+03   -0.39739E-02   -0.30919E-02  6726   0.162E+00    0.185E+00
DAV:   4    -0.192076089165E+03   -0.20766E-02   -0.54184E-02  6666   0.171E+00    0.211E+00
DAV:   5    -0.192066848353E+03    0.92408E-02   -0.29848E-02  7473   0.132E+00    0.741E-01
DAV:   6    -0.192066644384E+03    0.20397E-03   -0.27620E-03  7242   0.637E-01    0.492E-01
DAV:   7    -0.192067286477E+03   -0.64209E-03   -0.33133E-03  6726   0.632E-01    0.675E-01
DAV:   8    -0.192066246890E+03    0.10396E-02   -0.18734E-03  6630   0.550E-01    0.337E-01
DAV:   9    -0.192066404132E+03   -0.15724E-03   -0.12029E-03  5583   0.368E-01    0.349E-01
DAV:  10    -0.192066174469E+03    0.22966E-03   -0.59669E-04  4248   0.294E-01    0.178E-01
DAV:  11    -0.192066181793E+03   -0.73245E-05   -0.17521E-04  3507   0.140E-01
  52 F= -.19206618E+03 E0= -.19206436E+03  d E =-.186216E-02  mag=    25.2944
quench:  g(F)=  0.000E+00 g(S)=  0.000E+00 dE (1.order)= 0.000E+00
 bond charge predicted
       N       E                     dE             d eps       ncg     rms          rms(c)
DAV:   1    -0.192067870544E+03   -0.16961E-02   -0.63018E-01  6015   0.134E+00    0.271E-01
DAV:   2    -0.192076818833E+03   -0.89483E-02   -0.36113E-02  8868   0.972E-01    0.177E+00
DAV:   3    -0.192070394546E+03    0.64243E-02   -0.26343E-02  7614   0.116E+00    0.760E-01
DAV:   4    -0.192070697178E+03   -0.30263E-03   -0.67020E-03  6609   0.845E-01    0.679E-01
DAV:   5    -0.192069703410E+03    0.99377E-03   -0.35116E-03  6909   0.597E-01    0.372E-01
DAV:   6    -0.192069820372E+03   -0.11696E-03   -0.11702E-03  6852   0.402E-01    0.349E-01
DAV:   7    -0.192069733642E+03    0.86730E-04   -0.13788E-03  5487   0.355E-01    0.291E-01
DAV:   8    -0.192069662048E+03    0.71594E-04   -0.37191E-04  3747   0.237E-01
  53 F= -.19206966E+03 E0= -.19206777E+03  d E =-.348025E-02  mag=    25.3047
quench:  g(F)=  0.000E+00 g(S)=  0.000E+00 dE (1.order)= 0.000E+00
 bond charge predicted
       N       E                     dE             d eps       ncg     rms          rms(c)
DAV:   1    -0.192071623000E+03   -0.18894E-02   -0.11475E+00  5976   0.191E+00    0.387E-01
DAV:   2    -0.192086020642E+03   -0.14398E-01   -0.54038E-02  8628   0.158E+00    0.222E+00
DAV:   3    -0.192086986224E+03   -0.96558E-03   -0.72360E-02  6762   0.214E+00    0.247E+00
DAV:   4    -0.192074256912E+03    0.12729E-01   -0.35067E-02  6630   0.148E+00    0.742E-01
DAV:   5    -0.192075228570E+03   -0.97166E-03   -0.39783E-03  6945   0.764E-01    0.727E-01
DAV:   6    -0.192074359711E+03    0.86886E-03   -0.27788E-03  6981   0.626E-01    0.494E-01
DAV:   7    -0.192074609626E+03   -0.24991E-03   -0.20065E-03  6414   0.460E-01    0.483E-01
DAV:   8    -0.192074159419E+03    0.45021E-03   -0.16244E-03  6039   0.433E-01    0.258E-01
DAV:   9    -0.192074336850E+03   -0.17743E-03   -0.44748E-04  4500   0.252E-01    0.296E-01
DAV:  10    -0.192074151189E+03    0.18566E-03   -0.44680E-04  3543   0.220E-01    0.878E-02
DAV:  11    -0.192074184644E+03   -0.33455E-04   -0.10101E-04  3483   0.117E-01
  54 F= -.19207418E+03 E0= -.19207247E+03  d E =-.452260E-02  mag=    25.3194
quench:  g(F)=  0.000E+00 g(S)=  0.000E+00 dE (1.order)= 0.000E+00
 bond charge predicted
       N       E                     dE             d eps       ncg     rms          rms(c)
DAV:   1    -0.192080701269E+03   -0.65501E-02   -0.25172E+00  5976   0.281E+00    0.491E-01
DAV:   2    -0.192093618970E+03   -0.12918E-01   -0.84141E-02  8208   0.121E+00    0.181E+00
DAV:   3    -0.192098552662E+03   -0.49337E-02   -0.78041E-02  7065   0.202E+00    0.252E+00
DAV:   4    -0.192089520633E+03    0.90320E-02   -0.47129E-02  6639   0.190E+00    0.129E+00
DAV:   5    -0.192087216349E+03    0.23043E-02   -0.13264E-02  6831   0.120E+00    0.870E-01
DAV:   6    -0.192086777559E+03    0.43879E-03   -0.32091E-03  7185   0.692E-01    0.683E-01
DAV:   7    -0.192086486425E+03    0.29113E-03   -0.42853E-03  6507   0.601E-01    0.503E-01
DAV:   8    -0.192086192957E+03    0.29347E-03   -0.13288E-03  6219   0.429E-01    0.345E-01
DAV:   9    -0.192086431608E+03   -0.23865E-03   -0.90373E-04  5865   0.321E-01    0.360E-01
DAV:  10    -0.192086115675E+03    0.31593E-03   -0.57485E-04  4491   0.274E-01    0.722E-02
DAV:  11    -0.192086171396E+03   -0.55721E-04   -0.98774E-05  3441   0.113E-01
  55 F= -.19208617E+03 E0= -.19208461E+03  d E =-.119868E-01  mag=    25.3361
quench:  g(F)=  0.000E+00 g(S)=  0.000E+00 dE (1.order)= 0.000E+00
 bond charge predicted
       N       E                     dE             d eps       ncg     rms          rms(c)
DAV:   1    -0.192094350737E+03   -0.82351E-02   -0.34579E+00  5988   0.314E+00    0.651E-01
DAV:   2    -0.192106906404E+03   -0.12556E-01   -0.14177E-01  8025   0.127E+00    0.125E+00
DAV:   3    -0.192140517344E+03   -0.33611E-01   -0.11715E-01  6930   0.268E+00    0.416E+00
DAV:   4    -0.192110358795E+03    0.30159E-01   -0.12822E-01  6645   0.274E+00    0.192E+00
DAV:   5    -0.192104480520E+03    0.58783E-02   -0.25349E-02  7197   0.166E+00    0.102E+00
DAV:   6    -0.192103631041E+03    0.84948E-03   -0.48857E-03  7176   0.891E-01    0.772E-01
DAV:   7    -0.192103863177E+03   -0.23214E-03   -0.70036E-03  6819   0.774E-01    0.718E-01
DAV:   8    -0.192103083902E+03    0.77928E-03   -0.27164E-03  6729   0.619E-01    0.470E-01
DAV:   9    -0.192103213201E+03   -0.12930E-03   -0.17938E-03  6300   0.462E-01    0.423E-01
DAV:  10    -0.192102798531E+03    0.41467E-03   -0.10914E-03  5943   0.376E-01    0.175E-01
DAV:  11    -0.192102914025E+03   -0.11549E-03   -0.28828E-04  3552   0.178E-01    0.211E-01
DAV:  12    -0.192102876430E+03    0.37595E-04   -0.16257E-04  3465   0.130E-01
  56 F= -.19210288E+03 E0= -.19210155E+03  d E =-.167050E-01  mag=    25.3550
quench:  g(F)=  0.000E+00 g(S)=  0.000E+00 dE (1.order)= 0.000E+00
 bond charge predicted
       N       E                     dE             d eps       ncg     rms          rms(c)
DAV:   1    -0.192111575110E+03   -0.86611E-02   -0.25289E+00  6087   0.253E+00    0.556E-01
DAV:   2    -0.192136452633E+03   -0.24878E-01   -0.13387E-01  8430   0.156E+00    0.281E+00
DAV:   3    -0.192122863791E+03    0.13589E-01   -0.79532E-02  7212   0.201E+00    0.154E+00
DAV:   4    -0.192123345108E+03   -0.48132E-03   -0.25981E-02  6681   0.163E+00    0.120E+00
DAV:   5    -0.192119335549E+03    0.40096E-02   -0.11681E-02  7125   0.124E+00    0.644E-01
DAV:   6    -0.192120061748E+03   -0.72620E-03   -0.45995E-03  7005   0.816E-01    0.722E-01
DAV:   7    -0.192119622376E+03    0.43937E-03   -0.48246E-03  6564   0.722E-01    0.637E-01
DAV:   8    -0.192119001849E+03    0.62053E-03   -0.15640E-03  6651   0.493E-01    0.436E-01
DAV:   9    -0.192118926112E+03    0.75737E-04   -0.10948E-03  5829   0.352E-01    0.319E-01
DAV:  10    -0.192118684575E+03    0.24154E-03   -0.54898E-04  4374   0.272E-01    0.100E-01
DAV:  11    -0.192118734809E+03   -0.50234E-04   -0.14113E-04  3501   0.126E-01
  57 F= -.19211873E+03 E0= -.19211742E+03  d E =-.158584E-01  mag=    25.3687
quench:  g(F)=  0.000E+00 g(S)=  0.000E+00 dE (1.order)= 0.000E+00
 bond charge predicted
       N       E                     dE             d eps       ncg     rms          rms(c)
DAV:   1    -0.192130157557E+03   -0.11473E-01   -0.89970E-01  6087   0.145E+00    0.353E-01
DAV:   2    -0.192133410645E+03   -0.32531E-02   -0.42883E-02  7911   0.601E-01    0.550E-01
DAV:   3    -0.192139948717E+03   -0.65381E-02   -0.20794E-02  6858   0.129E+00    0.177E+00
DAV:   4    -0.192137842549E+03    0.21062E-02   -0.39290E-02  6675   0.144E+00    0.156E+00
DAV:   5    -0.192132417714E+03    0.54248E-02   -0.97498E-03  7170   0.862E-01    0.355E-01
DAV:   6    -0.192132858961E+03   -0.44125E-03   -0.15042E-03  6939   0.498E-01    0.403E-01
DAV:   7    -0.192132864695E+03   -0.57335E-05   -0.14712E-03  6480   0.416E-01    0.393E-01
DAV:   8    -0.192132480064E+03    0.38463E-03   -0.79056E-04  5670   0.354E-01    0.151E-01
DAV:   9    -0.192132624356E+03   -0.14429E-03   -0.40805E-04  3657   0.239E-01    0.223E-01
DAV:  10    -0.192132490700E+03    0.13366E-03   -0.24417E-04  3510   0.197E-01    0.104E-01
DAV:  11    -0.192132504178E+03   -0.13478E-04   -0.54943E-05  3447   0.761E-02
  58 F= -.19213250E+03 E0= -.19213131E+03  d E =-.137694E-01  mag=    25.3807
quench:  g(F)=  0.000E+00 g(S)=  0.000E+00 dE (1.order)= 0.000E+00
 bond charge predicted
       N       E                     dE             d eps       ncg     rms          rms(c)
DAV:   1    -0.192146347603E+03   -0.13857E-01   -0.16438E+00  5976   0.220E+00    0.405E-01
DAV:   2    -0.192152555509E+03   -0.62079E-02   -0.58090E-02  8112   0.811E-01    0.888E-01
DAV:   3    -0.192164555950E+03   -0.12000E-01   -0.47452E-02  6903   0.165E+00    0.258E+00
[...]
DAV:   9    -0.192428701060E+03   -0.36295E-04   -0.13819E-04  3414   0.131E-01
 207 F= -.19242870E+03 E0= -.19242812E+03  d E =-.350108E-03  mag=    25.3837
quench:  g(F)=  0.000E+00 g(S)=  0.000E+00 dE (1.order)= 0.000E+00
 bond charge predicted
       N       E                     dE             d eps       ncg     rms          rms(c)
DAV:   1    -0.192423092311E+03    0.55725E-02   -0.23998E+00  5976   0.264E+00    0.382E-01
DAV:   2    -0.192429177330E+03   -0.60850E-02   -0.62527E-02  6483   0.607E-01    0.463E-01
DAV:   3    -0.192435415880E+03   -0.62386E-02   -0.15919E-02  6846   0.123E+00    0.167E+00
DAV:   4    -0.192441265645E+03   -0.58498E-02   -0.53247E-02  6723   0.168E+00    0.232E+00
DAV:   5    -0.192428788080E+03    0.12478E-01   -0.25137E-02  6702   0.128E+00    0.435E-01
DAV:   6    -0.192429228711E+03   -0.44063E-03   -0.11957E-03  6369   0.474E-01    0.206E-01
DAV:   7    -0.192429835542E+03   -0.60683E-03   -0.10232E-03  6327   0.365E-01    0.411E-01
DAV:   8    -0.192429403797E+03    0.43175E-03   -0.86608E-04  5760   0.353E-01    0.104E-01
DAV:   9    -0.192429509864E+03   -0.10607E-03   -0.23591E-04  3501   0.179E-01    0.172E-01
DAV:  10    -0.192429450426E+03    0.59437E-04   -0.15950E-04  3432   0.143E-01
 208 F= -.19242945E+03 E0= -.19242897E+03  d E =-.749366E-03  mag=    25.3840
quench:  g(F)=  0.000E+00 g(S)=  0.000E+00 dE (1.order)= 0.000E+00
 bond charge predicted
       N       E                     dE             d eps       ncg     rms          rms(c)
DAV:   1    -0.192420525540E+03    0.89843E-02   -0.37470E+00  5976   0.329E+00    0.471E-01
DAV:   2    -0.192429586291E+03   -0.90608E-02   -0.96257E-02  6126   0.652E-01    0.443E-01
DAV:   3    -0.192440659496E+03   -0.11073E-01   -0.24178E-02  6984   0.153E+00    0.211E+00
DAV:   4    -0.192446742355E+03   -0.60829E-02   -0.83914E-02  6657   0.203E+00    0.282E+00
DAV:   5    -0.192428999821E+03    0.17743E-01   -0.33402E-02  6729   0.148E+00    0.387E-01
DAV:   6    -0.192430252105E+03   -0.12523E-02   -0.18097E-03  6855   0.497E-01    0.333E-01
DAV:   7    -0.192430563802E+03   -0.31170E-03   -0.11441E-03  6429   0.364E-01    0.304E-01
DAV:   8    -0.192430377064E+03    0.18674E-03   -0.69200E-04  5697   0.322E-01    0.142E-01
DAV:   9    -0.192430497328E+03   -0.12026E-03   -0.32649E-04  3609   0.203E-01    0.206E-01
DAV:  10    -0.192430389696E+03    0.10763E-03   -0.20643E-04  3453   0.170E-01    0.741E-02
DAV:  11    -0.192430407853E+03   -0.18157E-04   -0.54853E-05  3441   0.797E-02
 209 F= -.19243041E+03 E0= -.19242993E+03  d E =-.957427E-03  mag=    25.3845
quench:  g(F)=  0.000E+00 g(S)=  0.000E+00 dE (1.order)= 0.000E+00
 bond charge predicted
       N       E                     dE             d eps       ncg     rms          rms(c)
DAV:   1    -0.192417631651E+03    0.12758E-01   -0.52267E+00  5976   0.389E+00    0.555E-01
DAV:   2    -0.192430291344E+03   -0.12660E-01   -0.13569E-01  6207   0.741E-01    0.517E-01
DAV:   3    -0.192458742733E+03   -0.28451E-01   -0.57603E-02  7029   0.208E+00    0.356E+00
DAV:   4    -0.192443026915E+03    0.15716E-01   -0.11313E-01  6636   0.244E+00    0.247E+00
DAV:   5    -0.192430097158E+03    0.12930E-01   -0.24787E-02  6852   0.142E+00    0.406E-01
DAV:   6    -0.192431265236E+03   -0.11681E-02   -0.22558E-03  7314   0.569E-01    0.410E-01
DAV:   7    -0.192431911883E+03   -0.64665E-03   -0.19334E-03  6474   0.485E-01    0.480E-01
DAV:   8    -0.192431318915E+03    0.59297E-03   -0.12131E-03  6345   0.419E-01    0.151E-01
DAV:   9    -0.192431525193E+03   -0.20628E-03   -0.40842E-04  4194   0.248E-01    0.245E-01
DAV:  10    -0.192431391236E+03    0.13396E-03   -0.27888E-04  3528   0.209E-01    0.118E-01
DAV:  11    -0.192431388338E+03    0.28979E-05   -0.80571E-05  3471   0.997E-02
 210 F= -.19243139E+03 E0= -.19243099E+03  d E =-.980484E-03  mag=    25.3854
quench:  g(F)=  0.000E+00 g(S)=  0.000E+00 dE (1.order)= 0.000E+00
 bond charge predicted
       N       E                     dE             d eps       ncg     rms          rms(c)
DAV:   1    -0.192412949508E+03    0.18442E-01   -0.66325E+00  5976   0.441E+00    0.632E-01
DAV:   2    -0.192430406517E+03   -0.17457E-01   -0.18423E-01  6312   0.927E-01    0.669E-01
DAV:   3    -0.192454882336E+03   -0.24476E-01   -0.56763E-02  7020   0.217E+00    0.328E+00
DAV:   4    -0.192452563389E+03    0.23189E-02   -0.13531E-01  6636   0.265E+00    0.326E+00
DAV:   5    -0.192429825083E+03    0.22738E-01   -0.43535E-02  6804   0.179E+00    0.626E-01
DAV:   6    -0.192430995669E+03   -0.11706E-02   -0.32125E-03  7965   0.716E-01    0.404E-01
DAV:   7    -0.192432567050E+03   -0.15714E-02   -0.28378E-03  6723   0.635E-01    0.709E-01
DAV:   8    -0.192431219173E+03    0.13479E-02   -0.22263E-03  6552   0.584E-01    0.179E-01
DAV:   9    -0.192431572469E+03   -0.35330E-03   -0.66899E-04  5445   0.316E-01    0.306E-01
DAV:  10    -0.192431340856E+03    0.23161E-03   -0.48041E-04  4254   0.270E-01    0.130E-01
DAV:  11    -0.192431333853E+03    0.70031E-05   -0.12758E-04  3396   0.129E-01
 211 F= -.19243133E+03 E0= -.19243092E+03  d E =0.544843E-04  mag=    25.3861
quench:  g(F)=  0.000E+00 g(S)=  0.000E+00 dE (1.order)= 0.000E+00
 bond charge predicted
       N       E                     dE             d eps       ncg     rms          rms(c)
DAV:   1    -0.192419502958E+03    0.11838E-01   -0.20906E+00  6018   0.216E+00    0.454E-01
DAV:   2    -0.192427055488E+03   -0.75525E-02   -0.92531E-02  7305   0.736E-01    0.709E-01
DAV:   3    -0.192445089854E+03   -0.18034E-01   -0.51942E-02  7614   0.176E+00    0.300E+00
DAV:   4    -0.192430017826E+03    0.15072E-01   -0.66728E-02  6885   0.191E+00    0.148E+00
DAV:   5    -0.192425586766E+03    0.44311E-02   -0.95527E-03  8676   0.977E-01    0.360E-01
DAV:   6    -0.192426649261E+03   -0.10625E-02   -0.30684E-03  7452   0.702E-01    0.610E-01
DAV:   7    -0.192425910063E+03    0.73920E-03   -0.27089E-03  6687   0.591E-01    0.478E-01
DAV:   8    -0.192425412758E+03    0.49730E-03   -0.11957E-03  6714   0.407E-01    0.235E-01
DAV:   9    -0.192425569469E+03   -0.15671E-03   -0.54057E-04  5001   0.280E-01    0.292E-01
DAV:  10    -0.192425321090E+03    0.24838E-03   -0.34762E-04  3999   0.234E-01    0.769E-02
DAV:  11    -0.192425339559E+03   -0.18469E-04   -0.67134E-05  3423   0.863E-02
 212 F= -.19242534E+03 E0= -.19242495E+03  d E =0.599429E-02  mag=    25.3879
quench:  g(F)=  0.000E+00 g(S)=  0.000E+00 dE (1.order)= 0.000E+00
 bond charge predicted
       N       E                     dE             d eps       ncg     rms          rms(c)
DAV:   1    -0.192431230290E+03   -0.59092E-02   -0.85395E-01  6051   0.130E+00    0.315E-01
DAV:   2    -0.192435468473E+03   -0.42382E-02   -0.41221E-02  7686   0.647E-01    0.837E-01
DAV:   3    -0.192439649217E+03   -0.41807E-02   -0.23839E-02  7416   0.114E+00    0.164E+00
DAV:   4    -0.192436402152E+03    0.32471E-02   -0.24053E-02  6852   0.122E+00    0.111E+00
DAV:   5    -0.192433877775E+03    0.25244E-02   -0.46085E-03  8274   0.671E-01    0.270E-01
DAV:   6    -0.192434172072E+03   -0.29430E-03   -0.12644E-03  7269   0.467E-01    0.348E-01
DAV:   7    -0.192434133945E+03    0.38127E-04   -0.11415E-03  6537   0.383E-01    0.357E-01
DAV:   8    -0.192433783552E+03    0.35039E-03   -0.62269E-04  5499   0.310E-01    0.115E-01
DAV:   9    -0.192433876161E+03   -0.92609E-04   -0.25216E-04  3531   0.185E-01
 213 F= -.19243388E+03 E0= -.19243347E+03  d E =-.853660E-02  mag=    25.3874
quench:  g(F)=  0.000E+00 g(S)=  0.000E+00 dE (1.order)= 0.000E+00
 bond charge predicted
       N       E                     dE             d eps       ncg     rms          rms(c)
DAV:   1    -0.192434079772E+03   -0.29622E-03   -0.10128E-01  5976   0.597E-01    0.926E-02
DAV:   2    -0.192435231559E+03   -0.11518E-02   -0.41868E-03  8214   0.426E-01    0.585E-01
DAV:   3    -0.192435066321E+03    0.16524E-03   -0.44199E-03  6363   0.525E-01    0.603E-01
DAV:   4    -0.192434331210E+03    0.73511E-03   -0.20471E-03  4167   0.357E-01    0.150E-01
DAV:   5    -0.192434461631E+03   -0.13042E-03   -0.30000E-04  3801   0.206E-01    0.180E-01
DAV:   6    -0.192434372097E+03    0.89535E-04   -0.16634E-04  3498   0.163E-01
 214 F= -.19243437E+03 E0= -.19243404E+03  d E =-.495935E-03  mag=    25.3878
quench:  g(F)=  0.000E+00 g(S)=  0.000E+00 dE (1.order)= 0.000E+00
 bond charge predicted
       N       E                     dE             d eps       ncg     rms          rms(c)
DAV:   1    -0.192434660900E+03   -0.19927E-03   -0.23879E-01  5976   0.873E-01    0.129E-01
DAV:   2    -0.192435897266E+03   -0.12364E-02   -0.73153E-03  7920   0.401E-01    0.511E-01
DAV:   3    -0.192436016807E+03   -0.11954E-03   -0.39928E-03  6408   0.529E-01    0.639E-01
DAV:   4    -0.192435368907E+03    0.64790E-03   -0.32953E-03  5079   0.431E-01    0.307E-01
DAV:   5    -0.192435347681E+03    0.21226E-04   -0.45847E-04  3633   0.213E-01
 215 F= -.19243535E+03 E0= -.19243506E+03  d E =-.975585E-03  mag=    25.3882
quench:  g(F)=  0.000E+00 g(S)=  0.000E+00 dE (1.order)= 0.000E+00
 bond charge predicted
       N       E                     dE             d eps       ncg     rms          rms(c)
DAV:   1    -0.192435379559E+03   -0.10651E-04   -0.43449E-01  5982   0.119E+00    0.175E-01
DAV:   2    -0.192437552282E+03   -0.21727E-02   -0.12945E-02  7863   0.519E-01    0.677E-01
DAV:   3    -0.192437362805E+03    0.18948E-03   -0.56146E-03  6675   0.657E-01    0.710E-01
DAV:   4    -0.192437070965E+03    0.29184E-03   -0.60583E-03  6156   0.583E-01    0.582E-01
DAV:   5    -0.192436596359E+03    0.47461E-03   -0.14043E-03  4233   0.348E-01    0.191E-01
DAV:   6    -0.192436552153E+03    0.44206E-04   -0.20534E-04  3432   0.204E-01
 216 F= -.19243655E+03 E0= -.19243613E+03  d E =-.120447E-02  mag=    25.3889
quench:  g(F)=  0.000E+00 g(S)=  0.000E+00 dE (1.order)= 0.000E+00
 bond charge predicted
       N       E                     dE             d eps       ncg     rms          rms(c)
DAV:   1    -0.192436460940E+03    0.13542E-03   -0.65193E-01  5976   0.144E+00    0.295E-01
DAV:   2    -0.192450289599E+03   -0.13829E-01   -0.32236E-02  8673   0.163E+00    0.210E+00
DAV:   3    -0.192438830055E+03    0.11460E-01   -0.19253E-02  6810   0.158E+00    0.859E-01
DAV:   4    -0.192438703104E+03    0.12695E-03   -0.97380E-03  6978   0.714E-01    0.690E-01
DAV:   5    -0.192438474214E+03    0.22889E-03   -0.38600E-03  6423   0.596E-01    0.428E-01
DAV:   6    -0.192438104706E+03    0.36951E-03   -0.90801E-04  6138   0.385E-01    0.182E-01
DAV:   7    -0.192438105796E+03   -0.10901E-05   -0.32447E-04  3444   0.207E-01
 217 F= -.19243811E+03 E0= -.19243770E+03  d E =-.155364E-02  mag=    25.3897
quench:  g(F)=  0.000E+00 g(S)=  0.000E+00 dE (1.order)= 0.000E+00
 bond charge predicted
       N       E                     dE             d eps       ncg     rms          rms(c)
DAV:   1    -0.192436882207E+03    0.12225E-02   -0.55240E-01  5988   0.125E+00    0.265E-01
DAV:   2    -0.192445652133E+03   -0.87699E-02   -0.30393E-02  8337   0.126E+00    0.167E+00
DAV:   3    -0.192444468640E+03    0.11835E-02   -0.37350E-02  6867   0.150E+00    0.178E+00
DAV:   4    -0.192437845977E+03    0.66227E-02   -0.15315E-02  6540   0.968E-01    0.332E-01
DAV:   5    -0.192438887367E+03   -0.10414E-02   -0.22789E-03  6942   0.513E-01    0.454E-01
DAV:   6    -0.192438359337E+03    0.52803E-03   -0.12798E-03  6879   0.405E-01    0.186E-01
DAV:   7    -0.192438445683E+03   -0.86346E-04   -0.55663E-04  5586   0.288E-01
 218 F= -.19243845E+03 E0= -.19243800E+03  d E =-.339887E-03  mag=    25.3906
quench:  g(F)=  0.000E+00 g(S)=  0.000E+00 dE (1.order)= 0.000E+00
 bond charge predicted
       N       E                     dE             d eps       ncg     rms          rms(c)
DAV:   1    -0.192439526558E+03   -0.11672E-02   -0.13427E-01  6276   0.609E-01    0.239E-01
DAV:   2    -0.192453820489E+03   -0.14294E-01   -0.25742E-02  7662   0.159E+00    0.233E+00
DAV:   3    -0.192448057416E+03    0.57631E-02   -0.48559E-02  6789   0.179E+00    0.202E+00
DAV:   4    -0.192439243187E+03    0.88142E-02   -0.19791E-02  6561   0.109E+00    0.279E-01
DAV:   5    -0.192440022241E+03   -0.77905E-03   -0.10738E-03  6639   0.350E-01    0.248E-01
DAV:   6    -0.192439925149E+03    0.97092E-04   -0.56991E-04  5841   0.244E-01
 219 F= -.19243993E+03 E0= -.19243970E+03  d E =-.147947E-02  mag=    25.3909
quench:  g(F)=  0.000E+00 g(S)=  0.000E+00 dE (1.order)= 0.000E+00
 bond charge predicted
       N       E                     dE             d eps       ncg     rms          rms(c)
DAV:   1    -0.192440368700E+03   -0.34646E-03   -0.87352E-02  6030   0.568E-01    0.130E-01
DAV:   2    -0.192443008389E+03   -0.26397E-02   -0.60383E-03  8079   0.733E-01    0.948E-01
DAV:   3    -0.192440932397E+03    0.20760E-02   -0.50026E-03  6528   0.725E-01    0.536E-01
DAV:   4    -0.192440559487E+03    0.37291E-03   -0.22634E-03  4272   0.352E-01    0.220E-01
DAV:   5    -0.192440637987E+03   -0.78500E-04   -0.49229E-04  4044   0.227E-01
 220 F= -.19244064E+03 E0= -.19244031E+03  d E =-.712838E-03  mag=    25.3911
quench:  g(F)=  0.000E+00 g(S)=  0.000E+00 dE (1.order)= 0.000E+00
 bond charge predicted
       N       E                     dE             d eps       ncg     rms          rms(c)
DAV:   1    -0.192441031625E+03   -0.47214E-03   -0.16671E-01  5976   0.739E-01    0.139E-01
DAV:   2    -0.192443473468E+03   -0.24418E-02   -0.72412E-03  8439   0.694E-01    0.859E-01
DAV:   3    -0.192441601897E+03    0.18716E-02   -0.39267E-03  6552   0.681E-01    0.399E-01
DAV:   4    -0.192441683089E+03   -0.81192E-04   -0.23994E-03  4200   0.358E-01    0.389E-01
DAV:   5    -0.192441550997E+03    0.13209E-03   -0.99744E-04  4728   0.301E-01    0.216E-01
DAV:   6    -0.192441474389E+03    0.76609E-04   -0.25605E-04  3522   0.199E-01
 221 F= -.19244147E+03 E0= -.19244103E+03  d E =-.836402E-03  mag=    25.3914
quench:  g(F)=  0.000E+00 g(S)=  0.000E+00 dE (1.order)= 0.000E+00
 bond charge predicted
       N       E                     dE             d eps       ncg     rms          rms(c)
DAV:   1    -0.192441660336E+03   -0.10934E-03   -0.21034E-01  5976   0.791E-01    0.133E-01
DAV:   2    -0.192443230401E+03   -0.15701E-02   -0.79732E-03  8193   0.487E-01    0.636E-01
DAV:   3    -0.192443254427E+03   -0.24025E-04   -0.56795E-03  6732   0.621E-01    0.746E-01
DAV:   4    -0.192442179890E+03    0.10745E-02   -0.34568E-03  5634   0.441E-01    0.226E-01
DAV:   5    -0.192442354186E+03   -0.17430E-03   -0.44104E-04  4299   0.235E-01    0.215E-01
DAV:   6    -0.192442241289E+03    0.11290E-03   -0.29735E-04  3765   0.210E-01    0.897E-02
DAV:   7    -0.192442315972E+03   -0.74683E-04   -0.17553E-04  3498   0.167E-01
 222 F= -.19244232E+03 E0= -.19244188E+03  d E =-.841584E-03  mag=    25.3919
quench:  g(F)=  0.000E+00 g(S)=  0.000E+00 dE (1.order)= 0.000E+00
 bond charge predicted
       N       E                     dE             d eps       ncg     rms          rms(c)
DAV:   1    -0.192442590816E+03   -0.34953E-03   -0.96212E-02  6024   0.513E-01    0.109E-01
DAV:   2    -0.192446778842E+03   -0.41880E-02   -0.10353E-02  8706   0.694E-01    0.134E+00
DAV:   3    -0.192442846094E+03    0.39327E-02   -0.96688E-03  7290   0.728E-01    0.382E-01
DAV:   4    -0.192442925059E+03   -0.78965E-04   -0.12417E-03  4617   0.324E-01    0.186E-01
DAV:   5    -0.192442932842E+03   -0.77831E-05   -0.30902E-04  3732   0.179E-01
 223 F= -.19244293E+03 E0= -.19244249E+03  d E =-.616870E-03  mag=    25.3923
quench:  g(F)=  0.000E+00 g(S)=  0.000E+00 dE (1.order)= 0.000E+00
 bond charge predicted
       N       E                     dE             d eps       ncg     rms          rms(c)
DAV:   1    -0.192443170306E+03   -0.24525E-03   -0.25906E-02  6417   0.330E-01    0.758E-02
DAV:   2    -0.192444223300E+03   -0.10530E-02   -0.22800E-03  7527   0.447E-01    0.590E-01
DAV:   3    -0.192443327872E+03    0.89543E-03   -0.16420E-03  6048   0.430E-01    0.254E-01
DAV:   4    -0.192443288759E+03    0.39113E-04   -0.63182E-04  3546   0.185E-01
 224 F= -.19244329E+03 E0= -.19244297E+03  d E =-.355916E-03  mag=    25.3925
quench:  g(F)=  0.000E+00 g(S)=  0.000E+00 dE (1.order)= 0.000E+00
 bond charge predicted
       N       E                     dE             d eps       ncg     rms          rms(c)
DAV:   1    -0.192443701536E+03   -0.37366E-03   -0.53685E-02  5988   0.434E-01    0.126E-01
DAV:   2    -0.192446790484E+03   -0.30889E-02   -0.55265E-03  7866   0.788E-01    0.104E+00
DAV:   3    -0.192445458869E+03    0.13316E-02   -0.10337E-02  6498   0.868E-01    0.941E-01
DAV:   4    -0.192443643798E+03    0.18151E-02   -0.41288E-03  5766   0.485E-01    0.959E-02
DAV:   5    -0.192443856049E+03   -0.21225E-03   -0.26244E-04  3672   0.173E-01    0.163E-01
DAV:   6    -0.192443813562E+03    0.42487E-04   -0.16219E-04  3456   0.136E-01
 225 F= -.19244381E+03 E0= -.19244341E+03  d E =-.524803E-03  mag=    25.3928
quench:  g(F)=  0.000E+00 g(S)=  0.000E+00 dE (1.order)= 0.000E+00
 bond charge predicted
       N       E                     dE             d eps       ncg     rms          rms(c)
DAV:   1    -0.192444300610E+03   -0.44456E-03   -0.11981E-01  5988   0.611E-01    0.101E-01
DAV:   2    -0.192445294513E+03   -0.99390E-03   -0.41557E-03  8046   0.409E-01    0.521E-01
DAV:   3    -0.192444872800E+03    0.42171E-03   -0.23054E-03  6288   0.450E-01    0.430E-01
DAV:   4    -0.192444624528E+03    0.24827E-03   -0.17129E-03  3828   0.308E-01    0.226E-01
DAV:   5    -0.192444649480E+03   -0.24953E-04   -0.32598E-04  3474   0.171E-01
 226 F= -.19244465E+03 E0= -.19244417E+03  d E =-.835919E-03  mag=    25.3930
quench:  g(F)=  0.000E+00 g(S)=  0.000E+00 dE (1.order)= 0.000E+00
 bond charge predicted
       N       E                     dE             d eps       ncg     rms          rms(c)
DAV:   1    -0.192444974668E+03   -0.35014E-03   -0.19670E-01  5976   0.782E-01    0.122E-01
DAV:   2    -0.192446148997E+03   -0.11743E-02   -0.60441E-03  8157   0.409E-01    0.509E-01
DAV:   3    -0.192445602410E+03    0.54659E-03   -0.18430E-03  6573   0.448E-01    0.322E-01
DAV:   4    -0.192446029373E+03   -0.42696E-03   -0.27137E-03  3837   0.386E-01    0.536E-01
DAV:   5    -0.192445519240E+03    0.51013E-03   -0.14394E-03  3864   0.317E-01    0.175E-01
DAV:   6    -0.192445477206E+03    0.42034E-04   -0.14750E-04  3408   0.168E-01
 227 F= -.19244548E+03 E0= -.19244515E+03  d E =-.827725E-03  mag=    25.3934
quench:  g(F)=  0.000E+00 g(S)=  0.000E+00 dE (1.order)= 0.000E+00
 bond charge predicted
       N       E                     dE             d eps       ncg     rms          rms(c)
DAV:   1    -0.192445565585E+03   -0.46346E-04   -0.17319E-01  5994   0.702E-01    0.196E-01
DAV:   2    -0.192451223094E+03   -0.56575E-02   -0.13359E-02  8019   0.111E+00    0.137E+00
DAV:   3    -0.192446733684E+03    0.44894E-02   -0.98481E-03  6603   0.107E+00    0.731E-01
DAV:   4    -0.192446207271E+03    0.52641E-03   -0.50886E-03  6426   0.529E-01    0.411E-01
DAV:   5    -0.192446071939E+03    0.13533E-03   -0.11648E-03  5607   0.325E-01    0.209E-01
DAV:   6    -0.192446025876E+03    0.46063E-04   -0.35886E-04  4341   0.213E-01
 228 F= -.19244603E+03 E0= -.19244558E+03  d E =-.548670E-03  mag=    25.3935
quench:  g(F)=  0.000E+00 g(S)=  0.000E+00 dE (1.order)= 0.000E+00
 bond charge predicted
       N       E                     dE             d eps       ncg     rms          rms(c)
DAV:   1    -0.192446381864E+03   -0.30993E-03   -0.41120E-02  6480   0.372E-01    0.108E-01
DAV:   2    -0.192448440234E+03   -0.20584E-02   -0.44794E-03  7863   0.642E-01    0.818E-01
DAV:   3    -0.192446839079E+03    0.16012E-02   -0.38546E-03  6558   0.623E-01    0.453E-01
DAV:   4    -0.192446546851E+03    0.29223E-03   -0.13800E-03  3798   0.279E-01    0.143E-01
DAV:   5    -0.192446599787E+03   -0.52937E-04   -0.23681E-04  3474   0.165E-01
