 vasp.5.4.4.18Apr17-6-g9f103f2a35 (build Feb 06 2024 13:54:16) complex          
  
 POSCAR found type information on POSCAR  Pd N  O 
 02/POSCAR found :  3 types and      40 ions
 scaLAPACK will be used

 ----------------------------------------------------------------------------- 
|                                                                             |
|  ADVICE TO THIS USER RUNNING 'VASP/VAMP'   (HEAR YOUR MASTER'S VOICE ...):  |
|                                                                             |
|      You enforced a specific xc-type in the INCAR file,                     |
|      a different type was found on the POTCAR file                          |
|          I HOPE YOU KNOW, WHAT YOU ARE  DOING                               |
|                                                                             |
 ----------------------------------------------------------------------------- 

 LDA part: xc-table for Pade appr. of Perdew
 POSCAR found type information on POSCAR  Pd N  O 
 00/POSCAR found :  3 types and      40 ions
 POSCAR found type information on POSCAR  Pd N  O 
 06/POSCAR found :  3 types and      40 ions
 Jacobian:    21.0960049830057     
 POSCAR, INCAR and KPOINTS ok, starting setup
 FFT: planning ...
 WAVECAR not read
 entering main loop
       N       E                     dE             d eps       ncg     rms          rms(c)
  Solvation turned off during non-self-consistent phase (first NELMDL steps)
DAV:   1     0.267238643385E+04    0.26724E+04   -0.17929E+05 11088   0.149E+03
DAV:   2    -0.933535940696E+01   -0.26817E+04   -0.25105E+04 12333   0.321E+02
DAV:   3    -0.184186981399E+03   -0.17485E+03   -0.15710E+03 13347   0.729E+01
DAV:   4    -0.190888603464E+03   -0.67016E+01   -0.64950E+01 12465   0.142E+01
DAV:   5    -0.191122889163E+03   -0.23429E+00   -0.23119E+00 14595   0.268E+00    0.358E+01
 Begin Solvation calculations
  rms_SCF =    2.31466551102401      tol =   0.231466551102401     
 Begin minimization
 Creating dielectric and ionic cavities
  area:      179.002928095630     
  volume:    804.786939982547     
  Acav:     9.397653725020566E-002
  Solving linear dielectric/ionic screening model
        iter                  A_solv                     rms
   LPB:       -0.595346939196768E+03   0.339662403806382E+03
   LPB:    0  -0.173995846331905E+01   0.711353528316209E+01  -0.610395E+01   0.000000E+00   0.318645E+02  -0.194499E+03
   LPB:    1  -0.504730214498295E+00   0.396600766675298E+01   0.161041E-01   0.000000E+00   0.133273E+03  -0.114963E-13
   LPB:    2  -0.321087988281420E+00   0.216416270160325E+01   0.156874E-01   0.152619E+00   0.872373E+02  -0.135247E-13
   LPB:    3  -0.218259211287545E+00   0.440686762838800E+00   0.208739E-01   0.420814E+00   0.133740E+03  -0.673508E-14
   LPB:    4  -0.168574968344728E+00   0.324081248672155E+00   0.323974E-01   0.311313E+00   0.143478E+03  -0.214357E-14
   LPB:    5  -0.145369185743448E+00   0.342911641291598E+00   0.325852E-01   0.464375E+00   0.837298E+02   0.300468E-14
   LPB:    6  -0.133596430342550E+00   0.462975067644642E+00   0.272111E-01   0.607513E+00   0.293466E+03   0.796262E-14
   LPB:    7  -0.125896774422699E+00   0.231387306453500E+00   0.268078E-01   0.663863E+00   0.467992E+02   0.108383E-13
  Finished solving LPB equations
  A_corr:   -3.192023717249365E-002
 End minimization
 Ecorr=   2202.32108393677     
 A_corr= -3.192023717249365E-002
 Ecorr_band=  -2202.35300417394     
 End Solvation calculations
RMM:   6    -0.182585589309E+03    0.85373E+01   -0.36385E+01 11134   0.126E+01    0.194E+01
 Begin Solvation calculations
  rms_SCF =    2.31466551102401      tol =   0.231466551102401     
 Begin minimization
 Creating dielectric and ionic cavities
  area:      162.484992057176     
  volume:    806.506723112164     
  Acav:     8.530462083001758E-002
  Solving linear dielectric/ionic screening model
        iter                  A_solv                     rms
   LPB:       -0.443779696973128E+01   0.361175645376280E+02
   LPB:    0  -0.422013991792847E+01   0.357314613140278E+02   0.117030E+00   0.000000E+00   0.317839E+02   0.371968E+01
   LPB:    1  -0.588247590841003E+00   0.324410381258385E+01   0.894292E-02   0.000000E+00   0.710797E+02   0.164435E-15
   LPB:    2  -0.302312296249502E+00   0.543263375281169E+00   0.148538E-01   0.473998E-01   0.160532E+03  -0.435294E-14
   LPB:    3  -0.259987981182137E+00   0.214267524172843E+00   0.244898E-01   0.897792E-01   0.234582E+03  -0.150056E-14
   LPB:    4  -0.245986625752519E+00   0.212832174106605E+00   0.299644E-01   0.270370E+00   0.242766E+03  -0.149031E-14
  Finished solving LPB equations
  A_corr:   -0.160682004922502     
 End minimization
 Ecorr=   2132.37207752534     
 A_corr= -0.160682004922502     
 Ecorr_band=  -2132.53275953026     
 End Solvation calculations
RMM:   7    -0.201350479631E+03   -0.18765E+02   -0.89079E+00 11141   0.548E+00    0.416E+01
 Begin Solvation calculations
  rms_SCF =    2.31466551102401      tol =   0.231466551102401     
 Begin minimization
 Creating dielectric and ionic cavities
  area:      160.197281428112     
  volume:    806.392430952095     
  Acav:     8.410357274975877E-002
  Solving linear dielectric/ionic screening model
        iter                  A_solv                     rms
   LPB:       -0.608102583342757E+01   0.443371818139453E+02
   LPB:    0  -0.606276004274658E+01   0.443200276281457E+02   0.338995E-01   0.000000E+00   0.317893E+02   0.107764E+01
   LPB:    1  -0.705622632650821E+00   0.417395927970053E+01   0.878895E-02   0.000000E+00   0.706003E+02  -0.838234E-16
   LPB:    2  -0.273582211698376E+00   0.848363286337560E+00   0.162807E-01   0.435367E-01   0.123379E+03  -0.207858E-14
   LPB:    3  -0.209262795572965E+00   0.248489612871329E+00   0.219651E-01   0.110347E+00   0.177443E+03  -0.195576E-14
   LPB:    4  -0.192837493913057E+00   0.223584894498980E+00   0.275406E-01   0.203672E+00   0.285909E+03   0.391319E-14
  Finished solving LPB equations
  A_corr:   -0.108733921163298     
 End minimization
 Ecorr=   2098.99790689272     
 A_corr= -0.108733921163298     
 Ecorr_band=  -2099.10664081389     
 End Solvation calculations
RMM:   8    -0.186435989853E+03    0.14914E+02   -0.86288E+00 11136   0.528E+00    0.214E+01
 Begin Solvation calculations
  rms_SCF =    2.31466551102401      tol =   0.231466551102401     
 Begin minimization
 Creating dielectric and ionic cavities
  area:      156.091715541911     
  volume:    805.507547790271     
  Acav:     8.194815065950316E-002
  Solving linear dielectric/ionic screening model
        iter                  A_solv                     rms
   LPB:       -0.244129015784557E+01   0.270474180693626E+02
   LPB:    0  -0.236066647184564E+01   0.266927032159432E+02   0.711742E-01   0.000000E+00   0.318308E+02   0.226553E+01
   LPB:    1  -0.399626991285658E+00   0.241681602435946E+01   0.881982E-02   0.000000E+00   0.707342E+02  -0.138015E-15
   LPB:    2  -0.245129236570142E+00   0.407657869289462E+00   0.157854E-01   0.440189E-01   0.140651E+03  -0.344882E-15
   LPB:    3  -0.221603922514491E+00   0.142666392922140E+00   0.223443E-01   0.107573E+00   0.293818E+03  -0.744474E-15
   LPB:    4  -0.215272811732671E+00   0.178488930117997E+00   0.293698E-01   0.204743E+00   0.422994E+03  -0.867790E-15
  Finished solving LPB equations
  A_corr:   -0.133324661073167     
 End minimization
 Ecorr=   2072.77225240582     
 A_corr= -0.133324661073167     
 Ecorr_band=  -2072.90557706689     
 End Solvation calculations
RMM:   9    -0.188256428057E+03   -0.18204E+01   -0.73513E+00 11119   0.495E+00    0.228E+01
 Begin Solvation calculations
  rms_SCF =    2.31466551102401      tol =   0.231466551102401     
 Begin minimization
 Creating dielectric and ionic cavities
  area:      151.159877997164     
  volume:    799.761328174101     
  Acav:     7.935893594851093E-002
  Solving linear dielectric/ionic screening model
        iter                  A_solv                     rms
   LPB:       -0.102578198244282E+01   0.154742179430585E+02
   LPB:    0  -0.973240341669983E+00   0.144184917316560E+02  -0.572154E-01   0.000000E+00   0.321002E+02  -0.183662E+01
   LPB:    1  -0.353407840580352E+00   0.183901802163860E+01   0.920585E-02   0.000000E+00   0.668296E+02  -0.640752E-16
   LPB:    2  -0.263884875624012E+00   0.424057401544018E+00   0.177337E-01   0.749762E-01   0.947522E+02  -0.607315E-14
   LPB:    3  -0.248733271278117E+00   0.429034304179913E+00   0.214490E-01   0.139932E+00   0.292694E+03  -0.184140E-13
   LPB:    4  -0.240979627106116E+00   0.297687183732628E+00   0.281860E-01   0.389423E+00   0.622135E+02  -0.212018E-13
   LPB:    5  -0.235031672646968E+00   0.268674429848257E+00   0.305387E-01   0.708020E+00   0.178685E+03  -0.234468E-13
   LPB:    6  -0.230082075181170E+00   0.939373890964657E-01   0.334234E-01   0.760329E+00   0.582913E+02  -0.235314E-13
  Finished solving LPB equations
  A_corr:   -0.150723139232659     
 End minimization
 Ecorr=   2039.94173109682     
 A_corr= -0.150723139232659     
 Ecorr_band=  -2040.09245423605     
 End Solvation calculations
RMM:  10    -0.187267707261E+03    0.98872E+00   -0.59998E+00 11117   0.455E+00    0.231E+01
 Begin Solvation calculations
  rms_SCF =    2.31466551102401      tol =   0.231466551102401     
 Begin minimization
 Creating dielectric and ionic cavities
  area:      150.243185164126     
  volume:    794.097931909500     
  Acav:     7.887767221116591E-002
  Solving linear dielectric/ionic screening model
        iter                  A_solv                     rms
   LPB:       -0.834144859005886E+00   0.131648821782353E+02
   LPB:    0  -0.829506112790805E+00   0.132149344352677E+02   0.169306E-01   0.000000E+00   0.323657E+02   0.547971E+00
   LPB:    1  -0.322800371158232E+00   0.114175595754227E+01   0.885461E-02   0.000000E+00   0.735653E+02   0.389035E-16
   LPB:    2  -0.283740182275809E+00   0.205134662853387E+00   0.145444E-01   0.469300E-01   0.192966E+03  -0.529655E-14
   LPB:    3  -0.275921802648121E+00   0.182490290142249E+00   0.286437E-01   0.101637E+00   0.311076E+03  -0.750291E-14
   LPB:    4  -0.272386271132579E+00   0.163357060359640E+00   0.297461E-01   0.435449E+00   0.145144E+03  -0.769215E-14
  Finished solving LPB equations
  A_corr:   -0.193508598921413     
 End minimization
 Ecorr=   2018.40695210330     
 A_corr= -0.193508598921413     
 Ecorr_band=  -2018.60046070222     
 End Solvation calculations
RMM:  11    -0.183551596751E+03    0.37161E+01   -0.37153E+00 11132   0.369E+00    0.137E+01
 Begin Solvation calculations
  rms_SCF =    2.31466551102401      tol =   0.231466551102401     
 Begin minimization
 Creating dielectric and ionic cavities
  area:      150.077123858401     
  volume:    793.529647918699     
  Acav:     7.879049002566049E-002
  Solving linear dielectric/ionic screening model
        iter                  A_solv                     rms
   LPB:       -0.342750620631185E+00   0.443114420454052E+01
   LPB:    0  -0.332330581343477E+00   0.416553376500205E+01   0.253646E-01   0.000000E+00   0.323923E+02   0.821619E+00
   LPB:    1  -0.281524870627543E+00   0.502492486940800E+00   0.920550E-02   0.000000E+00   0.690497E+02  -0.475842E-17
   LPB:    2  -0.272613137456001E+00   0.190509304160700E+00   0.192130E-01   0.840430E-01   0.126549E+03  -0.899048E-16
   LPB:    3  -0.270265466198830E+00   0.129833451942989E+00   0.260397E-01   0.194372E+00   0.968072E+02  -0.492907E-15
   LPB:    4  -0.268400079192808E+00   0.200800811115817E+00   0.363828E-01   0.568686E+00   0.303346E+03   0.268424E-14
  Finished solving LPB equations
  A_corr:   -0.189609589167148     
 End minimization
 Ecorr=   2003.96137205718     
 A_corr= -0.189609589167148     
 Ecorr_band=  -2004.15098164635     
 End Solvation calculations
RMM:  12    -0.182403338160E+03    0.11483E+01   -0.12217E+00 11131   0.207E+00    0.905E+00
 Begin Solvation calculations
  rms_SCF =    2.31466551102401      tol =   0.231466551102401     
 Begin minimization
 Creating dielectric and ionic cavities
  area:      150.391498570836     
  volume:    790.899973449217     
  Acav:     7.895553674968910E-002
  Solving linear dielectric/ionic screening model
        iter                  A_solv                     rms
   LPB:       -0.285378503872105E+00   0.191884742134593E+01
   LPB:    0  -0.280130873137033E+00   0.102449287417367E+01  -0.179660E-01   0.000000E+00   0.325156E+02  -0.584174E+00
   LPB:    1  -0.272449452220002E+00   0.197752538093756E+00   0.110377E-01   0.000000E+00   0.777936E+02  -0.900769E-17
   LPB:    2  -0.271181308121001E+00   0.145420009054313E+00   0.210338E-01   0.866336E-01   0.200281E+03   0.475586E-14
   LPB:    3  -0.270125331792974E+00   0.230532112576940E+00   0.330399E-01   0.530109E+00   0.199662E+03   0.555522E-14
   LPB:    4  -0.268752755672017E+00   0.149304552634592E+00   0.286450E-01   0.149924E+01   0.611863E+02   0.624718E-14
  Finished solving LPB equations
  A_corr:   -0.189797218922328     
 End minimization
 Ecorr=   2000.18412073342     
 A_corr= -0.189797218922328     
 Ecorr_band=  -2000.37391795234     
 End Solvation calculations
RMM:  13    -0.181934122778E+03    0.46922E+00   -0.63476E-01 11116   0.149E+00    0.632E+00
 Begin Solvation calculations
  rms_SCF =    2.31466551102401      tol =   0.231466551102401     
 Begin minimization
 Creating dielectric and ionic cavities
  area:      149.965865172133     
  volume:    790.015747450084     
  Acav:     7.873207921537004E-002
  Solving linear dielectric/ionic screening model
        iter                  A_solv                     rms
   LPB:       -0.274555395686912E+00   0.652011643441412E+00
   LPB:    0  -0.273040931282889E+00   0.408664095815503E+00   0.964544E-02   0.000000E+00   0.325570E+02   0.314027E+00
   LPB:    1  -0.269997990288710E+00   0.180838116472485E+00   0.163175E-01   0.000000E+00   0.136860E+03  -0.264084E-16
   LPB:    2  -0.269370987735740E+00   0.138211683882454E+00   0.169681E-01   0.198151E+00   0.152471E+03  -0.296597E-15
   LPB:    3  -0.268892117106833E+00   0.862522434813826E-01   0.250187E-01   0.517985E+00   0.928273E+02  -0.469884E-15
   LPB:    4  -0.268354044593971E+00   0.111292116543009E+00   0.450748E-01   0.623669E+00   0.220553E+03  -0.595284E-15
  Finished solving LPB equations
  A_corr:   -0.189621965378601     
 End minimization
 Ecorr=   1993.68719813993     
 A_corr= -0.189621965378601     
 Ecorr_band=  -1993.87682010531     
 End Solvation calculations
RMM:  14    -0.181740210109E+03    0.19391E+00   -0.15731E-01 11130   0.752E-01    0.404E+00
 Begin Solvation calculations
  rms_SCF =    2.31466551102401      tol =   0.231466551102401     
 Begin minimization
 Creating dielectric and ionic cavities
  area:      150.137258582943     
  volume:    788.712438329358     
  Acav:     7.882206075604509E-002
  Solving linear dielectric/ionic screening model
        iter                  A_solv                     rms
   LPB:       -0.274487771730298E+00   0.113082492292333E+01
   LPB:    0  -0.273456544034824E+00   0.847658611495979E+00  -0.795175E-02   0.000000E+00   0.326181E+02  -0.259371E+00
   LPB:    1  -0.269859299339339E+00   0.161573902074872E+00   0.112445E-01   0.000000E+00   0.663485E+02   0.175698E-17
   LPB:    2  -0.269220593986712E+00   0.736228384014011E-01   0.152416E-01   0.130991E+00   0.249705E+03   0.117955E-15
   LPB:    3  -0.269022926841030E+00   0.101877824476909E+00   0.243878E-01   0.193416E+00   0.115095E+03   0.338129E-15
   LPB:    4  -0.268699084340118E+00   0.494887489063820E-01   0.391588E-01   0.102033E+01   0.599773E+02   0.479950E-15
  Finished solving LPB equations
  A_corr:   -0.189877023584073     
 End minimization
 Ecorr=   1991.84390938902     
 A_corr= -0.189877023584073     
 Ecorr_band=  -1992.03378641261     
 End Solvation calculations
RMM:  15    -0.181677734500E+03    0.62476E-01   -0.36876E-02 11121   0.353E-01    0.341E+00
 Begin Solvation calculations
  rms_SCF =    2.31466551102401      tol =   0.231466551102401     
 Begin minimization
 Creating dielectric and ionic cavities
  area:      150.517011027044     
  volume:    786.930834959344     
  Acav:     7.902143078919795E-002
  Solving linear dielectric/ionic screening model
        iter                  A_solv                     rms
   LPB:       -0.277565917651036E+00   0.477628915834583E+00
   LPB:    0  -0.276955404256771E+00   0.496404403598006E+00   0.611051E-02   0.000000E+00   0.327017E+02   0.199824E+00
   LPB:    1  -0.272938593306378E+00   0.308331474338692E+00   0.121096E-01   0.000000E+00   0.206152E+03  -0.764344E-17
   LPB:    2  -0.272391534990628E+00   0.477768515015966E-01   0.127149E-01   0.129708E+00   0.916292E+02   0.642861E-15
   LPB:    3  -0.272171705868782E+00   0.494168306021443E-01   0.290115E-01   0.176115E+00   0.192503E+03   0.738336E-15
   LPB:    4  -0.271938875530575E+00   0.745828173945696E-01   0.384706E-01   0.798720E+00   0.697794E+02   0.811631E-15
  Finished solving LPB equations
  A_corr:   -0.192917444741377     
 End minimization
 Ecorr=   1986.75719901592     
 A_corr= -0.192917444741377     
 Ecorr_band=  -1986.95011646067     
 End Solvation calculations
RMM:  16    -0.181674748016E+03    0.29865E-02   -0.43645E-02 11125   0.397E-01    0.331E+00
 Begin Solvation calculations
  rms_SCF =    2.31466551102401      tol =   0.231466551102401     
 Begin minimization
 Creating dielectric and ionic cavities
  area:      151.417873151149     
  volume:    783.172489604279     
  Acav:     7.949438340435326E-002
  Solving linear dielectric/ionic screening model
        iter                  A_solv                     rms
   LPB:       -0.304498401756926E+00   0.960584526367049E+00
   LPB:    0  -0.304473024278640E+00   0.100534413470693E+01   0.124247E-02   0.000000E+00   0.328779E+02   0.408499E-01
   LPB:    1  -0.284028571977318E+00   0.476992153076212E+00   0.144797E-01   0.000000E+00   0.150333E+03   0.904034E-18
   LPB:    2  -0.281701153764921E+00   0.136548328370596E+00   0.146456E-01   0.112551E+00   0.896237E+02  -0.193813E-14
   LPB:    3  -0.281037575364574E+00   0.105491233195523E+00   0.213945E-01   0.195175E+00   0.207531E+03  -0.342146E-14
   LPB:    4  -0.280677743796021E+00   0.116254060806395E+00   0.231420E-01   0.501310E+00   0.100103E+03  -0.367385E-14
  Finished solving LPB equations
  A_corr:   -0.201183360391667     
 End minimization
 Ecorr=   1980.33010468830     
 A_corr= -0.201183360391667     
 Ecorr_band=  -1980.53128804869     
 End Solvation calculations
RMM:  17    -0.181637776523E+03    0.36971E-01   -0.62569E-02 11123   0.455E-01    0.266E+00
 Begin Solvation calculations
  rms_SCF =    2.31466551102401      tol =   0.231466551102401     
 Begin minimization
 Creating dielectric and ionic cavities
  area:      152.099149415691     
  volume:    780.687625486142     
  Acav:     7.985205344323792E-002
  Solving linear dielectric/ionic screening model
        iter                  A_solv                     rms
   LPB:       -0.306145245615836E+00   0.892340725195834E+00
   LPB:    0  -0.305982762768991E+00   0.971518298546703E+00   0.313833E-02   0.000000E+00   0.329944E+02   0.103547E+00
   LPB:    1  -0.291250254062178E+00   0.279401560230239E+00   0.153132E-01   0.000000E+00   0.113802E+03   0.174058E-17
   LPB:    2  -0.289555540296070E+00   0.143074256494076E+00   0.156182E-01   0.112786E+00   0.153462E+03  -0.140004E-14
   LPB:    3  -0.288851522549178E+00   0.115534987075011E+00   0.258413E-01   0.251074E+00   0.818740E+02  -0.155813E-14
   LPB:    4  -0.288371190510485E+00   0.141453439633571E+00   0.279140E-01   0.631614E+00   0.218988E+03  -0.490541E-15
  Finished solving LPB equations
  A_corr:   -0.208519137067247     
 End minimization
 Ecorr=   1974.08021621617     
 A_corr= -0.208519137067247     
 Ecorr_band=  -1974.28873535324     
 End Solvation calculations
RMM:  18    -0.181595082421E+03    0.42694E-01   -0.32621E-02 11144   0.325E-01    0.153E+00
 Begin Solvation calculations
  rms_SCF =    1.74676834450527      tol =   0.174676834450527     
 Begin minimization
 Creating dielectric and ionic cavities
  area:      152.351636164470     
  volume:    779.847540358485     
  Acav:     7.998460898634677E-002
  Solving linear dielectric/ionic screening model
        iter                  A_solv                     rms
   LPB:       -0.295068298554491E+00   0.367478476264370E+00
   LPB:    0  -0.294865398412535E+00   0.406430161659852E+00   0.350491E-02   0.000000E+00   0.330337E+02   0.115780E+00
   LPB:    1  -0.292298823720341E+00   0.102944794566938E+00   0.155656E-01   0.000000E+00   0.116122E+03   0.972561E-18
   LPB:    2  -0.291995612207226E+00   0.920575795054789E-01   0.164417E-01   0.111844E+00   0.221229E+03  -0.859927E-15
   LPB:    3  -0.291689969042973E+00   0.118488353673502E+00   0.350205E-01   0.473253E+00   0.557122E+02  -0.840779E-15
   LPB:    4  -0.291289157915050E+00   0.105041708830859E+00   0.321398E-01   0.142891E+01   0.901684E+02  -0.756930E-15
  Finished solving LPB equations
  A_corr:   -0.211304548928703     
 End minimization
 Ecorr=   1969.41972082710     
 A_corr= -0.211304548928703     
 Ecorr_band=  -1969.63102537603     
 End Solvation calculations
RMM:  19    -0.181586293736E+03    0.87887E-02   -0.14150E-02 11133   0.223E-01    0.126E+00
 Begin Solvation calculations
  rms_SCF =    1.74676834450527      tol =   0.174676834450527     
 Begin minimization
 Creating dielectric and ionic cavities
  area:      152.726684037121     
  volume:    778.740727402781     
  Acav:     8.018150911948847E-002
  Solving linear dielectric/ionic screening model
        iter                  A_solv                     rms
   LPB:       -0.302292930328644E+00   0.688154427620982E+00
   LPB:    0  -0.302292361008201E+00   0.692240792114621E+00   0.185513E-03   0.000000E+00   0.330856E+02   0.613781E-02
   LPB:    1  -0.296787871201390E+00   0.170967449462135E+00   0.147644E-01   0.000000E+00   0.960696E+02   0.382200E-18
   LPB:    2  -0.296257944672378E+00   0.948924738592514E-01   0.132109E-01   0.107592E+00   0.232751E+03  -0.151131E-14
   LPB:    3  -0.296080940001087E+00   0.654733782260319E-01   0.216537E-01   0.203784E+00   0.837187E+02  -0.141959E-14
   LPB:    4  -0.295924298666374E+00   0.720242697337598E-01   0.301451E-01   0.635679E+00   0.101120E+03  -0.200329E-14
  Finished solving LPB equations
  A_corr:   -0.215742789546886     
 End minimization
 Ecorr=   1966.22832595416     
 A_corr= -0.215742789546886     
 Ecorr_band=  -1966.44406874371     
 End Solvation calculations
RMM:  20    -0.181578752748E+03    0.75410E-02   -0.72345E-03 11109   0.149E-01    0.879E-01
 Begin Solvation calculations
  rms_SCF =    1.07749969411036      tol =   0.107749969411036     
 Begin minimization
 Creating dielectric and ionic cavities
  area:      153.125301987696     
  volume:    777.762781104880     
  Acav:     8.039078354354057E-002
  Solving linear dielectric/ionic screening model
        iter                  A_solv                     rms
   LPB:       -0.309434918756417E+00   0.623821942113594E+00
   LPB:    0  -0.309281333266987E+00   0.670968162305386E+00   0.304488E-02   0.000000E+00   0.331315E+02   0.100881E+00
   LPB:    1  -0.302481551996099E+00   0.155006196488213E+00   0.154067E-01   0.000000E+00   0.117623E+03  -0.659122E-17
   LPB:    2  -0.301833107432000E+00   0.905104180027131E-01   0.157395E-01   0.933457E-01   0.170993E+03  -0.165833E-14
   LPB:    3  -0.301578131842114E+00   0.644157132601498E-01   0.249934E-01   0.247624E+00   0.749073E+02  -0.148689E-14
   LPB:    4  -0.301366844157891E+00   0.863909727021503E-01   0.321107E-01   0.644989E+00   0.222673E+03  -0.169516E-14
  Finished solving LPB equations
  A_corr:   -0.220976060614350     
 End minimization
 Ecorr=   1962.36308215492     
 A_corr= -0.220976060614350     
 Ecorr_band=  -1962.58405821554     
 End Solvation calculations
RMM:  21    -0.181574739874E+03    0.40129E-02   -0.53522E-03 11080   0.133E-01    0.579E-01
 Begin Solvation calculations
  rms_SCF =   0.719533629430173      tol =   7.195336294301732E-002
 Begin minimization
 Creating dielectric and ionic cavities
  area:      153.346924815560     
  volume:    777.287314852062     
  Acav:     8.050713552816892E-002
  Solving linear dielectric/ionic screening model
        iter                  A_solv                     rms
   LPB:       -0.307441943785910E+00   0.465573947276711E+00
   LPB:    0  -0.307441896285937E+00   0.464363867155039E+00  -0.535297E-04   0.000000E+00   0.331538E+02  -0.177471E-02
   LPB:    1  -0.304761990930644E+00   0.107833081707938E+00   0.149777E-01   0.000000E+00   0.101262E+03  -0.995555E-19
   LPB:    2  -0.304493275250864E+00   0.590934975213146E-01   0.151239E-01   0.993014E-01   0.167390E+03   0.334765E-15
   LPB:    3  -0.304348352733870E+00   0.601907914193548E-01   0.314562E-01   0.259298E+00   0.651205E+02   0.173546E-15
   LPB:    4  -0.304177230896043E+00   0.896033518777239E-01   0.344560E-01   0.107798E+01   0.136225E+03  -0.411693E-15
   LPB:    5  -0.304027170430521E+00   0.623217314574209E-01   0.227022E-01   0.133094E+01   0.786138E+02  -0.124686E-14
  Finished solving LPB equations
  A_corr:   -0.223520034902352     
 End minimization
 Ecorr=   1960.15180343972     
 A_corr= -0.223520034902352     
 Ecorr_band=  -1960.37532347462     
 End Solvation calculations
RMM:  22    -0.181575784543E+03   -0.10447E-02   -0.33145E-03 11056   0.108E-01    0.767E-01
 Begin Solvation calculations
  rms_SCF =   0.719533629430173      tol =   7.195336294301732E-002
 Begin minimization
 Creating dielectric and ionic cavities
  area:      153.730941942149     
  volume:    776.521042632393     
  Acav:     8.070874451962810E-002
  Solving linear dielectric/ionic screening model
        iter                  A_solv                     rms
   LPB:       -0.318853890624235E+00   0.794574682038903E+00
   LPB:    0  -0.318848104356122E+00   0.808010858648413E+00   0.590490E-03   0.000000E+00   0.331897E+02   0.195982E-01
   LPB:    1  -0.310470759200577E+00   0.202900639627123E+00   0.149223E-01   0.000000E+00   0.104288E+03   0.322773E-18
   LPB:    2  -0.309686548585303E+00   0.731414286092013E-01   0.141627E-01   0.986315E-01   0.149784E+03  -0.249449E-14
   LPB:    3  -0.309523462269703E+00   0.328997412296218E-01   0.215409E-01   0.136731E+00   0.101540E+03  -0.242365E-14
   LPB:    4  -0.309428772330019E+00   0.474679338473874E-01   0.329963E-01   0.379039E+00   0.225891E+03  -0.268654E-14
  Finished solving LPB equations
  A_corr:   -0.228720027810391     
 End minimization
 Ecorr=   1957.11154103402     
 A_corr= -0.228720027810391     
 Ecorr_band=  -1957.34026106183     
 End Solvation calculations
RMM:  23    -0.181573116460E+03    0.26681E-02   -0.19730E-03 11069   0.822E-02    0.464E-01
 Begin Solvation calculations
  rms_SCF =   0.719533629430173      tol =   7.195336294301732E-002
 Begin minimization
 Creating dielectric and ionic cavities
  area:      153.847223341471     
  volume:    776.351728246618     
  Acav:     8.076979225427225E-002
  Solving linear dielectric/ionic screening model
        iter                  A_solv                     rms
   LPB:       -0.312584062070303E+00   0.368860123847375E+00
   LPB:    0  -0.312583141857710E+00   0.364672566147073E+00  -0.235454E-03   0.000000E+00   0.331976E+02  -0.781651E-02
   LPB:    1  -0.311361234461821E+00   0.796769298817636E-01   0.146849E-01   0.000000E+00   0.809500E+02   0.923059E-19
   LPB:    2  -0.311231839874872E+00   0.492395990238116E-01   0.141091E-01   0.110217E+00   0.218663E+03   0.497103E-15
   LPB:    3  -0.311162504804106E+00   0.442242053207299E-01   0.269153E-01   0.280891E+00   0.735701E+02   0.590710E-15
   LPB:    4  -0.311076908688803E+00   0.545669593764170E-01   0.331172E-01   0.100334E+01   0.951673E+02   0.911423E-15
  Finished solving LPB equations
  A_corr:   -0.230307116434531     
 End minimization
 Ecorr=   1955.72184699585     
 A_corr= -0.230307116434531     
 Ecorr_band=  -1955.95215411229     
 End Solvation calculations
RMM:  24    -0.181573533555E+03   -0.41710E-03   -0.80085E-04 10625   0.530E-02    0.528E-01
 Begin Solvation calculations
  rms_SCF =   0.719533629430173      tol =   7.195336294301732E-002
 Begin minimization
 Creating dielectric and ionic cavities
  area:      153.994209743921     
  volume:    776.185643017723     
  Acav:     8.084696011555857E-002
  Solving linear dielectric/ionic screening model
        iter                  A_solv                     rms
   LPB:       -0.316335253764908E+00   0.557427283055353E+00
   LPB:    0  -0.316310490125838E+00   0.539602888921495E+00  -0.122129E-02   0.000000E+00   0.332054E+02  -0.405533E-01
   LPB:    1  -0.313753278660624E+00   0.104300777359619E+00   0.144436E-01   0.000000E+00   0.825283E+02  -0.678713E-18
   LPB:    2  -0.313542206385006E+00   0.657750523560931E-01   0.131915E-01   0.903746E-01   0.260677E+03   0.123741E-15
   LPB:    3  -0.313474025418977E+00   0.299164477083542E-01   0.191693E-01   0.222290E+00   0.858063E+02   0.219157E-15
   LPB:    4  -0.313414680959295E+00   0.420225974688733E-01   0.334054E-01   0.499466E+00   0.116700E+03   0.427066E-15
  Finished solving LPB equations
  A_corr:   -0.232567720843736     
 End minimization
 Ecorr=   1954.87791840711     
 A_corr= -0.232567720843736     
 Ecorr_band=  -1955.11048612795     
 End Solvation calculations
RMM:  25    -0.181573623336E+03   -0.89781E-04   -0.50170E-04  8964   0.406E-02
 Begin Solvation calculations
  rms_SCF =   0.719533629430173      tol =   7.195336294301732E-002
 Begin minimization
 Creating dielectric and ionic cavities
  area:      154.209087821398     
  volume:    775.932101191163     
  Acav:     8.095977110623401E-002
  Solving linear dielectric/ionic screening model
        iter                  A_solv                     rms
   LPB:       -0.322477750190159E+00   0.754881683763046E+00
   LPB:    0  -0.322448045830967E+00   0.733777897500479E+00  -0.133734E-02   0.000000E+00   0.332173E+02  -0.444229E-01
   LPB:    1  -0.317678146921454E+00   0.144578803118347E+00   0.145666E-01   0.000000E+00   0.811159E+02  -0.144579E-17
   LPB:    2  -0.317249577069904E+00   0.896557785549000E-01   0.134864E-01   0.970455E-01   0.250991E+03  -0.118457E-14
   LPB:    3  -0.317121996150250E+00   0.412452710805833E-01   0.184595E-01   0.217489E+00   0.911775E+02  -0.118420E-14
   LPB:    4  -0.317039278283188E+00   0.495123239118395E-01   0.274216E-01   0.436457E+00   0.153347E+03  -0.141261E-14
  Finished solving LPB equations
  A_corr:   -0.236079507176954     
 End minimization
 Ecorr=   1953.57546468736     
 A_corr= -0.236079507176954     
 Ecorr_band=  -1953.81154419453     
 End Solvation calculations
   1 F= -.18157362E+03 E0= -.18156179E+03  d E =-.181574E+03
quench:  g(F)=  0.000E+00 g(S)=  0.000E+00 dE (1.order)= 0.000E+00
 bond charge predicted
       N       E                     dE             d eps       ncg     rms          rms(c)
 Begin Solvation calculations
  rms_SCF =   0.719533629430173      tol =   7.195336294301732E-002
 Begin minimization
 Creating dielectric and ionic cavities
  area:      154.217296232645     
  volume:    775.926787799220     
  Acav:     8.096408052213867E-002
  Solving linear dielectric/ionic screening model
        iter                  A_solv                     rms
   LPB:       -0.317178195462425E+00   0.496346897629989E-01
   LPB:    0  -0.317178195457904E+00   0.496531134638456E-01  -0.521757E-06   0.000000E+00   0.332176E+02  -0.173315E-04
   LPB:    1  -0.317033310895774E+00   0.342358026674193E-01   0.153104E-01   0.000000E+00   0.379495E+03   0.165202E-20
   LPB:    2  -0.316997713881845E+00   0.423294809934332E-01   0.228375E-01   0.164714E+00   0.160166E+03  -0.445419E-16
   LPB:    3  -0.316948101022261E+00   0.284025818163954E-01   0.332842E-01   0.956291E+00   0.160823E+03  -0.227862E-15
   LPB:    4  -0.316893547297011E+00   0.528323657408773E-01   0.331457E-01   0.110418E+01   0.132252E+03  -0.489224E-15
  Finished solving LPB equations
  A_corr:   -0.235929466774872     
 End minimization
 Ecorr=   1953.68198445274     
 A_corr= -0.235929466774872     
 Ecorr_band=  -1953.91791391951     
 End Solvation calculations
DAV:   1    -0.181573968617E+03   -0.43506E-03   -0.95128E-03 11571   0.224E-01    0.507E-01
 Begin Solvation calculations
  rms_SCF =   0.719533629430173      tol =   7.195336294301732E-002
 Begin minimization
 Creating dielectric and ionic cavities
  area:      154.226887275602     
  volume:    775.747264502688     
  Acav:     8.096911581969096E-002
  Solving linear dielectric/ionic screening model
        iter                  A_solv                     rms
   LPB:       -0.439513746716930E+00   0.618091639685128E+01
   LPB:    0  -0.439086853420947E+00   0.615800225218618E+01  -0.506916E-02   0.000000E+00   0.332260E+02  -0.168428E+00
   LPB:    1  -0.336941265800089E+00   0.687070073747740E+00   0.894815E-02   0.000000E+00   0.670899E+02   0.267501E-17
   LPB:    2  -0.325045257099611E+00   0.122430216014174E+00   0.153989E-01   0.676746E-01   0.138602E+03  -0.884544E-15
   LPB:    3  -0.323627398202575E+00   0.436453858773079E-01   0.210543E-01   0.871727E-01   0.224895E+03  -0.106328E-14
   LPB:    4  -0.323253545119931E+00   0.437710979457414E-01   0.264900E-01   0.209568E+00   0.259821E+03  -0.143631E-14
  Finished solving LPB equations
  A_corr:   -0.242284429300241     
 End minimization
 Ecorr=   1951.19894710414     
 A_corr= -0.242284429300241     
 Ecorr_band=  -1951.44123153344     
 End Solvation calculations
RMM:   2    -0.182098101900E+03   -0.52413E+00   -0.71953E-02 11101   0.453E-01    0.866E+00
 Begin Solvation calculations
  rms_SCF =   0.719533629430173      tol =   7.195336294301732E-002
 Begin minimization
 Creating dielectric and ionic cavities
  area:      154.463075799813     
  volume:    775.825066262608     
  Acav:     8.109311479490162E-002
  Solving linear dielectric/ionic screening model
        iter                  A_solv                     rms
   LPB:       -0.405104999110469E+00   0.546354882831771E+01
   LPB:    0  -0.404779426209851E+00   0.544832223509937E+01   0.442715E-02   0.000000E+00   0.332223E+02   0.147080E+00
   LPB:    1  -0.327238783730882E+00   0.513187944998177E+00   0.854168E-02   0.000000E+00   0.714878E+02   0.681450E-17
   LPB:    2  -0.320675700162482E+00   0.838976746896222E-01   0.158310E-01   0.456682E-01   0.130719E+03   0.478926E-15
   LPB:    3  -0.319993672058884E+00   0.202635239227939E-01   0.198457E-01   0.828964E-01   0.267246E+03   0.598395E-15
   LPB:    4  -0.319871742496319E+00   0.115236741085715E-01   0.239699E-01   0.148016E+00   0.787686E+03   0.332718E-15
  Finished solving LPB equations
  A_corr:   -0.238778627701417     
 End minimization
 Ecorr=   1952.26152443914     
 A_corr= -0.238778627701417     
 Ecorr_band=  -1952.50030306684     
 End Solvation calculations
RMM:   3    -0.181585839450E+03    0.51226E+00   -0.55000E-02 11125   0.427E-01    0.778E-01
 Begin Solvation calculations
  rms_SCF =   0.719533629430173      tol =   7.195336294301732E-002
 Begin minimization
 Creating dielectric and ionic cavities
  area:      154.402572483548     
  volume:    775.745590601513     
  Acav:     8.106135055386277E-002
  Solving linear dielectric/ionic screening model
        iter                  A_solv                     rms
   LPB:       -0.321178116525113E+00   0.262681858013859E+00
   LPB:    0  -0.321108938793050E+00   0.193609108946954E+00  -0.204060E-02   0.000000E+00   0.332261E+02  -0.678012E-01
   LPB:    1  -0.320831463156772E+00   0.422844865826287E-01   0.134893E-01   0.000000E+00   0.717927E+02  -0.205863E-17
   LPB:    2  -0.320790441815870E+00   0.204416223743466E-01   0.147263E-01   0.135419E+00   0.270747E+03  -0.549223E-15
   LPB:    3  -0.320778450201186E+00   0.179191697389989E-01   0.196019E-01   0.219616E+00   0.160905E+03  -0.684301E-15
   LPB:    4  -0.320763348628380E+00   0.267633097480200E-01   0.390613E-01   0.631970E+00   0.129957E+03  -0.754685E-15
  Finished solving LPB equations
  A_corr:   -0.239701998074517     
 End minimization
 Ecorr=   1952.14118120730     
 A_corr= -0.239701998074517     
 Ecorr_band=  -1952.38088320537     
 End Solvation calculations
RMM:   4    -0.181574610243E+03    0.11229E-01   -0.44118E-03 11076   0.148E-01    0.487E-01
 Begin Solvation calculations
  rms_SCF =   0.719533629430173      tol =   7.195336294301732E-002
 Begin minimization
 Creating dielectric and ionic cavities
  area:      154.470102658576     
  volume:    775.743213694291     
  Acav:     8.109680389575223E-002
  Solving linear dielectric/ionic screening model
        iter                  A_solv                     rms
   LPB:       -0.324264087102295E+00   0.486773897960351E+00
   LPB:    0  -0.324262865937083E+00   0.488346327992248E+00   0.271120E-03   0.000000E+00   0.332262E+02   0.900829E-02
   LPB:    1  -0.322868217829947E+00   0.114154267199956E+00   0.133479E-01   0.000000E+00   0.652054E+02   0.462291E-18
   LPB:    2  -0.322710736160787E+00   0.392957601831128E-01   0.117750E-01   0.128002E+00   0.250556E+03   0.143809E-15
   LPB:    3  -0.322671098020967E+00   0.110793844251181E-01   0.196997E-01   0.150448E+00   0.127955E+03   0.160107E-15
   LPB:    4  -0.322649913135730E+00   0.157904255262764E-01   0.326537E-01   0.322434E+00   0.155832E+03   0.101710E-15
  Finished solving LPB equations
  A_corr:   -0.241553109239978     
 End minimization
 Ecorr=   1951.25427404692     
 A_corr= -0.241553109239978     
 Ecorr_band=  -1951.49582715616     
 End Solvation calculations
RMM:   5    -0.181574249679E+03    0.36056E-03   -0.10088E-03 10871   0.589E-02    0.416E-01
 Begin Solvation calculations
  rms_SCF =   0.651712738359123      tol =   6.517127383591230E-002
 Begin minimization
 Creating dielectric and ionic cavities
  area:      154.544333923987     
  volume:    775.676624037394     
  Acav:     8.113577531009306E-002
  Solving linear dielectric/ionic screening model
        iter                  A_solv                     rms
   LPB:       -0.324821822860708E+00   0.322243243334041E+00
   LPB:    0  -0.324784377071536E+00   0.290465971634303E+00  -0.150126E-02   0.000000E+00   0.332293E+02  -0.498858E-01
   LPB:    1  -0.324141721777805E+00   0.569605259093498E-01   0.141619E-01   0.000000E+00   0.728899E+02  -0.259114E-17
   LPB:    2  -0.324081625561725E+00   0.334970839070889E-01   0.132438E-01   0.999950E-01   0.244373E+03  -0.133587E-15
   LPB:    3  -0.324060470747569E+00   0.177584535930280E-01   0.205179E-01   0.227218E+00   0.868094E+02  -0.195965E-15
   LPB:    4  -0.324041877421753E+00   0.241817267363704E-01   0.318991E-01   0.565331E+00   0.106702E+03  -0.265661E-15
  Finished solving LPB equations
  A_corr:   -0.242906102111660     
 End minimization
 Ecorr=   1950.94379607678     
 A_corr= -0.242906102111660     
 Ecorr_band=  -1951.18670217889     
 End Solvation calculations
RMM:   6    -0.181574424717E+03   -0.17504E-03   -0.51246E-04  9263   0.438E-02    0.441E-01
 Begin Solvation calculations
  rms_SCF =   0.651712738359123      tol =   6.517127383591230E-002
 Begin minimization
 Creating dielectric and ionic cavities
  area:      154.609094652665     
  volume:    775.659628181969     
  Acav:     8.116977469264920E-002
  Solving linear dielectric/ionic screening model
        iter                  A_solv                     rms
   LPB:       -0.326081652263948E+00   0.268064070564098E+00
   LPB:    0  -0.326078816765682E+00   0.262848097722884E+00  -0.413108E-03   0.000000E+00   0.332301E+02  -0.137276E-01
   LPB:    1  -0.325503876668620E+00   0.451556469247168E-01   0.143651E-01   0.000000E+00   0.792015E+02  -0.821353E-18
   LPB:    2  -0.325458671102787E+00   0.333388115363653E-01   0.137898E-01   0.819071E-01   0.267836E+03  -0.615247E-16
   LPB:    3  -0.325442022819218E+00   0.152242987078245E-01   0.194569E-01   0.261012E+00   0.764109E+02  -0.714403E-16
   LPB:    4  -0.325424246678033E+00   0.203394161969592E-01   0.371332E-01   0.559474E+00   0.106802E+03  -0.115290E-15
  Finished solving LPB equations
  A_corr:   -0.244254471985384     
 End minimization
 Ecorr=   1950.41744788811     
 A_corr= -0.244254471985384     
 Ecorr_band=  -1950.66170236010     
 End Solvation calculations
RMM:   7    -0.181574992827E+03   -0.56811E-03   -0.18136E-04  6208   0.274E-02    0.471E-01
 Begin Solvation calculations
  rms_SCF =   0.651712738359123      tol =   6.517127383591230E-002
 Begin minimization
 Creating dielectric and ionic cavities
  area:      154.719544633848     
  volume:    775.608499651735     
  Acav:     8.122776093277005E-002
  Solving linear dielectric/ionic screening model
        iter                  A_solv                     rms
   LPB:       -0.330334732724657E+00   0.565540549281979E+00
   LPB:    0  -0.330287732330830E+00   0.537025745889723E+00  -0.168184E-02   0.000000E+00   0.332325E+02  -0.558917E-01
   LPB:    1  -0.328317246331826E+00   0.111112773463364E+00   0.138158E-01   0.000000E+00   0.693558E+02   0.235279E-17
   LPB:    2  -0.328130545634797E+00   0.525657085585004E-01   0.123174E-01   0.106274E+00   0.260914E+03  -0.592882E-15
   LPB:    3  -0.328083092284974E+00   0.190229662046018E-01   0.178226E-01   0.175659E+00   0.110824E+03  -0.744868E-15
   LPB:    4  -0.328058020876062E+00   0.249690060053970E-01   0.281424E-01   0.334597E+00   0.127812E+03  -0.726324E-15
  Finished solving LPB equations
  A_corr:   -0.246830259943292     
 End minimization
 Ecorr=   1949.72939379840     
 A_corr= -0.246830259943292     
 Ecorr_band=  -1949.97622405834     
 End Solvation calculations
RMM:   8    -0.181575184160E+03   -0.19133E-03   -0.12966E-04  6272   0.215E-02    0.444E-01
 Begin Solvation calculations
  rms_SCF =   0.651712738359123      tol =   6.517127383591230E-002
 Begin minimization
 Creating dielectric and ionic cavities
  area:      154.848787761774     
  volume:    775.570720851936     
  Acav:     8.129561357493124E-002
  Solving linear dielectric/ionic screening model
        iter                  A_solv                     rms
   LPB:       -0.334843941097357E+00   0.714505126770573E+00
   LPB:    0  -0.334799399304562E+00   0.690712109447660E+00  -0.163722E-02   0.000000E+00   0.332343E+02  -0.544116E-01
   LPB:    1  -0.331741776050855E+00   0.146120020893051E+00   0.136254E-01   0.000000E+00   0.673638E+02   0.703999E-18
   LPB:    2  -0.331434004953548E+00   0.659805408000776E-01   0.122464E-01   0.111992E+00   0.256479E+03  -0.105094E-15
   LPB:    3  -0.331350811917410E+00   0.226777175146477E-01   0.185111E-01   0.178827E+00   0.113270E+03  -0.664546E-16
   LPB:    4  -0.331307064538927E+00   0.303728751053296E-01   0.288897E-01   0.336942E+00   0.138007E+03  -0.234821E-15
  Finished solving LPB equations
  A_corr:   -0.250011450963996     
 End minimization
 Ecorr=   1948.76884666870     
 A_corr= -0.250011450963996     
 Ecorr_band=  -1949.01885811966     
 End Solvation calculations
RMM:   9    -0.181575498696E+03   -0.31454E-03   -0.17573E-04  6415   0.224E-02    0.403E-01
 Begin Solvation calculations
  rms_SCF =   0.651712738359123      tol =   6.517127383591230E-002
 Begin minimization
 Creating dielectric and ionic cavities
  area:      154.984487658528     
  volume:    775.539578316090     
  Acav:     8.136685602072727E-002
  Solving linear dielectric/ionic screening model
        iter                  A_solv                     rms
   LPB:       -0.339083666955884E+00   0.791581171916804E+00
   LPB:    0  -0.339027737032495E+00   0.765729333762505E+00  -0.183457E-02   0.000000E+00   0.332357E+02  -0.609733E-01
   LPB:    1  -0.335443129348461E+00   0.163554720752067E+00   0.134530E-01   0.000000E+00   0.660299E+02  -0.249701E-17
   LPB:    2  -0.335073436726173E+00   0.696202320426045E-01   0.121043E-01   0.114625E+00   0.253979E+03  -0.877246E-15
   LPB:    3  -0.334971955536935E+00   0.241445692756073E-01   0.191814E-01   0.173222E+00   0.114038E+03  -0.100007E-14
   LPB:    4  -0.334914413595105E+00   0.341733824090525E-01   0.304468E-01   0.357222E+00   0.130452E+03  -0.113602E-14
  Finished solving LPB equations
  A_corr:   -0.253547557574378     
 End minimization
 Ecorr=   1947.73374056540     
 A_corr= -0.253547557574378     
 Ecorr_band=  -1947.98728812297     
 End Solvation calculations
RMM:  10    -0.181575682506E+03   -0.18381E-03   -0.15999E-04  6440   0.204E-02    0.319E-01
 Begin Solvation calculations
  rms_SCF =   0.552452822014933      tol =   5.524528220149331E-002
 Begin minimization
 Creating dielectric and ionic cavities
  area:      155.030096767280     
  volume:    775.531174733069     
  Acav:     8.139080080282224E-002
  Solving linear dielectric/ionic screening model
        iter                  A_solv                     rms
   LPB:       -0.336823335070602E+00   0.312475658408056E+00
   LPB:    0  -0.336814124235942E+00   0.304795407571538E+00  -0.744491E-03   0.000000E+00   0.332361E+02  -0.247440E-01
   LPB:    1  -0.336309857880204E+00   0.681590482165060E-01   0.130336E-01   0.000000E+00   0.633532E+02  -0.320562E-19
   LPB:    2  -0.336249819143140E+00   0.278109946606338E-01   0.123139E-01   0.126021E+00   0.230026E+03   0.278032E-15
   LPB:    3  -0.336215965946964E+00   0.142096483875618E-01   0.309028E-01   0.224680E+00   0.814521E+02   0.315822E-15
   LPB:    4  -0.336171107284532E+00   0.208800113494673E-01   0.445650E-01   0.918863E+00   0.812070E+02   0.396841E-15
  Finished solving LPB equations
  A_corr:   -0.254780306481710     
 End minimization
 Ecorr=   1947.27128579500     
 A_corr= -0.254780306481710     
 Ecorr_band=  -1947.52606610149     
 End Solvation calculations
RMM:  11    -0.181576144111E+03   -0.46160E-03   -0.52354E-05  6143   0.130E-02    0.386E-01
 Begin Solvation calculations
  rms_SCF =   0.552452822014933      tol =   5.524528220149331E-002
 Begin minimization
 Creating dielectric and ionic cavities
  area:      155.094333025507     
  volume:    775.525765334129     
  Acav:     8.142452483839126E-002
  Solving linear dielectric/ionic screening model
        iter                  A_solv                     rms
   LPB:       -0.339778048922219E+00   0.538471456364015E+00
   LPB:    0  -0.339753129923480E+00   0.523750803754689E+00  -0.122454E-02   0.000000E+00   0.332364E+02  -0.406993E-01
   LPB:    1  -0.338440367085557E+00   0.109972611838306E+00   0.123190E-01   0.000000E+00   0.620490E+02   0.217348E-18
   LPB:    2  -0.338287255601808E+00   0.309360536581476E-01   0.115723E-01   0.124158E+00   0.254351E+03  -0.284555E-15
   LPB:    3  -0.338257655180051E+00   0.108751908672958E-01   0.200745E-01   0.111446E+00   0.137107E+03  -0.316617E-15
   LPB:    4  -0.338238394299931E+00   0.200415941227688E-01   0.376420E-01   0.347016E+00   0.920665E+02  -0.271343E-15
  Finished solving LPB equations
  A_corr:   -0.256813869461540     
 End minimization
 Ecorr=   1946.71801621016     
 A_corr= -0.256813869461540     
 Ecorr_band=  -1946.97483007962     
 End Solvation calculations
RMM:  12    -0.181575766269E+03    0.37784E-03   -0.67294E-05  6137   0.118E-02    0.240E-01
 Begin Solvation calculations
  rms_SCF =   0.411094582000660      tol =   4.110945820006601E-002
 Begin minimization
 Creating dielectric and ionic cavities
  area:      155.147445130670     
  volume:    775.520547000161     
  Acav:     8.145240869360160E-002
  Solving linear dielectric/ionic screening model
        iter                  A_solv                     rms
   LPB:       -0.341187312384855E+00   0.475914374987682E+00
   LPB:    0  -0.341162244484543E+00   0.460670115175729E+00  -0.122819E-02   0.000000E+00   0.332366E+02  -0.408209E-01
   LPB:    1  -0.340179048579981E+00   0.947754976288674E-01   0.121895E-01   0.000000E+00   0.613355E+02  -0.108725E-18
   LPB:    2  -0.340059467103883E+00   0.292200282048728E-01   0.118541E-01   0.125067E+00   0.240960E+03   0.919677E-16
   LPB:    3  -0.340030849599950E+00   0.106937885367463E-01   0.217873E-01   0.130206E+00   0.120169E+03   0.102976E-15
   LPB:    4  -0.340009566785488E+00   0.193283596236116E-01   0.384258E-01   0.421674E+00   0.936140E+02   0.572872E-16
  Finished solving LPB equations
  A_corr:   -0.258557158091887     
 End minimization
 Ecorr=   1946.22732478009     
 A_corr= -0.258557158091887     
 Ecorr_band=  -1946.48588193818     
 End Solvation calculations
RMM:  13    -0.181575745511E+03    0.20758E-04   -0.53003E-05  6172   0.110E-02
 Begin Solvation calculations
  rms_SCF =   0.411094582000660      tol =   4.110945820006601E-002
 Begin minimization
 Creating dielectric and ionic cavities
  area:      155.184860089037     
  volume:    775.525051338269     
  Acav:     8.147205154674443E-002
  Solving linear dielectric/ionic screening model
        iter                  A_solv                     rms
   LPB:       -0.342112789460418E+00   0.394138480267303E+00
   LPB:    0  -0.342095966136600E+00   0.382520544189611E+00  -0.100615E-02   0.000000E+00   0.332364E+02  -0.334409E-01
   LPB:    1  -0.341452284310499E+00   0.751343065489291E-01   0.118519E-01   0.000000E+00   0.617396E+02  -0.356363E-17
   LPB:    2  -0.341376204234133E+00   0.227268752351928E-01   0.117861E-01   0.118855E+00   0.238435E+03   0.362191E-15
   LPB:    3  -0.341357558347220E+00   0.828552448701808E-02   0.231652E-01   0.124695E+00   0.109618E+03   0.402305E-15
   LPB:    4  -0.341339273470352E+00   0.168113823372684E-01   0.457230E-01   0.496832E+00   0.758189E+02   0.490390E-15
  Finished solving LPB equations
  A_corr:   -0.259867221923607     
 End minimization
 Ecorr=   1945.80158363014     
 A_corr= -0.259867221923607     
 Ecorr_band=  -1946.06145085207     
 End Solvation calculations
   2 F= -.18157575E+03 E0= -.18156385E+03  d E =-.212217E-02
quench:  g(F)=  0.000E+00 g(S)=  0.000E+00 dE (1.order)= 0.000E+00
 bond charge predicted
       N       E                     dE             d eps       ncg     rms          rms(c)
 Begin Solvation calculations
  rms_SCF =   0.411094582000660      tol =   4.110945820006601E-002
 Begin minimization
 Creating dielectric and ionic cavities
  area:      155.201902790728     
  volume:    775.533619611850     
  Acav:     8.148099896513203E-002
  Solving linear dielectric/ionic screening model
        iter                  A_solv                     rms
   LPB:       -0.341689604568571E+00   0.166303366366259E-01
   LPB:    0  -0.341689604555571E+00   0.165910231019598E-01   0.884462E-06   0.000000E+00   0.332360E+02   0.293960E-04
   LPB:    1  -0.341355648225074E+00   0.916494703835947E-02   0.154007E-01   0.000000E+00   0.685295E+04   0.689185E-21
   LPB:    2  -0.341321686906687E+00   0.153304545158731E-01   0.267432E-01   0.585627E-01   0.986646E+03  -0.881370E-18
   LPB:    3  -0.341308322210367E+00   0.195167992543280E-01   0.264112E-01   0.398473E+00   0.187936E+03  -0.627993E-17
   LPB:    4  -0.341297384819526E+00   0.147715820975013E-01   0.266140E-01   0.812144E+00   0.167214E+03  -0.855103E-16
  Finished solving LPB equations
  A_corr:   -0.259816385854394     
 End minimization
 Ecorr=   1945.82685285293     
 A_corr= -0.259816385854394     
 Ecorr_band=  -1946.08666923878     
 End Solvation calculations
DAV:   1    -0.181575928478E+03   -0.16221E-03   -0.20624E-02 11514   0.268E-01    0.162E-01
 Begin Solvation calculations
  rms_SCF =   0.274236376100418      tol =   2.742363761004184E-002
 Begin minimization
 Creating dielectric and ionic cavities
  area:      155.175111044436     
  volume:    775.528730140857     
  Acav:     8.146693329832896E-002
  Solving linear dielectric/ionic screening model
        iter                  A_solv                     rms
   LPB:       -0.354060853760078E+00   0.188755129155464E+01
   LPB:    0  -0.354007379900805E+00   0.188025097189311E+01  -0.179382E-02   0.000000E+00   0.332362E+02  -0.596199E-01
   LPB:    1  -0.344659702437458E+00   0.195978745643967E+00   0.875793E-02   0.000000E+00   0.687906E+02  -0.295087E-17
   LPB:    2  -0.343742214945693E+00   0.367026594628397E-01   0.152729E-01   0.562828E-01   0.133984E+03   0.137817E-15
   LPB:    3  -0.343633549269283E+00   0.115088228936066E-01   0.211959E-01   0.853419E-01   0.184780E+03   0.257782E-15
   LPB:    4  -0.343601630787473E+00   0.775592146874132E-02   0.286597E-01   0.217235E+00   0.259970E+03   0.180796E-15
  Finished solving LPB equations
  A_corr:   -0.262134697489144     
 End minimization
 Ecorr=   1945.25511771950     
 A_corr= -0.262134697489144     
 Ecorr_band=  -1945.51725241699     
 End Solvation calculations
RMM:   2    -0.181623299144E+03   -0.47371E-01   -0.69141E-03 11088   0.147E-01    0.264E+00
 Begin Solvation calculations
  rms_SCF =   0.274236376100418      tol =   2.742363761004184E-002
 Begin minimization
 Creating dielectric and ionic cavities
  area:      155.222888629179     
  volume:    775.544465989466     
  Acav:     8.149201653031915E-002
  Solving linear dielectric/ionic screening model
        iter                  A_solv                     rms
   LPB:       -0.349572672258972E+00   0.164240650162541E+01
   LPB:    0  -0.349551761214871E+00   0.163904979878921E+01   0.112176E-02   0.000000E+00   0.332355E+02   0.372824E-01
   LPB:    1  -0.342532143319569E+00   0.155168262143574E+00   0.855145E-02   0.000000E+00   0.713678E+02  -0.167977E-17
   LPB:    2  -0.341925395765046E+00   0.257454489580513E-01   0.158756E-01   0.465589E-01   0.131206E+03   0.380927E-17
   LPB:    3  -0.341861179291945E+00   0.690246677824750E-02   0.200844E-01   0.836586E-01   0.262470E+03   0.876845E-16
   LPB:    4  -0.341848029038189E+00   0.325535689068164E-02   0.252712E-01   0.162750E+00   0.970636E+03   0.184369E-16
  Finished solving LPB equations
  A_corr:   -0.260356012507869     
 End minimization
 Ecorr=   1945.61537854249     
 A_corr= -0.260356012507869     
 Ecorr_band=  -1945.87573455500     
 End Solvation calculations
RMM:   3    -0.181577210016E+03    0.46089E-01   -0.50496E-03 10990   0.130E-01    0.244E-01
 Begin Solvation calculations
  rms_SCF =   0.274236376100418      tol =   2.742363761004184E-002
 Begin minimization
 Creating dielectric and ionic cavities
  area:      155.215229751641     
  volume:    775.548440668170     
  Acav:     8.148799561961170E-002
  Solving linear dielectric/ionic screening model
        iter                  A_solv                     rms
   LPB:       -0.342083579145536E+00   0.983630793989723E-01
   LPB:    0  -0.342083498389036E+00   0.979369333493223E-01  -0.697114E-04   0.000000E+00   0.332353E+02  -0.231688E-02
   LPB:    1  -0.342046736400799E+00   0.169084999921936E-01   0.106350E-01   0.000000E+00   0.672935E+02   0.109293E-18
   LPB:    2  -0.342040717901786E+00   0.544077169209150E-02   0.144212E-01   0.120732E+00   0.223295E+03  -0.678850E-16
   LPB:    3  -0.342037897296272E+00   0.376113900021637E-02   0.289022E-01   0.233843E+00   0.173170E+03  -0.852314E-16
   LPB:    4  -0.342032320743883E+00   0.584737017754280E-02   0.758319E-01   0.753532E+00   0.236771E+03  -0.984714E-16
  Finished solving LPB equations
  A_corr:   -0.260544325124271     
 End minimization
 Ecorr=   1945.41237418188     
 A_corr= -0.260544325124271     
 Ecorr_band=  -1945.67291850701     
 End Solvation calculations
RMM:   4    -0.181576127640E+03    0.10824E-02   -0.39855E-04  8095   0.452E-02    0.166E-01
 Begin Solvation calculations
  rms_SCF =   0.240338969974553      tol =   2.403389699745527E-002
 Begin minimization
 Creating dielectric and ionic cavities
  area:      155.222958846184     
  volume:    775.542586701328     
  Acav:     8.149205339424655E-002
  Solving linear dielectric/ionic screening model
        iter                  A_solv                     rms
   LPB:       -0.342589614304225E+00   0.166457749693288E+00
   LPB:    0  -0.342581998552932E+00   0.155959040776001E+00  -0.676971E-03   0.000000E+00   0.332356E+02  -0.224995E-01
   LPB:    1  -0.342494102987883E+00   0.263443375641674E-01   0.107587E-01   0.000000E+00   0.609429E+02   0.112019E-18
   LPB:    2  -0.342482501944487E+00   0.639587485740449E-02   0.124668E-01   0.113903E+00   0.217468E+03  -0.737270E-16
   LPB:    3  -0.342480196126085E+00   0.332796758072920E-02   0.242427E-01   0.102212E+00   0.139863E+03  -0.771336E-16
   LPB:    4  -0.342477969686237E+00   0.687917070239510E-02   0.431651E-01   0.542292E+00   0.757224E+02  -0.918359E-16
  Finished solving LPB equations
  A_corr:   -0.260985916291991     
 End minimization
 Ecorr=   1945.31458758566     
 A_corr= -0.260985916291991     
 Ecorr_band=  -1945.57557350195     
 End Solvation calculations
RMM:   5    -0.181576032450E+03    0.95190E-04   -0.91450E-05  6021   0.205E-02
 Begin Solvation calculations
  rms_SCF =   0.240338969974553      tol =   2.403389699745527E-002
 Begin minimization
 Creating dielectric and ionic cavities
  area:      155.226690779515     
  volume:    775.549440762476     
  Acav:     8.149401265924530E-002
  Solving linear dielectric/ionic screening model
        iter                  A_solv                     rms
   LPB:       -0.342714505290852E+00   0.768686520016834E-01
   LPB:    0  -0.342714386183460E+00   0.764284420985211E-01  -0.846613E-04   0.000000E+00   0.332352E+02  -0.281374E-02
   LPB:    1  -0.342691885315190E+00   0.132575675732729E-01   0.109158E-01   0.000000E+00   0.644180E+02  -0.146965E-18
   LPB:    2  -0.342689225198407E+00   0.382556878444901E-02   0.121337E-01   0.106356E+00   0.230631E+03   0.140222E-16
   LPB:    3  -0.342688248449466E+00   0.218687668525595E-02   0.332911E-01   0.133828E+00   0.818359E+02   0.139547E-16
   LPB:    4  -0.342685777897502E+00   0.289281323544024E-02   0.783473E-01   0.107477E+01   0.516272E+02  -0.558801E-17
  Finished solving LPB equations
  A_corr:   -0.261191765238257     
 End minimization
 Ecorr=   1945.17598889296     
 A_corr= -0.261191765238257     
 Ecorr_band=  -1945.43718065820     
 End Solvation calculations
   3 F= -.18157603E+03 E0= -.18156407E+03  d E =-.286939E-03
quench:  g(F)=  0.000E+00 g(S)=  0.000E+00 dE (1.order)= 0.000E+00
 bond charge predicted
       N       E                     dE             d eps       ncg     rms          rms(c)
 Begin Solvation calculations
  rms_SCF =   0.240338969974553      tol =   2.403389699745527E-002
 Begin minimization
 Creating dielectric and ionic cavities
  area:      155.242102128767     
  volume:    775.557738947416     
  Acav:     8.150210361760273E-002
  Solving linear dielectric/ionic screening model
        iter                  A_solv                     rms
   LPB:       -0.343139062767842E+00   0.348424024507171E-02
   LPB:    0  -0.343139062753794E+00   0.347073030701645E-02   0.919455E-06   0.000000E+00   0.332349E+02   0.305580E-04
   LPB:    1  -0.342737830058584E+00   0.188058438058268E-02   0.155162E-01   0.000000E+00   0.265634E+06   0.133973E-20
   LPB:    2  -0.342697860482165E+00   0.142660915704746E-02   0.271541E-01   0.569224E-01   0.245187E+05   0.149834E-17
   LPB:    3  -0.342684416654470E+00   0.239201506919328E-02   0.333408E-01   0.273938E+00   0.150346E+05  -0.536855E-18
   LPB:    4  -0.342678186740041E+00   0.774701042834991E-02   0.354898E-01   0.435342E+00   0.211609E+04  -0.767089E-18
  Finished solving LPB equations
  A_corr:   -0.261176083122438     
 End minimization
 Ecorr=   1945.20352174654     
 A_corr= -0.261176083122438     
 Ecorr_band=  -1945.46469782966     
 End Solvation calculations
DAV:   1    -0.181576146550E+03   -0.18910E-04   -0.26644E-02 11424   0.299E-01    0.128E-01
 Begin Solvation calculations
  rms_SCF =   0.208586357315502      tol =   2.085863573155022E-002
 Begin minimization
 Creating dielectric and ionic cavities
  area:      155.223016757496     
  volume:    775.536279225557     
  Acav:     8.149208379768536E-002
  Solving linear dielectric/ionic screening model
        iter                  A_solv                     rms
   LPB:       -0.350487549773098E+00   0.142741126685479E+01
   LPB:    0  -0.350432782065582E+00   0.141791817867577E+01  -0.181541E-02   0.000000E+00   0.332359E+02  -0.603366E-01
   LPB:    1  -0.345122212972250E+00   0.146524437470690E+00   0.873446E-02   0.000000E+00   0.690118E+02  -0.725705E-18
   LPB:    2  -0.344607662278130E+00   0.256272378077996E-01   0.153244E-01   0.552255E-01   0.133004E+03  -0.197320E-15
   LPB:    3  -0.344549139417341E+00   0.814103023980991E-02   0.208756E-01   0.834914E-01   0.212132E+03  -0.901888E-16
   LPB:    4  -0.344533342663441E+00   0.732264186269956E-02   0.272656E-01   0.206665E+00   0.278618E+03  -0.179448E-15
  Finished solving LPB equations
  A_corr:   -0.263041258865756     
 End minimization
 Ecorr=   1944.83300388002     
 A_corr= -0.263041258865756     
 Ecorr_band=  -1945.09604513889     
 End Solvation calculations
RMM:   2    -0.181604545407E+03   -0.28399E-01   -0.44875E-03 11088   0.121E-01    0.204E+00
 Begin Solvation calculations
  rms_SCF =   0.208586357315502      tol =   2.085863573155022E-002
 Begin minimization
 Creating dielectric and ionic cavities
  area:      155.258219418923     
  volume:    775.552338656061     
  Acav:     8.151056519493477E-002
  Solving linear dielectric/ionic screening model
        iter                  A_solv                     rms
   LPB:       -0.347696009564377E+00   0.126086933048475E+01
   LPB:    0  -0.347680047731131E+00   0.125757041131106E+01   0.980072E-03   0.000000E+00   0.332351E+02   0.325728E-01
   LPB:    1  -0.343551356988402E+00   0.119716313492875E+00   0.855131E-02   0.000000E+00   0.712869E+02   0.259339E-17
   LPB:    2  -0.343195732082492E+00   0.196732132712052E-01   0.158397E-01   0.465015E-01   0.129761E+03   0.125600E-15
   LPB:    3  -0.343159171142025E+00   0.514270891374258E-02   0.199494E-01   0.816284E-01   0.255612E+03   0.168943E-15
   LPB:    4  -0.343152103674483E+00   0.252123698989467E-02   0.246056E-01   0.156727E+00   0.687155E+03   0.834959E-16
  Finished solving LPB equations
  A_corr:   -0.261641538479549     
 End minimization
 Ecorr=   1945.11130778280     
 A_corr= -0.261641538479549     
 Ecorr_band=  -1945.37294932128     
 End Solvation calculations
RMM:   3    -0.181576919485E+03    0.27626E-01   -0.29900E-03 10963   0.100E-01    0.179E-01
 Begin Solvation calculations
  rms_SCF =   0.208586357315502      tol =   2.085863573155022E-002
 Begin minimization
 Creating dielectric and ionic cavities
  area:      155.249696811820     
  volume:    775.569762281596     
  Acav:     8.150609082620525E-002
  Solving linear dielectric/ionic screening model
        iter                  A_solv                     rms
   LPB:       -0.343265532467455E+00   0.709435099039755E-01
   LPB:    0  -0.343263081026846E+00   0.668738813904883E-01   0.384090E-03   0.000000E+00   0.332343E+02   0.127649E-01
   LPB:    1  -0.343246949330834E+00   0.101080154942490E-01   0.101185E-01   0.000000E+00   0.703769E+02  -0.595263E-18
   LPB:    2  -0.343244436254307E+00   0.318759078021176E-02   0.146818E-01   0.107365E+00   0.268248E+03  -0.279041E-17
   LPB:    3  -0.343243536833657E+00   0.280217595674637E-02   0.259016E-01   0.202866E+00   0.207906E+03  -0.206124E-16
   LPB:    4  -0.343242413810522E+00   0.397556787787442E-02   0.571291E-01   0.566102E+00   0.381898E+03  -0.504305E-16
  Finished solving LPB equations
  A_corr:   -0.261736322984317     
 End minimization
 Ecorr=   1944.94829515062     
 A_corr= -0.261736322984317     
 Ecorr_band=  -1945.21003147360     
 End Solvation calculations
RMM:   4    -0.181576258126E+03    0.66136E-03   -0.22861E-04  6595   0.349E-02    0.110E-01
 Begin Solvation calculations
  rms_SCF =   0.128231031250107      tol =   1.282310312501067E-002
 Begin minimization
 Creating dielectric and ionic cavities
  area:      155.258471721648     
  volume:    775.559978551826     
  Acav:     8.151069765386511E-002
  Solving linear dielectric/ionic screening model
        iter                  A_solv                     rms
   LPB:       -0.343656664332425E+00   0.125507232752453E+00
   LPB:    0  -0.343648519386399E+00   0.108972631727457E+00  -0.700104E-03   0.000000E+00   0.332348E+02  -0.232678E-01
   LPB:    1  -0.343602879577682E+00   0.178707266416777E-01   0.108566E-01   0.000000E+00   0.611447E+02   0.804101E-18
   LPB:    2  -0.343597426723665E+00   0.538805461706784E-02   0.123904E-01   0.104686E+00   0.222393E+03  -0.125776E-15
   LPB:    3  -0.343596501534007E+00   0.295886711298967E-02   0.192902E-01   0.108982E+00   0.144572E+03  -0.141464E-15
   LPB:    4  -0.343595976950292E+00   0.378833439156160E-02   0.309418E-01   0.353487E+00   0.814862E+02  -0.144194E-15
  Finished solving LPB equations
  A_corr:   -0.262085279296427     
 End minimization
 Ecorr=   1944.89956507473     
 A_corr= -0.262085279296427     
 Ecorr_band=  -1945.16165035403     
 End Solvation calculations
RMM:   5    -0.181576216853E+03    0.41273E-04   -0.62310E-05  5945   0.175E-02
 Begin Solvation calculations
  rms_SCF =   0.128231031250107      tol =   1.282310312501067E-002
 Begin minimization
 Creating dielectric and ionic cavities
  area:      155.262367781205     
  volume:    775.564045371009     
  Acav:     8.151274308513280E-002
  Solving linear dielectric/ionic screening model
        iter                  A_solv                     rms
   LPB:       -0.343747709789701E+00   0.408000836791948E-01
   LPB:    0  -0.343747609764425E+00   0.399625864861053E-01  -0.775845E-04   0.000000E+00   0.332346E+02  -0.257849E-02
   LPB:    1  -0.343739597376793E+00   0.745769141182440E-02   0.118006E-01   0.000000E+00   0.707972E+02   0.712854E-19
   LPB:    2  -0.343738851116017E+00   0.299753856801082E-02   0.118521E-01   0.927334E-01   0.234439E+03   0.184033E-16
   LPB:    3  -0.343738506169695E+00   0.153673923443466E-02   0.288398E-01   0.189961E+00   0.806319E+02   0.193321E-16
   LPB:    4  -0.343737872887989E+00   0.238450730056737E-02   0.621014E-01   0.852583E+00   0.738937E+02   0.204547E-16
  Finished solving LPB equations
  A_corr:   -0.262225129802856     
 End minimization
 Ecorr=   1944.80238766786     
 A_corr= -0.262225129802856     
 Ecorr_band=  -1945.06461279766     
 End Solvation calculations
   4 F= -.18157622E+03 E0= -.18156422E+03  d E =-.184403E-03
quench:  g(F)=  0.000E+00 g(S)=  0.000E+00 dE (1.order)= 0.000E+00
 bond charge predicted
       N       E                     dE             d eps       ncg     rms          rms(c)
 Begin Solvation calculations
  rms_SCF =   0.128231031250107      tol =   1.282310312501067E-002
 Begin minimization
 Creating dielectric and ionic cavities
  area:      155.269029591750     
  volume:    775.575727083035     
  Acav:     8.151624053566894E-002
  Solving linear dielectric/ionic screening model
        iter                  A_solv                     rms
   LPB:       -0.344265523973960E+00   0.300711548200349E-02
   LPB:    0  -0.344265523948149E+00   0.297493896125238E-02   0.124632E-05   0.000000E+00   0.332340E+02   0.414202E-04
   LPB:    1  -0.343797271772060E+00   0.130374510924603E-02   0.154791E-01   0.000000E+00   0.388692E+06   0.243527E-20
   LPB:    2  -0.343750132953666E+00   0.154143095819008E-02   0.272189E-01   0.572497E-01   0.702765E+05  -0.672277E-17
   LPB:    3  -0.343734252677797E+00   0.330377944722597E-02   0.334071E-01   0.274480E+00   0.109148E+05  -0.101546E-16
   LPB:    4  -0.343726996218929E+00   0.717989053092008E-02   0.352519E-01   0.433034E+00   0.101176E+04  -0.119449E-16
  Finished solving LPB equations
  A_corr:   -0.262210755683261     
 End minimization
 Ecorr=   1944.77858112313     
 A_corr= -0.262210755683261     
 Ecorr_band=  -1945.04079187881     
 End Solvation calculations
DAV:   1    -0.181576289293E+03   -0.31167E-04   -0.32282E-02 11409   0.329E-01    0.830E-02
 Begin Solvation calculations
  rms_SCF =   0.123177566183796      tol =   1.231775661837961E-002
 Begin minimization
 Creating dielectric and ionic cavities
  area:      155.262108264560     
  volume:    775.560805506303     
  Acav:     8.151260683889376E-002
  Solving linear dielectric/ionic screening model
        iter                  A_solv                     rms
   LPB:       -0.347036442844681E+00   0.847180880856792E+00
   LPB:    0  -0.347013130499781E+00   0.840773150129469E+00  -0.118444E-02   0.000000E+00   0.332347E+02  -0.393644E-01
   LPB:    1  -0.345136233337059E+00   0.880421368421160E-01   0.877551E-02   0.000000E+00   0.687220E+02  -0.249892E-17
   LPB:    2  -0.344948293322754E+00   0.156787684876207E-01   0.153162E-01   0.573719E-01   0.134798E+03   0.210485E-15
   LPB:    3  -0.344925917534401E+00   0.478447739891584E-02   0.210655E-01   0.865643E-01   0.212317E+03   0.372353E-15
   LPB:    4  -0.344919268709510E+00   0.428380784859560E-02   0.286374E-01   0.218577E+00   0.312032E+03   0.340158E-15
  Finished solving LPB equations
  A_corr:   -0.263406661870616     
 End minimization
 Ecorr=   1944.57991945057     
 A_corr= -0.263406661870616     
 Ecorr_band=  -1944.84332611244     
 End Solvation calculations
RMM:   2    -0.181585791273E+03   -0.95020E-02   -0.22416E-03 11055   0.873E-02    0.117E+00
 Begin Solvation calculations
  rms_SCF =   0.123177566183796      tol =   1.231775661837961E-002
 Begin minimization
 Creating dielectric and ionic cavities
  area:      155.281756934527     
  volume:    775.569323821271     
  Acav:     8.152292239062675E-002
  Solving linear dielectric/ionic screening model
        iter                  A_solv                     rms
   LPB:       -0.345674775850257E+00   0.741057646546181E+00
   LPB:    0  -0.345669729220342E+00   0.739259236200211E+00   0.551090E-03   0.000000E+00   0.332343E+02   0.183151E-01
   LPB:    1  -0.344243136589115E+00   0.705217050741637E-01   0.855237E-02   0.000000E+00   0.712672E+02  -0.286019E-19
   LPB:    2  -0.344119281056135E+00   0.116960828586887E-01   0.159048E-01   0.466846E-01   0.129066E+03  -0.204196E-15
   LPB:    3  -0.344106005789024E+00   0.318543136006717E-02   0.202294E-01   0.842700E-01   0.254332E+03  -0.192146E-15
   LPB:    4  -0.344103098751783E+00   0.161551821796090E-02   0.260230E-01   0.170229E+00   0.702620E+03  -0.123324E-15
  Finished solving LPB equations
  A_corr:   -0.262580176361156     
 End minimization
 Ecorr=   1944.75069511410     
 A_corr= -0.262580176361156     
 Ecorr_band=  -1945.01327529046     
 End Solvation calculations
RMM:   3    -0.181576663045E+03    0.91282E-02   -0.10499E-03 10753   0.596E-02    0.135E-01
 Begin Solvation calculations
  rms_SCF =   0.123177566183796      tol =   1.231775661837961E-002
 Begin minimization
 Creating dielectric and ionic cavities
  area:      155.278850751789     
  volume:    775.579449763085     
  Acav:     8.152139664468923E-002
  Solving linear dielectric/ionic screening model
        iter                  A_solv                     rms
   LPB:       -0.344171309753144E+00   0.354079048589599E-01
   LPB:    0  -0.344170526608660E+00   0.330794759396745E-01   0.217093E-03   0.000000E+00   0.332338E+02   0.721483E-02
   LPB:    1  -0.344165350516462E+00   0.677573934466248E-02   0.110195E-01   0.000000E+00   0.778848E+02   0.249361E-18
   LPB:    2  -0.344164387134616E+00   0.277845772657542E-02   0.155760E-01   0.131675E+00   0.288855E+03   0.164230E-18
   LPB:    3  -0.344163687999240E+00   0.287263559135303E-02   0.314309E-01   0.359634E+00   0.217804E+03   0.765374E-17
   LPB:    4  -0.344162532622200E+00   0.315199476215905E-02   0.619118E-01   0.838968E+00   0.354311E+03   0.150334E-16
  Finished solving LPB equations
  A_corr:   -0.262641135977511     
 End minimization
 Ecorr=   1944.64037222707     
 A_corr= -0.262641135977511     
 Ecorr_band=  -1944.90301336304     
 End Solvation calculations
RMM:   4    -0.181576419002E+03    0.24404E-03   -0.12396E-04  6132   0.248E-02    0.769E-02
 Begin Solvation calculations
  rms_SCF =   9.700446350652975E-002 tol =   9.700446350652975E-003
 Begin minimization
 Creating dielectric and ionic cavities
  area:      155.284325550539     
  volume:    775.569217367435     
  Acav:     8.152427091403303E-002
  Solving linear dielectric/ionic screening model
        iter                  A_solv                     rms
   LPB:       -0.344467060518398E+00   0.906341555093870E-01
   LPB:    0  -0.344461721971146E+00   0.756509570905642E-01  -0.566804E-03   0.000000E+00   0.332343E+02  -0.188374E-01
   LPB:    1  -0.344438656647707E+00   0.128351696867414E-01   0.109489E-01   0.000000E+00   0.619714E+02  -0.105086E-17
   LPB:    2  -0.344435752170447E+00   0.401548451353632E-02   0.126896E-01   0.108650E+00   0.231115E+03   0.142487E-15
   LPB:    3  -0.344435201632842E+00   0.249068943469502E-02   0.195733E-01   0.122887E+00   0.158418E+03   0.160582E-15
   LPB:    4  -0.344434854027195E+00   0.305808524059202E-02   0.310640E-01   0.397838E+00   0.930043E+02   0.165243E-15
  Finished solving LPB equations
  A_corr:   -0.262910583113162     
 End minimization
 Ecorr=   1944.61287484950     
 A_corr= -0.262910583113162     
 Ecorr_band=  -1944.87578543261     
 End Solvation calculations
RMM:   5    -0.181576414634E+03    0.43681E-05   -0.42630E-05  5886   0.145E-02
 Begin Solvation calculations
  rms_SCF =   9.700446350652975E-002 tol =   9.700446350652975E-003
 Begin minimization
 Creating dielectric and ionic cavities
  area:      155.285650415843     
  volume:    775.575793174435     
  Acav:     8.152496646831749E-002
  Solving linear dielectric/ionic screening model
        iter                  A_solv                     rms
   LPB:       -0.344571385188349E+00   0.430561441344063E-01
   LPB:    0  -0.344571363915450E+00   0.431474703599312E-01   0.357797E-04   0.000000E+00   0.332340E+02   0.118910E-02
   LPB:    1  -0.344564050371541E+00   0.755118896349947E-02   0.108173E-01   0.000000E+00   0.668551E+02   0.488889E-19
   LPB:    2  -0.344563151730713E+00   0.216091602578525E-02   0.124465E-01   0.106790E+00   0.232038E+03   0.208334E-16
   LPB:    3  -0.344562882060078E+00   0.891244075811302E-03   0.268202E-01   0.139262E+00   0.111418E+03   0.778171E-17
   LPB:    4  -0.344562555877696E+00   0.757630604399037E-03   0.531398E-01   0.610477E+00   0.172766E+03  -0.283281E-17
  Finished solving LPB equations
  A_corr:   -0.263037589409379     
 End minimization
 Ecorr=   1944.52642824049     
 A_corr= -0.263037589409379     
 Ecorr_band=  -1944.78946582990     
 End Solvation calculations
   5 F= -.18157641E+03 E0= -.18156440E+03  d E =-.197781E-03
quench:  g(F)=  0.000E+00 g(S)=  0.000E+00 dE (1.order)= 0.000E+00
 bond charge predicted
       N       E                     dE             d eps       ncg     rms          rms(c)
 Begin Solvation calculations
  rms_SCF =   9.700446350652975E-002 tol =   9.700446350652975E-003
 Begin minimization
 Creating dielectric and ionic cavities
  area:      155.291451383549     
  volume:    775.576943006657     
  Acav:     8.152801197636299E-002
  Solving linear dielectric/ionic screening model
        iter                  A_solv                     rms
   LPB:       -0.344715780574487E+00   0.133515063194404E-02
   LPB:    0  -0.344715780573296E+00   0.133394262067482E-02   0.267714E-06   0.000000E+00   0.332340E+02   0.889721E-05
   LPB:    1  -0.344589458309983E+00   0.637540310808066E-03   0.157906E-01   0.000000E+00   0.568028E+06   0.379546E-22
   LPB:    2  -0.344576260696109E+00   0.548733030333477E-03   0.271664E-01   0.607269E-01   0.752515E+05  -0.487113E-18
   LPB:    3  -0.344571892461584E+00   0.934050627978552E-03   0.331778E-01   0.271016E+00   0.286038E+05  -0.321199E-17
   LPB:    4  -0.344569864355002E+00   0.303268275516071E-02   0.363783E-01   0.423438E+00   0.422490E+04  -0.847576E-17
  Finished solving LPB equations
  A_corr:   -0.263041852378639     
 End minimization
 Ecorr=   1944.53297417528     
 A_corr= -0.263041852378639     
 Ecorr_band=  -1944.79601602766     
 End Solvation calculations
DAV:   1    -0.181576462771E+03   -0.43769E-04   -0.92057E-03 11445   0.157E-01    0.570E-02
 Begin Solvation calculations
  rms_SCF =   8.032713346709669E-002 tol =   8.032713346709668E-003
 Begin minimization
 Creating dielectric and ionic cavities
  area:      155.285573108961     
  volume:    775.558602061455     
  Acav:     8.152492588220440E-002
  Solving linear dielectric/ionic screening model
        iter                  A_solv                     rms
   LPB:       -0.346371617736808E+00   0.546623470040602E+00
   LPB:    0  -0.346353510555485E+00   0.538511732145093E+00  -0.104386E-02   0.000000E+00   0.332348E+02  -0.346926E-01
   LPB:    1  -0.345579935391391E+00   0.579084237636928E-01   0.880923E-02   0.000000E+00   0.682684E+02   0.717846E-18
   LPB:    2  -0.345499575288370E+00   0.982654927542938E-02   0.153766E-01   0.595134E-01   0.130722E+03  -0.532229E-16
   LPB:    3  -0.345490312507810E+00   0.386741893660719E-02   0.206143E-01   0.859793E-01   0.239987E+03   0.391349E-16
   LPB:    4  -0.345487641025110E+00   0.453452763546873E-02   0.269358E-01   0.220724E+00   0.219293E+03   0.553128E-16
  Finished solving LPB equations
  A_corr:   -0.263962715142905     
 End minimization
 Ecorr=   1944.37380310622     
 A_corr= -0.263962715142905     
 Ecorr_band=  -1944.63776582136     
 End Solvation calculations
RMM:   2    -0.181580550754E+03   -0.40880E-02   -0.10423E-03 10599   0.590E-02    0.774E-01
 Begin Solvation calculations
  rms_SCF =   8.032713346709669E-002 tol =   8.032713346709668E-003
 Begin minimization
 Creating dielectric and ionic cavities
  area:      155.299660046962     
  volume:    775.566162789335     
  Acav:     8.153232152465519E-002
  Solving linear dielectric/ionic screening model
        iter                  A_solv                     rms
   LPB:       -0.345628613075403E+00   0.489306469124840E+00
   LPB:    0  -0.345625676955069E+00   0.487732526442199E+00   0.420347E-03   0.000000E+00   0.332345E+02   0.139700E-01
   LPB:    1  -0.345004813526622E+00   0.464398954385283E-01   0.854798E-02   0.000000E+00   0.712986E+02  -0.818698E-18
   LPB:    2  -0.344951217066422E+00   0.741460820401402E-02   0.158894E-01   0.464405E-01   0.128918E+03   0.257658E-17
   LPB:    3  -0.344945643474107E+00   0.200538558471507E-02   0.200726E-01   0.823195E-01   0.271471E+03  -0.120675E-16
   LPB:    4  -0.344944488754710E+00   0.129728782022675E-02   0.253734E-01   0.163895E+00   0.653469E+03  -0.126782E-16
  Finished solving LPB equations
  A_corr:   -0.263412167230055     
 End minimization
 Ecorr=   1944.48099374104     
 A_corr= -0.263412167230055     
 Ecorr_band=  -1944.74440590827     
 End Solvation calculations
RMM:   3    -0.181576651401E+03    0.38994E-02   -0.46565E-04  8753   0.406E-02    0.104E-01
 Begin Solvation calculations
  rms_SCF =   8.032713346709669E-002 tol =   8.032713346709668E-003
 Begin minimization
 Creating dielectric and ionic cavities
  area:      155.297135186497     
  volume:    775.576961703580     
  Acav:     8.153099597291094E-002
  Solving linear dielectric/ionic screening model
        iter                  A_solv                     rms
   LPB:       -0.345013727148760E+00   0.430411975043691E-01
   LPB:    0  -0.345012752736633E+00   0.404855979582174E-01   0.242156E-03   0.000000E+00   0.332340E+02   0.804780E-02
   LPB:    1  -0.345007625019687E+00   0.512973159851255E-02   0.953848E-02   0.000000E+00   0.687129E+02   0.430237E-18
   LPB:    2  -0.345006886665390E+00   0.158902733351339E-02   0.151895E-01   0.904228E-01   0.210246E+03  -0.432676E-17
   LPB:    3  -0.345006674495581E+00   0.133023265166998E-02   0.255319E-01   0.170954E+00   0.161162E+03  -0.590611E-17
   LPB:    4  -0.345006379643379E+00   0.224233298317898E-02   0.611458E-01   0.580278E+00   0.569371E+03  -0.196927E-16
  Finished solving LPB equations
[...]
   LPB:    6  -0.399191421693376E+00   0.344786766863450E-03   0.344369E-01   0.524350E+00   0.944227E+03  -0.100185E-15
  Finished solving LPB equations
  A_corr:   -0.317740312300532     
 End minimization
 Ecorr=   1934.08446366033     
 A_corr= -0.317740312300532     
 Ecorr_band=  -1934.40220397263     
 End Solvation calculations
RMM:   9    -0.181712318889E+03    0.92992E-03   -0.82450E-04 10878   0.560E-02    0.127E-01
 Begin Solvation calculations
  rms_SCF =   3.841482349654603E-003 tol =   3.841482349654603E-004
 Begin minimization
 Creating dielectric and ionic cavities
  area:      155.149314740144     
  volume:    775.804089111960     
  Acav:     8.145339023857573E-002
  Solving linear dielectric/ionic screening model
        iter                  A_solv                     rms
   LPB:       -0.399334991992842E+00   0.465894770541039E-01
   LPB:    0  -0.399330045708213E+00   0.183640570943330E-01  -0.545674E-03   0.000000E+00   0.332233E+02  -0.181291E-01
   LPB:    1  -0.399326207693917E+00   0.553698167602458E-02   0.130434E-01   0.000000E+00   0.850226E+02  -0.125544E-17
   LPB:    2  -0.399325603953670E+00   0.181193009845509E-02   0.166309E-01   0.123372E+00   0.210820E+03   0.980400E-17
   LPB:    3  -0.399325452981881E+00   0.158467512228183E-02   0.211567E-01   0.196569E+00   0.391379E+03  -0.104436E-16
   LPB:    4  -0.399325370323652E+00   0.188437467871510E-02   0.236651E-01   0.489474E+00   0.185418E+03  -0.164394E-16
   LPB:    5  -0.399325281956464E+00   0.112286559521845E-02   0.277883E-01   0.910440E+00   0.221614E+03  -0.186734E-16
   LPB:    6  -0.399325179721948E+00   0.469226526686256E-03   0.392010E-01   0.820108E+00   0.358020E+03  -0.187512E-16
   LPB:    7  -0.399325098444096E+00   0.313118289211635E-03   0.394938E-01   0.789119E+00   0.752628E+03  -0.165524E-16
  Finished solving LPB equations
  A_corr:   -0.317871708205520     
 End minimization
 Ecorr=   1934.16294265002     
 A_corr= -0.317871708205520     
 Ecorr_band=  -1934.48081435822     
 End Solvation calculations
RMM:  10    -0.181712183947E+03    0.13494E-03   -0.16467E-04  6100   0.258E-02    0.549E-02
 Begin Solvation calculations
  rms_SCF =   3.841482349654603E-003 tol =   3.841482349654603E-004
 Begin minimization
 Creating dielectric and ionic cavities
  area:      155.154056057439     
  volume:    775.811628873205     
  Acav:     8.145587943015557E-002
  Solving linear dielectric/ionic screening model
        iter                  A_solv                     rms
   LPB:       -0.399496739008510E+00   0.157747028671820E-01
   LPB:    0  -0.399496734101677E+00   0.152666183927835E-01  -0.171869E-04   0.000000E+00   0.332230E+02  -0.570998E-03
   LPB:    1  -0.399488944197873E+00   0.957929027172733E-02   0.148970E-01   0.000000E+00   0.251671E+03   0.451860E-19
   LPB:    2  -0.399488041958485E+00   0.414323255865864E-02   0.136037E-01   0.126832E+00   0.125470E+03  -0.149145E-16
   LPB:    3  -0.399487755119622E+00   0.976413549323410E-03   0.168777E-01   0.256247E+00   0.368637E+03  -0.162958E-16
   LPB:    4  -0.399487647264448E+00   0.792698523920815E-03   0.263647E-01   0.240710E+00   0.449599E+03  -0.171790E-16
   LPB:    5  -0.399487582517148E+00   0.119852891116893E-02   0.321346E-01   0.492527E+00   0.276681E+03  -0.152279E-16
   LPB:    6  -0.399487522673271E+00   0.907007816488844E-03   0.306275E-01   0.969749E+00   0.130658E+03  -0.168373E-16
   LPB:    7  -0.399487459157618E+00   0.489047636029745E-03   0.372531E-01   0.872589E+00   0.374393E+03  -0.187786E-16
   LPB:    8  -0.399487407084039E+00   0.312571693865779E-03   0.377632E-01   0.808780E+00   0.448031E+03  -0.739410E-17
  Finished solving LPB equations
  A_corr:   -0.318031527653884     
 End minimization
 Ecorr=   1934.07265688693     
 A_corr= -0.318031527653884     
 Ecorr_band=  -1934.39068841458     
 End Solvation calculations
RMM:  11    -0.181712194915E+03   -0.10968E-04   -0.56052E-05  5838   0.159E-02
 Begin Solvation calculations
  rms_SCF =   3.841482349654603E-003 tol =   3.841482349654603E-004
 Begin minimization
 Creating dielectric and ionic cavities
  area:      155.160839082957     
  volume:    775.808832128055     
  Acav:     8.145944051855243E-002
  Solving linear dielectric/ionic screening model
        iter                  A_solv                     rms
   LPB:       -0.399648411105592E+00   0.307820416774003E-01
   LPB:    0  -0.399647005935595E+00   0.172429443084166E-01  -0.290844E-03   0.000000E+00   0.332231E+02  -0.966272E-02
   LPB:    1  -0.399641698168622E+00   0.797608500661313E-02   0.137112E-01   0.000000E+00   0.135428E+03  -0.667145E-18
   LPB:    2  -0.399641048086790E+00   0.286106834089046E-02   0.136782E-01   0.122773E+00   0.141302E+03   0.448046E-16
   LPB:    3  -0.399640881154976E+00   0.131819706048027E-02   0.169654E-01   0.207031E+00   0.356778E+03   0.456180E-16
   LPB:    4  -0.399640822754320E+00   0.918607824398696E-03   0.209095E-01   0.283857E+00   0.181195E+03   0.454727E-16
   LPB:    5  -0.399640789577194E+00   0.636908182872681E-03   0.259389E-01   0.457945E+00   0.276273E+03   0.533833E-16
   LPB:    6  -0.399640750853083E+00   0.344010161305681E-03   0.417791E-01   0.724660E+00   0.226729E+03   0.651274E-16
  Finished solving LPB equations
  A_corr:   -0.318181310334530     
 End minimization
 Ecorr=   1934.06340532644     
 A_corr= -0.318181310334530     
 Ecorr_band=  -1934.38158663678     
 End Solvation calculations
 206 F= -.18171219E+03 E0= -.18170018E+03  d E =-.119483E-01
quench:  g(F)=  0.000E+00 g(S)=  0.000E+00 dE (1.order)= 0.000E+00
 bond charge predicted
       N       E                     dE             d eps       ncg     rms          rms(c)
 Begin Solvation calculations
  rms_SCF =   3.841482349654603E-003 tol =   3.841482349654603E-004
 Begin minimization
 Creating dielectric and ionic cavities
  area:      155.063211635312     
  volume:    775.699995337579     
  Acav:     8.140818610853892E-002
  Solving linear dielectric/ionic screening model
        iter                  A_solv                     rms
   LPB:       -0.470280293491025E+00   0.260195564513609E-01
   LPB:    0  -0.470280291380772E+00   0.261012121867563E-01  -0.112701E-04   0.000000E+00   0.332282E+02  -0.374486E-03
   LPB:    1  -0.411026911848139E+00   0.102060570585474E-01   0.156961E-01   0.000000E+00   0.682752E+06  -0.552885E-20
   LPB:    2  -0.404333254663861E+00   0.850422462934123E-02   0.279093E-01   0.635319E-01   0.141478E+06  -0.351960E-16
   LPB:    3  -0.402091495821781E+00   0.143450607323405E-01   0.330476E-01   0.282836E+00   0.478194E+05   0.685740E-16
   LPB:    4  -0.401110157913442E+00   0.332432409330351E-01   0.356648E-01   0.405629E+00   0.732665E+04   0.153258E-15
   LPB:    5  -0.400646096450563E+00   0.752538325381528E-01   0.346568E-01   0.486641E+00   0.718957E+03   0.119069E-15
   LPB:    6  -0.400439413624489E+00   0.880827431696777E-01   0.237083E-01   0.651052E+00   0.172598E+03   0.250572E-15
   LPB:    7  -0.400284782229048E+00   0.499993800105830E-01   0.227772E-01   0.778745E+00   0.266036E+03  -0.316590E-15
   LPB:    8  -0.400188189033878E+00   0.572515902604153E-01   0.264207E-01   0.538523E+00   0.241283E+03  -0.424225E-15
   LPB:    9  -0.400122943811353E+00   0.267426914981120E-01   0.222412E-01   0.802394E+00   0.188400E+03  -0.457131E-15
   LPB:   10  -0.400068388438739E+00   0.707398116520255E-02   0.338346E-01   0.549650E+00   0.836911E+03  -0.809743E-15
   LPB:   11  -0.400032971588689E+00   0.321252860561604E-02   0.395602E-01   0.555232E+00   0.564971E+04  -0.760281E-15
   LPB:   12  -0.400010403927861E+00   0.382570942743008E-02   0.395102E-01   0.638008E+00   0.590453E+04  -0.784916E-15
   LPB:   13  -0.399996019137884E+00   0.458877697155946E-02   0.379131E-01   0.664258E+00   0.273452E+04  -0.819071E-15
   LPB:   14  -0.399986480743237E+00   0.392479413166106E-02   0.350792E-01   0.716656E+00   0.187671E+04  -0.843703E-15
   LPB:   15  -0.399979661453043E+00   0.253304479967161E-02   0.362440E-01   0.691956E+00   0.230373E+04  -0.853432E-15
   LPB:   16  -0.399974397491745E+00   0.161253183825659E-02   0.397312E-01   0.704170E+00   0.416916E+04  -0.867194E-15
   LPB:   17  -0.399970786409620E+00   0.162243724680881E-02   0.400911E-01   0.679842E+00   0.457333E+04  -0.877127E-15
   LPB:   18  -0.399968185961161E+00   0.180552375485501E-02   0.394400E-01   0.732019E+00   0.266992E+04  -0.886016E-15
   LPB:   19  -0.399966258694801E+00   0.166933563368234E-02   0.381801E-01   0.765585E+00   0.210353E+04  -0.902202E-15
   LPB:   20  -0.399964747451104E+00   0.118908072218807E-02   0.383669E-01   0.780321E+00   0.236176E+04  -0.918938E-15
   LPB:   21  -0.399963518972196E+00   0.799723097634574E-03   0.410877E-01   0.759063E+00   0.419096E+04  -0.925409E-15
   LPB:   22  -0.399962510405767E+00   0.739231722746253E-03   0.436695E-01   0.772451E+00   0.547935E+04  -0.938552E-15
   LPB:   23  -0.399961684349734E+00   0.875705409022246E-03   0.433668E-01   0.824757E+00   0.415697E+04  -0.949757E-15
   LPB:   24  -0.399961014334241E+00   0.967306340579912E-03   0.413662E-01   0.850327E+00   0.256030E+04  -0.958661E-15
   LPB:   25  -0.399960466786961E+00   0.856312753802660E-03   0.399973E-01   0.845186E+00   0.212155E+04  -0.967867E-15
   LPB:   26  -0.399960014529017E+00   0.640426364615767E-03   0.404465E-01   0.816797E+00   0.259379E+04  -0.977887E-15
   LPB:   27  -0.399959641624953E+00   0.517984176832271E-03   0.422520E-01   0.789304E+00   0.365002E+04  -0.981281E-15
   LPB:   28  -0.399959343751436E+00   0.534655003600602E-03   0.422223E-01   0.799356E+00   0.360939E+04  -0.984552E-15
   LPB:   29  -0.399959104108341E+00   0.551570293147593E-03   0.404902E-01   0.838929E+00   0.283673E+04  -0.987974E-15
   LPB:   30  -0.399958918221276E+00   0.483642210187052E-03   0.385426E-01   0.814879E+00   0.245047E+04  -0.989386E-15
   LPB:   31  -0.399958764248210E+00   0.367846777044287E-03   0.396853E-01   0.804464E+00   0.303841E+04  -0.991190E-15
  Finished solving LPB equations
  A_corr:   -0.318550578139671     
 End minimization
 Ecorr=   1934.11649564418     
 A_corr= -0.318550578139671     
 Ecorr_band=  -1934.43504622232     
 End Solvation calculations
DAV:   1    -0.181679556364E+03    0.32628E-01   -0.48077E+00 11166   0.377E+00    0.675E-01
 Begin Solvation calculations
  rms_SCF =   3.841482349654603E-003 tol =   3.841482349654603E-004
 Begin minimization
 Creating dielectric and ionic cavities
  area:      155.515569098749     
  volume:    775.886620542556     
  Acav:     8.164567377684334E-002
  Solving linear dielectric/ionic screening model
        iter                  A_solv                     rms
   LPB:       -0.400270092886077E+00   0.686990237611939E+00
   LPB:    0  -0.399915513592890E+00   0.561661625051438E+00   0.462036E-02   0.000000E+00   0.332194E+02   0.153486E+00
   LPB:    1  -0.396721480147221E+00   0.267725149708543E+00   0.128193E-01   0.000000E+00   0.115276E+03  -0.171604E-17
   LPB:    2  -0.396128092630353E+00   0.446108238565531E-01   0.130794E-01   0.182086E+00   0.179069E+03   0.110620E-15
   LPB:    3  -0.395933087212092E+00   0.280927734392612E-01   0.243522E-01   0.176505E+00   0.669778E+03   0.147624E-15
   LPB:    4  -0.395868774825612E+00   0.283647249483243E-01   0.256107E-01   0.313591E+00   0.252233E+03   0.108752E-16
   LPB:    5  -0.395839838936475E+00   0.202275546492964E-01   0.224959E-01   0.512224E+00   0.216871E+03   0.327064E-15
   LPB:    6  -0.395822014744329E+00   0.881274237147393E-02   0.280789E-01   0.493511E+00   0.203553E+03   0.620776E-15
   LPB:    7  -0.395812199620239E+00   0.446262314041521E-02   0.323354E-01   0.478175E+00   0.764576E+03   0.684641E-15
   LPB:    8  -0.395806606551687E+00   0.241368390318867E-02   0.326514E-01   0.564328E+00   0.735089E+03   0.637475E-15
   LPB:    9  -0.395803187203901E+00   0.143494087942777E-02   0.351899E-01   0.567253E+00   0.131690E+04   0.636056E-15
   LPB:   10  -0.395801110044447E+00   0.107889367595505E-02   0.369705E-01   0.578215E+00   0.142382E+04   0.619756E-15
   LPB:   11  -0.395799834390760E+00   0.851152026512876E-03   0.374356E-01   0.606503E+00   0.120700E+04   0.608030E-15
   LPB:   12  -0.395799047279780E+00   0.697089383833142E-03   0.373646E-01   0.618199E+00   0.158800E+04   0.608945E-15
   LPB:   13  -0.395798543709733E+00   0.593949768646278E-03   0.375592E-01   0.636455E+00   0.133227E+04   0.611311E-15
   LPB:   14  -0.395798219555298E+00   0.533295621284327E-03   0.371055E-01   0.651584E+00   0.152166E+04   0.611546E-15
   LPB:   15  -0.395798005332509E+00   0.490275389818935E-03   0.370293E-01   0.662227E+00   0.143379E+04   0.613055E-15
   LPB:   16  -0.395797862288155E+00   0.420216838973051E-03   0.361957E-01   0.683115E+00   0.135380E+04   0.614049E-15
   LPB:   17  -0.395797763266529E+00   0.327417950976271E-03   0.366296E-01   0.684044E+00   0.145800E+04   0.614563E-15
  Finished solving LPB equations
  A_corr:   -0.314152089489685     
 End minimization
 Ecorr=   1934.47693461524     
 A_corr= -0.314152089489685     
 Ecorr_band=  -1934.79108670473     
 End Solvation calculations
RMM:   2    -0.181700872939E+03   -0.21317E-01   -0.22808E-01 11321   0.755E-01    0.725E-01
 Begin Solvation calculations
  rms_SCF =   3.841482349654603E-003 tol =   3.841482349654603E-004
 Begin minimization
 Creating dielectric and ionic cavities
  area:      155.605335277634     
  volume:    775.879656428931     
  Acav:     8.169280102075765E-002
  Solving linear dielectric/ionic screening model
        iter                  A_solv                     rms
   LPB:       -0.401111094695904E+00   0.169234151799536E+01
   LPB:    0  -0.401077652914004E+00   0.168669289429197E+01   0.141893E-02   0.000000E+00   0.332198E+02   0.471366E-01
   LPB:    1  -0.393567943377559E+00   0.172229934763269E+00   0.863799E-02   0.000000E+00   0.705966E+02  -0.982411E-18
   LPB:    2  -0.392816435728957E+00   0.288254535666117E-01   0.162324E-01   0.532525E-01   0.124674E+03   0.220077E-16
   LPB:    3  -0.392735100936031E+00   0.117087803347270E-01   0.213771E-01   0.821821E-01   0.222404E+03  -0.139266E-15
   LPB:    4  -0.392712051768784E+00   0.502692250333111E-02   0.268182E-01   0.225890E+00   0.357614E+03  -0.252215E-16
   LPB:    5  -0.392703616307585E+00   0.358074372414802E-02   0.291274E-01   0.336963E+00   0.388826E+03  -0.180571E-16
   LPB:    6  -0.392699887597916E+00   0.457945862905778E-02   0.302634E-01   0.425435E+00   0.396597E+03   0.492673E-17
   LPB:    7  -0.392698172014894E+00   0.572759569564035E-02   0.273038E-01   0.509975E+00   0.174356E+03   0.374194E-16
   LPB:    8  -0.392697194866914E+00   0.303095128745317E-02   0.240093E-01   0.647726E+00   0.138792E+03   0.381665E-16
   LPB:    9  -0.392696521381318E+00   0.112401217203069E-02   0.315429E-01   0.524621E+00   0.310566E+03   0.434067E-17
   LPB:   10  -0.392696115048501E+00   0.478089562477975E-03   0.364560E-01   0.522020E+00   0.434554E+03  -0.642185E-17
   LPB:   11  -0.392695867000322E+00   0.365127168369266E-03   0.372511E-01   0.597425E+00   0.550843E+03   0.112941E-17
  Finished solving LPB equations
  A_corr:   -0.311003065979565     
 End minimization
 Ecorr=   1935.13712990500     
 A_corr= -0.311003065979565     
 Ecorr_band=  -1935.44813297098     
 End Solvation calculations
RMM:   3    -0.181734076979E+03   -0.33204E-01   -0.17440E-02 11467   0.222E-01    0.236E+00
 Begin Solvation calculations
  rms_SCF =   3.841482349654603E-003 tol =   3.841482349654603E-004
 Begin minimization
 Creating dielectric and ionic cavities
  area:      155.515704904609     
  volume:    775.873630002882     
  Acav:     8.164574507491965E-002
  Solving linear dielectric/ionic screening model
        iter                  A_solv                     rms
   LPB:       -0.401860966245016E+00   0.172362383998754E+01
   LPB:    0  -0.401858362401051E+00   0.172347732088230E+01   0.395934E-03   0.000000E+00   0.332201E+02   0.131529E-01
   LPB:    1  -0.393948136541447E+00   0.153540495216061E+00   0.857573E-02   0.000000E+00   0.724183E+02   0.559225E-18
   LPB:    2  -0.393322487928960E+00   0.279231557645126E-01   0.150342E-01   0.451162E-01   0.158220E+03   0.798552E-17
   LPB:    3  -0.393248255836578E+00   0.103463627868018E-01   0.222029E-01   0.803402E-01   0.216981E+03  -0.113232E-15
   LPB:    4  -0.393228733285324E+00   0.661619082650521E-02   0.270066E-01   0.216214E+00   0.381704E+03  -0.157817E-15
   LPB:    5  -0.393221258220933E+00   0.733635054329662E-02   0.267896E-01   0.385995E+00   0.397500E+03  -0.123276E-15
   LPB:    6  -0.393217758958806E+00   0.756651487278070E-02   0.264140E-01   0.474782E+00   0.164249E+03  -0.991761E-16
   LPB:    7  -0.393215827151805E+00   0.417425088917816E-02   0.243362E-01   0.599197E+00   0.169797E+03  -0.770406E-16
   LPB:    8  -0.393214562573702E+00   0.133074841607798E-02   0.311676E-01   0.511128E+00   0.283782E+03  -0.965179E-16
   LPB:    9  -0.393213808402932E+00   0.617330722234678E-03   0.361156E-01   0.514675E+00   0.696454E+03  -0.111023E-15
   LPB:   10  -0.393213352824076E+00   0.462339134000621E-03   0.373801E-01   0.583645E+00   0.736820E+03  -0.117973E-15
   LPB:   11  -0.393213062610541E+00   0.399824247758794E-03   0.379980E-01   0.626662E+00   0.838441E+03  -0.123668E-15
   LPB:   12  -0.393212876903139E+00   0.346112767068179E-03   0.373874E-01   0.650351E+00   0.840804E+03  -0.126956E-15
  Finished solving LPB equations
  A_corr:   -0.311567131828219     
 End minimization
 Ecorr=   1934.88492380897     
 A_corr= -0.311567131828219     
 Ecorr_band=  -1935.19649094080     
 End Solvation calculations
RMM:   4    -0.181698546376E+03    0.35531E-01   -0.84739E-03 11183   0.170E-01    0.624E-01
 Begin Solvation calculations
  rms_SCF =   3.841482349654603E-003 tol =   3.841482349654603E-004
 Begin minimization
 Creating dielectric and ionic cavities
  area:      155.382050843451     
  volume:    775.922145773657     
  Acav:     8.157557669281185E-002
  Solving linear dielectric/ionic screening model
        iter                  A_solv                     rms
   LPB:       -0.391707511501822E+00   0.315210986352001E+00
   LPB:    0  -0.391552449902222E+00   0.189350529805101E+00   0.305550E-02   0.000000E+00   0.332178E+02   0.101497E+00
   LPB:    1  -0.391173576403750E+00   0.762213338519086E-01   0.140786E-01   0.000000E+00   0.863301E+02  -0.332399E-17
   LPB:    2  -0.391113108417751E+00   0.219730563123224E-01   0.121650E-01   0.184704E+00   0.230962E+03  -0.361944E-16
   LPB:    3  -0.391097348449769E+00   0.158190947975359E-01   0.225987E-01   0.140301E+00   0.194724E+03  -0.461013E-16
   LPB:    4  -0.391092049025377E+00   0.843496953019027E-02   0.204482E-01   0.371623E+00   0.116630E+03  -0.528534E-16
   LPB:    5  -0.391089066175204E+00   0.346989730350195E-02   0.250714E-01   0.459071E+00   0.452736E+03  -0.984633E-16
   LPB:    6  -0.391087387423976E+00   0.122178578563330E-02   0.329914E-01   0.427693E+00   0.299385E+03  -0.152510E-15
   LPB:    7  -0.391086437610747E+00   0.788943157840429E-03   0.362869E-01   0.514403E+00   0.599486E+03  -0.184482E-15
   LPB:    8  -0.391085873265020E+00   0.785557081990402E-03   0.365644E-01   0.589654E+00   0.559285E+03  -0.199791E-15
   LPB:    9  -0.391085518184979E+00   0.681726467019120E-03   0.361155E-01   0.637010E+00   0.450299E+03  -0.206870E-15
   LPB:   10  -0.391085283910167E+00   0.532119120179990E-03   0.367456E-01   0.648467E+00   0.662412E+03  -0.209423E-15
   LPB:   11  -0.391085127128569E+00   0.396605988088441E-03   0.374261E-01   0.657052E+00   0.494175E+03  -0.210946E-15
   LPB:   12  -0.391085024206630E+00   0.318130837830041E-03   0.369769E-01   0.664442E+00   0.907688E+03  -0.216032E-15
  Finished solving LPB equations
  A_corr:   -0.309509447513818     
 End minimization
 Ecorr=   1934.95919854770     
 A_corr= -0.309509447513818     
 Ecorr_band=  -1935.26870799521     
 End Solvation calculations
