 vasp.5.4.4.18Apr17-6-g9f103f2a35 (build Feb 06 2024 13:54:16) complex          
  
 POSCAR found type information on POSCAR  Pd N  O 
 04/POSCAR found :  3 types and      40 ions
 scaLAPACK will be used

 ----------------------------------------------------------------------------- 
|                                                                             |
|  ADVICE TO THIS USER RUNNING 'VASP/VAMP'   (HEAR YOUR MASTER'S VOICE ...):  |
|                                                                             |
|      You enforced a specific xc-type in the INCAR file,                     |
|      a different type was found on the POTCAR file                          |
|          I HOPE YOU KNOW, WHAT YOU ARE  DOING                               |
|                                                                             |
 ----------------------------------------------------------------------------- 

 LDA part: xc-table for Pade appr. of Perdew
 POSCAR found type information on POSCAR  Pd N  O 
 00/POSCAR found :  3 types and      40 ions
 POSCAR found type information on POSCAR  Pd N  O 
 06/POSCAR found :  3 types and      40 ions
 Jacobian:    21.0960049830057     
 POSCAR, INCAR and KPOINTS ok, starting setup
 FFT: planning ...
 WAVECAR not read
 entering main loop
       N       E                     dE             d eps       ncg     rms          rms(c)
DAV:   1     0.203123373601E+04    0.20312E+04   -0.13219E+05  2790   0.932E+02
DAV:   2    -0.431924999147E+02   -0.20744E+04   -0.19439E+04  3186   0.257E+02
DAV:   3    -0.184806958569E+03   -0.14161E+03   -0.12725E+03  3177   0.617E+01
DAV:   4    -0.189908942356E+03   -0.51020E+01   -0.48686E+01  3231   0.120E+01
DAV:   5    -0.190106946548E+03   -0.19800E+00   -0.19584E+00  3267   0.240E+00    0.354E+01
RMM:   6    -0.187810133119E+03    0.22968E+01   -0.31440E+01  2779   0.117E+01    0.281E+01
RMM:   7    -0.288321989716E+03   -0.10051E+03   -0.46596E+01  2800   0.964E+00    0.696E+01
RMM:   8    -0.205787176005E+03    0.82535E+02   -0.27907E+01  2776   0.851E+00    0.425E+01
RMM:   9    -0.184364611519E+03    0.21423E+02   -0.18268E+01  2778   0.789E+00    0.172E+01
RMM:  10    -0.185533701281E+03   -0.11691E+01   -0.12344E+01  2778   0.648E+00    0.179E+01
RMM:  11    -0.183113904390E+03    0.24198E+01   -0.38030E+00  2781   0.377E+00    0.124E+01
RMM:  12    -0.182166380839E+03    0.94752E+00   -0.18991E+00  2778   0.260E+00    0.762E+00
RMM:  13    -0.181888606247E+03    0.27777E+00   -0.79425E-01  2780   0.164E+00    0.614E+00
RMM:  14    -0.181718827243E+03    0.16978E+00   -0.31946E-01  2781   0.107E+00    0.443E+00
RMM:  15    -0.181668027218E+03    0.50800E-01   -0.16726E-01  2779   0.772E-01    0.358E+00
RMM:  16    -0.181603846696E+03    0.64181E-01   -0.83800E-02  2780   0.560E-01    0.199E+00
RMM:  17    -0.181590234248E+03    0.13612E-01   -0.42101E-02  2780   0.385E-01    0.154E+00
RMM:  18    -0.181581690624E+03    0.85436E-02   -0.24434E-02  2780   0.292E-01    0.120E+00
RMM:  19    -0.181581413264E+03    0.27736E-03   -0.22107E-02  2779   0.273E-01    0.135E+00
RMM:  20    -0.181569718055E+03    0.11695E-01   -0.87202E-03  2780   0.180E-01    0.719E-01
RMM:  21    -0.181566782906E+03    0.29351E-02   -0.26903E-03  2740   0.989E-02    0.385E-01
RMM:  22    -0.181566350753E+03    0.43215E-03   -0.14563E-03  2732   0.716E-02    0.462E-01
RMM:  23    -0.181565321929E+03    0.10288E-02   -0.54794E-04  2415   0.487E-02    0.258E-01
RMM:  24    -0.181565250699E+03    0.71230E-04   -0.60252E-04  2569   0.496E-02
   1 F= -.18156525E+03 E0= -.18156315E+03  d E =-.181565E+03
quench:  g(F)=  0.000E+00 g(S)=  0.000E+00 dE (1.order)= 0.000E+00
 bond charge predicted
       N       E                     dE             d eps       ncg     rms          rms(c)
DAV:   1    -0.181572580071E+03   -0.72581E-02   -0.11642E-01  2883   0.589E-01    0.435E-01
RMM:   2    -0.182199745293E+03   -0.62717E+00   -0.71410E-02  2778   0.436E-01    0.932E+00
RMM:   3    -0.181575195052E+03    0.62455E+00   -0.52273E-02  2780   0.414E-01    0.922E-01
RMM:   4    -0.181572806567E+03    0.23885E-02   -0.92087E-03  2778   0.245E-01    0.344E-01
RMM:   5    -0.181572862435E+03   -0.55868E-04   -0.14912E-03  2771   0.771E-02    0.325E-01
RMM:   6    -0.181572396906E+03    0.46553E-03   -0.57852E-04  2461   0.480E-02    0.206E-01
RMM:   7    -0.181572603602E+03   -0.20670E-03   -0.21032E-04  1591   0.308E-02    0.212E-01
RMM:   8    -0.181572963277E+03   -0.35968E-03   -0.99906E-05  1541   0.212E-02    0.229E-01
RMM:   9    -0.181573240269E+03   -0.27699E-03   -0.68922E-05  1529   0.173E-02    0.214E-01
RMM:  10    -0.181573696733E+03   -0.45646E-03   -0.57964E-05  1546   0.143E-02    0.195E-01
RMM:  11    -0.181573824854E+03   -0.12812E-03   -0.31735E-05  1511   0.105E-02    0.143E-01
RMM:  12    -0.181574027806E+03   -0.20295E-03   -0.19105E-05  1402   0.746E-03    0.120E-01
RMM:  13    -0.181574199346E+03   -0.17154E-03   -0.13429E-05  1195   0.645E-03    0.789E-02
RMM:  14    -0.181574385780E+03   -0.18643E-03   -0.13917E-05  1300   0.650E-03    0.643E-02
RMM:  15    -0.181574742783E+03   -0.35700E-03   -0.28620E-05  1538   0.863E-03    0.590E-02
RMM:  16    -0.181574928048E+03   -0.18526E-03   -0.25342E-05  1363   0.736E-03    0.399E-02
RMM:  17    -0.181574993545E+03   -0.65497E-04   -0.12477E-05   838   0.541E-03
   2 F= -.18157499E+03 E0= -.18157281E+03  d E =-.974285E-02
quench:  g(F)=  0.000E+00 g(S)=  0.000E+00 dE (1.order)= 0.000E+00
 bond charge predicted
       N       E                     dE             d eps       ncg     rms          rms(c)
DAV:   1    -0.181583094855E+03   -0.81668E-02   -0.34898E-01  2838   0.105E+00    0.192E-01
RMM:   2    -0.181586148485E+03   -0.30536E-02   -0.13543E-02  2774   0.172E-01    0.583E-01
RMM:   3    -0.181585898119E+03    0.25037E-03   -0.98062E-04  2707   0.538E-02    0.585E-01
RMM:   4    -0.181583841569E+03    0.20566E-02   -0.72267E-04  2261   0.531E-02    0.128E-01
RMM:   5    -0.181584050589E+03   -0.20902E-03   -0.43316E-04  2136   0.434E-02    0.167E-01
RMM:   6    -0.181584056979E+03   -0.63899E-05   -0.22895E-04  1588   0.321E-02
   3 F= -.18158406E+03 E0= -.18158184E+03  d E =-.906343E-02
quench:  g(F)=  0.000E+00 g(S)=  0.000E+00 dE (1.order)= 0.000E+00
 bond charge predicted
       N       E                     dE             d eps       ncg     rms          rms(c)
DAV:   1    -0.181591383561E+03   -0.73330E-02   -0.46996E-01  2796   0.137E+00    0.214E-01
RMM:   2    -0.181628641615E+03   -0.37258E-01   -0.16639E-02  2790   0.221E-01    0.236E+00
RMM:   3    -0.181591567869E+03    0.37074E-01   -0.35506E-03  2781   0.118E-01    0.313E-01
RMM:   4    -0.181592814301E+03   -0.12464E-02   -0.16915E-03  2743   0.934E-02    0.324E-01
RMM:   5    -0.181592346214E+03    0.46809E-03   -0.53358E-04  2367   0.477E-02    0.165E-01
RMM:   6    -0.181592278728E+03    0.67486E-04   -0.22442E-04  1595   0.330E-02
   4 F= -.18159228E+03 E0= -.18159004E+03  d E =-.822175E-02
quench:  g(F)=  0.000E+00 g(S)=  0.000E+00 dE (1.order)= 0.000E+00
 bond charge predicted
       N       E                     dE             d eps       ncg     rms          rms(c)
DAV:   1    -0.181600514163E+03   -0.81679E-02   -0.66793E-01  2784   0.164E+00    0.238E-01
RMM:   2    -0.181607957814E+03   -0.74437E-02   -0.19432E-02  2795   0.241E-01    0.946E-01
RMM:   3    -0.181605349984E+03    0.26078E-02   -0.19455E-03  2781   0.793E-02    0.793E-01
RMM:   4    -0.181602219451E+03    0.31305E-02   -0.20013E-03  2733   0.891E-02    0.336E-01
RMM:   5    -0.181601905128E+03    0.31432E-03   -0.52794E-04  2450   0.503E-02    0.144E-01
RMM:   6    -0.181601869036E+03    0.36091E-04   -0.18918E-04  1557   0.291E-02
   5 F= -.18160187E+03 E0= -.18159947E+03  d E =-.959031E-02
quench:  g(F)=  0.000E+00 g(S)=  0.000E+00 dE (1.order)= 0.000E+00
 bond charge predicted
       N       E                     dE             d eps       ncg     rms          rms(c)
DAV:   1    -0.181610568989E+03   -0.86639E-02   -0.92652E-01  2784   0.194E+00    0.283E-01
RMM:   2    -0.181616528116E+03   -0.59591E-02   -0.26523E-02  2796   0.287E-01    0.749E-01
RMM:   3    -0.181620771608E+03   -0.42435E-02   -0.33231E-03  2774   0.106E-01    0.118E+00
RMM:   4    -0.181612942800E+03    0.78288E-02   -0.18262E-03  2741   0.854E-02    0.457E-01
RMM:   5    -0.181612712876E+03    0.22992E-03   -0.13176E-03  2752   0.756E-02    0.274E-01
RMM:   6    -0.181612331126E+03    0.38175E-03   -0.57013E-04  2456   0.491E-02    0.107E-01
RMM:   7    -0.181612458601E+03   -0.12747E-03   -0.21774E-04  1583   0.302E-02    0.123E-01
RMM:   8    -0.181612465808E+03   -0.72075E-05   -0.13173E-04  1470   0.265E-02
   6 F= -.18161247E+03 E0= -.18161004E+03  d E =-.105968E-01
quench:  g(F)=  0.000E+00 g(S)=  0.000E+00 dE (1.order)= 0.000E+00
 bond charge predicted
       N       E                     dE             d eps       ncg     rms          rms(c)
DAV:   1    -0.181621061735E+03   -0.86031E-02   -0.12055E+00  2784   0.220E+00    0.291E-01
RMM:   2    -0.181624294621E+03   -0.32329E-02   -0.32291E-02  2795   0.303E-01    0.342E-01
RMM:   3    -0.181639786624E+03   -0.15492E-01   -0.33561E-03  2787   0.100E-01    0.160E+00
RMM:   4    -0.181624243436E+03    0.15543E-01   -0.25031E-03  2766   0.970E-02    0.460E-01
RMM:   5    -0.181623603832E+03    0.63960E-03   -0.13231E-03  2770   0.807E-02    0.159E-01
RMM:   6    -0.181623597938E+03    0.58944E-05   -0.32788E-04  1820   0.366E-02
   7 F= -.18162360E+03 E0= -.18162104E+03  d E =-.111321E-01
quench:  g(F)=  0.000E+00 g(S)=  0.000E+00 dE (1.order)= 0.000E+00
 bond charge predicted
       N       E                     dE             d eps       ncg     rms          rms(c)
DAV:   1    -0.181632001570E+03   -0.83977E-02   -0.14857E+00  2772   0.242E+00    0.352E-01
RMM:   2    -0.181639844382E+03   -0.78428E-02   -0.42201E-02  2793   0.352E-01    0.827E-01
RMM:   3    -0.181645996038E+03   -0.61517E-02   -0.46341E-03  2790   0.125E-01    0.136E+00
RMM:   4    -0.181636978346E+03    0.90177E-02   -0.27034E-03  2749   0.102E-01    0.672E-01
RMM:   5    -0.181635356345E+03    0.16220E-02   -0.17998E-03  2771   0.896E-02    0.315E-01
RMM:   6    -0.181634937617E+03    0.41873E-03   -0.80863E-04  2719   0.583E-02    0.108E-01
RMM:   7    -0.181635266645E+03   -0.32903E-03   -0.31241E-04  1740   0.356E-02    0.166E-01
RMM:   8    -0.181635152109E+03    0.11454E-03   -0.22318E-04  1561   0.334E-02    0.735E-02
RMM:   9    -0.181635143428E+03    0.86805E-05   -0.79408E-05  1428   0.191E-02
   8 F= -.18163514E+03 E0= -.18163256E+03  d E =-.115455E-01
quench:  g(F)=  0.000E+00 g(S)=  0.000E+00 dE (1.order)= 0.000E+00
 bond charge predicted
       N       E                     dE             d eps       ncg     rms          rms(c)
DAV:   1    -0.181642598608E+03   -0.74465E-02   -0.17790E+00  2772   0.263E+00    0.351E-01
RMM:   2    -0.181646935483E+03   -0.43369E-02   -0.47453E-02  2806   0.362E-01    0.338E-01
RMM:   3    -0.181672977225E+03   -0.26042E-01   -0.48846E-03  2794   0.119E-01    0.204E+00
RMM:   4    -0.181646896673E+03    0.26081E-01   -0.33890E-03  2771   0.114E-01    0.487E-01
RMM:   5    -0.181646272813E+03    0.62386E-03   -0.17882E-03  2767   0.955E-02    0.180E-01
RMM:   6    -0.181646368894E+03   -0.96081E-04   -0.48563E-04  2252   0.437E-02
   9 F= -.18164637E+03 E0= -.18164368E+03  d E =-.112255E-01
quench:  g(F)=  0.000E+00 g(S)=  0.000E+00 dE (1.order)= 0.000E+00
 bond charge predicted
       N       E                     dE             d eps       ncg     rms          rms(c)
DAV:   1    -0.181652177747E+03   -0.59049E-02   -0.19922E+00  2772   0.274E+00    0.417E-01
RMM:   2    -0.181662922238E+03   -0.10744E-01   -0.57947E-02  2795   0.406E-01    0.972E-01
RMM:   3    -0.181669732158E+03   -0.68099E-02   -0.64437E-03  2790   0.147E-01    0.151E+00
RMM:   4    -0.181659618631E+03    0.10114E-01   -0.34775E-03  2764   0.115E-01    0.842E-01
RMM:   5    -0.181656470493E+03    0.31481E-02   -0.24164E-03  2772   0.103E-01    0.334E-01
RMM:   6    -0.181656198841E+03    0.27165E-03   -0.11175E-03  2740   0.683E-02    0.148E-01
RMM:   7    -0.181656516674E+03   -0.31783E-03   -0.38233E-04  1892   0.393E-02    0.168E-01
RMM:   8    -0.181656387943E+03    0.12873E-03   -0.26511E-04  1604   0.356E-02    0.725E-02
RMM:   9    -0.181656408707E+03   -0.20764E-04   -0.92048E-05  1430   0.208E-02
  10 F= -.18165641E+03 E0= -.18165371E+03  d E =-.100398E-01
quench:  g(F)=  0.000E+00 g(S)=  0.000E+00 dE (1.order)= 0.000E+00
 bond charge predicted
       N       E                     dE             d eps       ncg     rms          rms(c)
DAV:   1    -0.181657783973E+03   -0.13960E-02   -0.17241E+00  2772   0.243E+00    0.357E-01
RMM:   2    -0.181661639681E+03   -0.38557E-02   -0.49341E-02  2808   0.346E-01    0.275E-01
RMM:   3    -0.181685059558E+03   -0.23420E-01   -0.47929E-03  2790   0.119E-01    0.192E+00
RMM:   4    -0.181661359572E+03    0.23700E-01   -0.28563E-03  2773   0.104E-01    0.423E-01
RMM:   5    -0.181661376465E+03   -0.16893E-04   -0.18451E-03  2776   0.946E-02    0.233E-01
RMM:   6    -0.181661568270E+03   -0.19181E-03   -0.73375E-04  2671   0.528E-02    0.237E-01
RMM:   7    -0.181661270500E+03    0.29777E-03   -0.38162E-04  1943   0.396E-02    0.135E-01
RMM:   8    -0.181661246559E+03    0.23941E-04   -0.17372E-04  1555   0.284E-02
  11 F= -.18166125E+03 E0= -.18165849E+03  d E =-.483785E-02
quench:  g(F)=  0.000E+00 g(S)=  0.000E+00 dE (1.order)= 0.000E+00
 bond charge predicted
       N       E                     dE             d eps       ncg     rms          rms(c)
DAV:   1    -0.181662944474E+03   -0.16740E-02   -0.25718E-02  2820   0.250E-01    0.852E-02
RMM:   2    -0.181663621083E+03   -0.67661E-03   -0.21347E-03  2760   0.784E-02    0.278E-01
RMM:   3    -0.181663912488E+03   -0.29141E-03   -0.40933E-04  2014   0.386E-02    0.378E-01
RMM:   4    -0.181663046534E+03    0.86595E-03   -0.15037E-04  1551   0.256E-02    0.123E-01
RMM:   5    -0.181663031002E+03    0.15533E-04   -0.97879E-05  1511   0.228E-02
  12 F= -.18166303E+03 E0= -.18166028E+03  d E =-.178444E-02
quench:  g(F)=  0.000E+00 g(S)=  0.000E+00 dE (1.order)= 0.000E+00
 bond charge predicted
       N       E                     dE             d eps       ncg     rms          rms(c)
DAV:   1    -0.181664821185E+03   -0.17747E-02   -0.76618E-02  2796   0.439E-01    0.121E-01
RMM:   2    -0.181665951825E+03   -0.11306E-02   -0.41154E-03  2733   0.960E-02    0.379E-01
RMM:   3    -0.181666268795E+03   -0.31697E-03   -0.44742E-04  2055   0.386E-02    0.466E-01
RMM:   4    -0.181665105726E+03    0.11631E-02   -0.36397E-04  1913   0.393E-02    0.194E-01
RMM:   5    -0.181664960646E+03    0.14508E-03   -0.22340E-04  1611   0.328E-02    0.783E-02
RMM:   6    -0.181665021038E+03   -0.60392E-04   -0.15707E-04  1549   0.271E-02
  13 F= -.18166502E+03 E0= -.18166235E+03  d E =-.199004E-02
quench:  g(F)=  0.000E+00 g(S)=  0.000E+00 dE (1.order)= 0.000E+00
 bond charge predicted
       N       E                     dE             d eps       ncg     rms          rms(c)
DAV:   1    -0.181666319656E+03   -0.13590E-02   -0.87049E-02  2772   0.557E-01    0.113E-01
RMM:   2    -0.181667450699E+03   -0.11310E-02   -0.36303E-03  2776   0.107E-01    0.367E-01
RMM:   3    -0.181667408615E+03    0.42084E-04   -0.73988E-04  2713   0.512E-02
  14 F= -.18166741E+03 E0= -.18166441E+03  d E =-.238758E-02
quench:  g(F)=  0.000E+00 g(S)=  0.000E+00 dE (1.order)= 0.000E+00
 bond charge predicted
       N       E                     dE             d eps       ncg     rms          rms(c)
DAV:   1    -0.181667927910E+03   -0.47721E-03   -0.11639E-01  2784   0.672E-01    0.184E-01
RMM:   2    -0.181722493566E+03   -0.54566E-01   -0.95973E-03  2786   0.184E-01    0.288E+00
RMM:   3    -0.181668157942E+03    0.54336E-01   -0.51489E-03  2775   0.138E-01    0.468E-01
RMM:   4    -0.181668126410E+03    0.31533E-04   -0.16018E-03  2744   0.101E-01    0.130E-01
RMM:   5    -0.181668314118E+03   -0.18771E-03   -0.24310E-04  1617   0.321E-02    0.163E-01
RMM:   6    -0.181668129455E+03    0.18466E-03   -0.14073E-04  1523   0.270E-02    0.698E-02
RMM:   7    -0.181668166555E+03   -0.37100E-04   -0.60970E-05  1468   0.171E-02
  15 F= -.18166817E+03 E0= -.18166548E+03  d E =-.757940E-03
quench:  g(F)=  0.000E+00 g(S)=  0.000E+00 dE (1.order)= 0.000E+00
 bond charge predicted
       N       E                     dE             d eps       ncg     rms          rms(c)
DAV:   1    -0.181669751094E+03   -0.16216E-02   -0.14988E-01  2772   0.733E-01    0.118E-01
RMM:   2    -0.181671037957E+03   -0.12869E-02   -0.43170E-03  2770   0.109E-01    0.377E-01
RMM:   3    -0.181670969272E+03    0.68685E-04   -0.40216E-04  1942   0.354E-02
  16 F= -.18167097E+03 E0= -.18166802E+03  d E =-.280272E-02
quench:  g(F)=  0.000E+00 g(S)=  0.000E+00 dE (1.order)= 0.000E+00
 bond charge predicted
       N       E                     dE             d eps       ncg     rms          rms(c)
DAV:   1    -0.181671674549E+03   -0.63659E-03   -0.20136E-01  2772   0.868E-01    0.212E-01
RMM:   2    -0.181676863252E+03   -0.51887E-02   -0.97955E-03  2782   0.193E-01    0.802E-01
RMM:   3    -0.181672514174E+03    0.43491E-02   -0.30538E-03  2772   0.108E-01    0.403E-01
RMM:   4    -0.181672362257E+03    0.15192E-03   -0.39580E-04  1982   0.442E-02    0.302E-01
RMM:   5    -0.181672343454E+03    0.18803E-04   -0.43781E-04  2082   0.421E-02
  17 F= -.18167234E+03 E0= -.18166983E+03  d E =-.137418E-02
quench:  g(F)=  0.000E+00 g(S)=  0.000E+00 dE (1.order)= 0.000E+00
 bond charge predicted
       N       E                     dE             d eps       ncg     rms          rms(c)
DAV:   1    -0.181673595026E+03   -0.12328E-02   -0.23751E-01  2772   0.927E-01    0.165E-01
RMM:   2    -0.181676971126E+03   -0.33761E-02   -0.72853E-03  2787   0.146E-01    0.671E-01
RMM:   3    -0.181675776449E+03    0.11947E-02   -0.91722E-04  2706   0.542E-02    0.554E-01
RMM:   4    -0.181674210126E+03    0.15663E-02   -0.84185E-04  2716   0.596E-02    0.197E-01
RMM:   5    -0.181674265211E+03   -0.55085E-04   -0.34636E-04  1768   0.387E-02
  18 F= -.18167427E+03 E0= -.18167167E+03  d E =-.192176E-02
quench:  g(F)=  0.000E+00 g(S)=  0.000E+00 dE (1.order)= 0.000E+00
 bond charge predicted
       N       E                     dE             d eps       ncg     rms          rms(c)
DAV:   1    -0.181675426893E+03   -0.12168E-02   -0.27422E-01  2772   0.980E-01    0.176E-01
RMM:   2    -0.181677742885E+03   -0.23160E-02   -0.80710E-03  2800   0.157E-01    0.501E-01
RMM:   3    -0.181676769454E+03    0.97343E-03   -0.13351E-03  2768   0.697E-02    0.444E-01
RMM:   4    -0.181676549792E+03    0.21966E-03   -0.37566E-04  1943   0.387E-02    0.359E-01
RMM:   5    -0.181676135604E+03    0.41419E-03   -0.42677E-04  2055   0.441E-02    0.186E-01
RMM:   6    -0.181675971018E+03    0.16459E-03   -0.22557E-04  1585   0.333E-02    0.676E-02
RMM:   7    -0.181676028116E+03   -0.57098E-04   -0.10142E-04  1443   0.216E-02
  19 F= -.18167603E+03 E0= -.18167333E+03  d E =-.176291E-02
quench:  g(F)=  0.000E+00 g(S)=  0.000E+00 dE (1.order)= 0.000E+00
 bond charge predicted
       N       E                     dE             d eps       ncg     rms          rms(c)
DAV:   1    -0.181676752640E+03   -0.78162E-03   -0.21494E-01  2772   0.837E-01    0.150E-01
RMM:   2    -0.181677722547E+03   -0.96991E-03   -0.74558E-03  2777   0.134E-01    0.265E-01
RMM:   3    -0.181680276608E+03   -0.25541E-02   -0.88069E-04  2696   0.512E-02    0.698E-01
RMM:   4    -0.181677289181E+03    0.29874E-02   -0.49827E-04  2221   0.447E-02    0.232E-01
RMM:   5    -0.181677175628E+03    0.11355E-03   -0.35361E-04  1734   0.423E-02    0.699E-02
RMM:   6    -0.181677283219E+03   -0.10759E-03   -0.16491E-04  1524   0.274E-02    0.115E-01
RMM:   7    -0.181677210603E+03    0.72616E-04   -0.88721E-05  1457   0.213E-02
  20 F= -.18167721E+03 E0= -.18167444E+03  d E =-.118249E-02
quench:  g(F)=  0.000E+00 g(S)=  0.000E+00 dE (1.order)= 0.000E+00
 bond charge predicted
       N       E                     dE             d eps       ncg     rms          rms(c)
DAV:   1    -0.181677793171E+03   -0.50995E-03   -0.93429E-02  2772   0.534E-01    0.998E-02
RMM:   2    -0.181679077660E+03   -0.12845E-02   -0.32654E-03  2743   0.925E-02    0.387E-01
RMM:   3    -0.181678772970E+03    0.30469E-03   -0.36696E-04  1896   0.365E-02    0.391E-01
RMM:   4    -0.181677992594E+03    0.78038E-03   -0.26099E-04  1663   0.350E-02    0.141E-01
RMM:   5    -0.181677993301E+03   -0.70719E-06   -0.15297E-04  1563   0.277E-02
  21 F= -.18167799E+03 E0= -.18167529E+03  d E =-.782698E-03
quench:  g(F)=  0.000E+00 g(S)=  0.000E+00 dE (1.order)= 0.000E+00
 bond charge predicted
       N       E                     dE             d eps       ncg     rms          rms(c)
DAV:   1    -0.181678410195E+03   -0.41760E-03   -0.46440E-02  2772   0.399E-01    0.857E-02
RMM:   2    -0.181679127342E+03   -0.71715E-03   -0.19196E-03  2764   0.802E-02    0.287E-01
RMM:   3    -0.181679135802E+03   -0.84602E-05   -0.40289E-04  1993   0.385E-02
  22 F= -.18167914E+03 E0= -.18167667E+03  d E =-.114250E-02
quench:  g(F)=  0.000E+00 g(S)=  0.000E+00 dE (1.order)= 0.000E+00
 bond charge predicted
       N       E                     dE             d eps       ncg     rms          rms(c)
DAV:   1    -0.181678852954E+03    0.27439E-03   -0.62602E-02  2772   0.491E-01    0.133E-01
RMM:   2    -0.181704707149E+03   -0.25854E-01   -0.45442E-03  2777   0.128E-01    0.198E+00
RMM:   3    -0.181678750711E+03    0.25956E-01   -0.25257E-03  2743   0.990E-02    0.329E-01
RMM:   4    -0.181678945070E+03   -0.19436E-03   -0.76567E-04  2649   0.717E-02    0.984E-02
RMM:   5    -0.181679150951E+03   -0.20588E-03   -0.16150E-04  1553   0.265E-02    0.150E-01
RMM:   6    -0.181678995779E+03    0.15517E-03   -0.10022E-04  1495   0.232E-02    0.463E-02
RMM:   7    -0.181679037144E+03   -0.41365E-04   -0.37548E-05  1455   0.128E-02
  23 F= -.18167904E+03 E0= -.18167631E+03  d E =0.986580E-04
quench:  g(F)=  0.000E+00 g(S)=  0.000E+00 dE (1.order)= 0.000E+00
 bond charge predicted
       N       E                     dE             d eps       ncg     rms          rms(c)
DAV:   1    -0.181679380524E+03   -0.38475E-03   -0.79344E-02  2784   0.519E-01    0.804E-02
RMM:   2    -0.181679568541E+03   -0.18802E-03   -0.20551E-03  2187   0.722E-02    0.830E-02
RMM:   3    -0.181679988792E+03   -0.42025E-03   -0.22125E-04  1572   0.299E-02    0.276E-01
RMM:   4    -0.181679836321E+03    0.15247E-03   -0.12247E-04  1539   0.223E-02    0.235E-01
RMM:   5    -0.181679520742E+03    0.31558E-03   -0.97544E-05  1531   0.232E-02    0.604E-02
RMM:   6    -0.181679533483E+03   -0.12741E-04   -0.41555E-05  1431   0.144E-02
  24 F= -.18167953E+03 E0= -.18167687E+03  d E =-.496339E-03
quench:  g(F)=  0.000E+00 g(S)=  0.000E+00 dE (1.order)= 0.000E+00
 bond charge predicted
       N       E                     dE             d eps       ncg     rms          rms(c)
DAV:   1    -0.181679775369E+03   -0.25463E-03   -0.10562E-01  2772   0.596E-01    0.968E-02
RMM:   2    -0.181680358096E+03   -0.58273E-03   -0.27596E-03  2633   0.861E-02    0.233E-01
RMM:   3    -0.181680812682E+03   -0.45459E-03   -0.25268E-04  1611   0.293E-02    0.380E-01
RMM:   4    -0.181679969505E+03    0.84318E-03   -0.25951E-04  1676   0.338E-02    0.129E-01
RMM:   5    -0.181680015618E+03   -0.46113E-04   -0.13266E-04  1535   0.270E-02
  25 F= -.18168002E+03 E0= -.18167742E+03  d E =-.482136E-03
quench:  g(F)=  0.000E+00 g(S)=  0.000E+00 dE (1.order)= 0.000E+00
 bond charge predicted
       N       E                     dE             d eps       ncg     rms          rms(c)
DAV:   1    -0.181680042097E+03   -0.72592E-04   -0.12624E-01  2772   0.651E-01    0.119E-01
RMM:   2    -0.181681064985E+03   -0.10229E-02   -0.36988E-03  2745   0.996E-02    0.342E-01
RMM:   3    -0.181681450574E+03   -0.38559E-03   -0.45622E-04  2062   0.396E-02    0.459E-01
RMM:   4    -0.181680397956E+03    0.10526E-02   -0.34232E-04  1909   0.382E-02    0.205E-01
RMM:   5    -0.181680292510E+03    0.10545E-03   -0.18534E-04  1592   0.302E-02    0.874E-02
RMM:   6    -0.181680297019E+03   -0.45094E-05   -0.96117E-05  1479   0.218E-02
  26 F= -.18168030E+03 E0= -.18167767E+03  d E =-.281401E-03
quench:  g(F)=  0.000E+00 g(S)=  0.000E+00 dE (1.order)= 0.000E+00
 bond charge predicted
       N       E                     dE             d eps       ncg     rms          rms(c)
DAV:   1    -0.181680123106E+03    0.16940E-03   -0.14747E-01  2772   0.696E-01    0.111E-01
RMM:   2    -0.181680703666E+03   -0.58056E-03   -0.36054E-03  2597   0.948E-02    0.217E-01
RMM:   3    -0.181681424331E+03   -0.72067E-03   -0.30580E-04  1699   0.315E-02    0.422E-01
RMM:   4    -0.181680499739E+03    0.92459E-03   -0.35954E-04  1902   0.392E-02    0.175E-01
RMM:   5    -0.181680436167E+03    0.63572E-04   -0.18310E-04  1552   0.311E-02
  27 F= -.18168044E+03 E0= -.18167774E+03  d E =-.139148E-03
quench:  g(F)=  0.000E+00 g(S)=  0.000E+00 dE (1.order)= 0.000E+00
 bond charge predicted
       N       E                     dE             d eps       ncg     rms          rms(c)
DAV:   1    -0.181680046896E+03    0.45284E-03   -0.10586E-01  2772   0.571E-01    0.123E-01
RMM:   2    -0.181680977650E+03   -0.93075E-03   -0.41205E-03  2746   0.101E-01    0.318E-01
RMM:   3    -0.181681707531E+03   -0.72988E-03   -0.53058E-04  2241   0.415E-02    0.495E-01
RMM:   4    -0.181680417047E+03    0.12905E-02   -0.31192E-04  1797   0.359E-02    0.218E-01
RMM:   5    -0.181680258400E+03    0.15865E-03   -0.23057E-04  1614   0.338E-02    0.843E-02
RMM:   6    -0.181680303313E+03   -0.44913E-04   -0.12288E-04  1509   0.244E-02
  28 F= -.18168030E+03 E0= -.18167771E+03  d E =0.132854E-03
quench:  g(F)=  0.000E+00 g(S)=  0.000E+00 dE (1.order)= 0.000E+00
 bond charge predicted
       N       E                     dE             d eps       ncg     rms          rms(c)
DAV:   1    -0.181680233644E+03    0.24756E-04   -0.32852E-02  2772   0.312E-01    0.720E-02
RMM:   2    -0.181680650366E+03   -0.41672E-03   -0.14036E-03  2669   0.671E-02    0.208E-01
RMM:   3    -0.181680339969E+03    0.31040E-03   -0.28096E-04  1628   0.342E-02    0.109E-01
RMM:   4    -0.181680462528E+03   -0.12256E-03   -0.65002E-05  1474   0.155E-02    0.173E-01
RMM:   5    -0.181680308936E+03    0.15359E-03   -0.67659E-05  1465   0.174E-02    0.666E-02
RMM:   6    -0.181680302162E+03    0.67739E-05   -0.41511E-05  1418   0.150E-02
  29 F= -.18168030E+03 E0= -.18167766E+03  d E =0.115071E-05
quench:  g(F)=  0.000E+00 g(S)=  0.000E+00 dE (1.order)= 0.000E+00
 bond charge predicted
       N       E                     dE             d eps       ncg     rms          rms(c)
DAV:   1    -0.181679980047E+03    0.32889E-03   -0.20091E-02  2772   0.261E-01    0.540E-02
RMM:   2    -0.181680316736E+03   -0.33669E-03   -0.70591E-04  1964   0.492E-02    0.206E-01
RMM:   3    -0.181680125627E+03    0.19111E-03   -0.16456E-04  1543   0.284E-02    0.161E-01
RMM:   4    -0.181680047307E+03    0.78320E-04   -0.44126E-05  1484   0.145E-02
  30 F= -.18168005E+03 E0= -.18167746E+03  d E =0.254855E-03
quench:  g(F)=  0.000E+00 g(S)=  0.000E+00 dE (1.order)= 0.000E+00
 bond charge predicted
       N       E                     dE             d eps       ncg     rms          rms(c)
DAV:   1    -0.181679433395E+03    0.69223E-03   -0.30865E-02  2772   0.329E-01    0.757E-02
RMM:   2    -0.181680301003E+03   -0.86761E-03   -0.12716E-03  2697   0.668E-02    0.335E-01
RMM:   3    -0.181680304418E+03   -0.34151E-05   -0.25279E-04  1656   0.302E-02
  31 F= -.18168030E+03 E0= -.18167800E+03  d E =-.257111E-03
quench:  g(F)=  0.000E+00 g(S)=  0.000E+00 dE (1.order)= 0.000E+00
 bond charge predicted
       N       E                     dE             d eps       ncg     rms          rms(c)
DAV:   1    -0.181678573033E+03    0.17280E-02   -0.44335E-02  2772   0.428E-01    0.105E-01
RMM:   2    -0.181682463518E+03   -0.38905E-02   -0.21647E-03  2779   0.941E-02    0.758E-01
RMM:   3    -0.181679855226E+03    0.26083E-02   -0.72212E-04  2593   0.501E-02    0.470E-01
RMM:   4    -0.181678586061E+03    0.12692E-02   -0.38542E-04  1967   0.449E-02    0.747E-02
RMM:   5    -0.181678804341E+03   -0.21828E-03   -0.13696E-04  1544   0.263E-02    0.117E-01
RMM:   6    -0.181678716148E+03    0.88193E-04   -0.72476E-05  1418   0.197E-02
  32 F= -.18167872E+03 E0= -.18167618E+03  d E =0.158827E-02
quench:  g(F)=  0.000E+00 g(S)=  0.000E+00 dE (1.order)= 0.000E+00
 bond charge predicted
       N       E                     dE             d eps       ncg     rms          rms(c)
DAV:   1    -0.181677918110E+03    0.88623E-03   -0.52748E-02  2772   0.424E-01    0.826E-02
RMM:   2    -0.181678441736E+03   -0.52363E-03   -0.17812E-03  2697   0.734E-02    0.249E-01
RMM:   3    -0.181678830648E+03   -0.38891E-03   -0.27877E-04  1677   0.324E-02    0.371E-01
RMM:   4    -0.181678011271E+03    0.81938E-03   -0.17556E-04  1556   0.280E-02    0.113E-01
RMM:   5    -0.181678042992E+03   -0.31721E-04   -0.10436E-04  1515   0.231E-02
  33 F= -.18167804E+03 E0= -.18167545E+03  d E =0.673157E-03
quench:  g(F)=  0.000E+00 g(S)=  0.000E+00 dE (1.order)= 0.000E+00
 bond charge predicted
       N       E                     dE             d eps       ncg     rms          rms(c)
DAV:   1    -0.181677072722E+03    0.93855E-03   -0.67028E-02  2772   0.480E-01    0.962E-02
RMM:   2    -0.181678433133E+03   -0.13604E-02   -0.22145E-03  2724   0.812E-02    0.428E-01
RMM:   3    -0.181678034998E+03    0.39814E-03   -0.35956E-04  1900   0.355E-02    0.395E-01
RMM:   4    -0.181677133719E+03    0.90128E-03   -0.26002E-04  1663   0.350E-02    0.112E-01
RMM:   5    -0.181677232120E+03   -0.98401E-04   -0.14091E-04  1540   0.268E-02
  34 F= -.18167723E+03 E0= -.18167473E+03  d E =0.810872E-03
quench:  g(F)=  0.000E+00 g(S)=  0.000E+00 dE (1.order)= 0.000E+00
 bond charge predicted
       N       E                     dE             d eps       ncg     rms          rms(c)
DAV:   1    -0.181676179210E+03    0.95451E-03   -0.75577E-02  2772   0.511E-01    0.104E-01
RMM:   2    -0.181676696340E+03   -0.51713E-03   -0.25107E-03  2723   0.841E-02    0.236E-01
RMM:   3    -0.181676828346E+03   -0.13201E-03   -0.40462E-04  1957   0.391E-02    0.307E-01
RMM:   4    -0.181676634430E+03    0.19392E-03   -0.17865E-04  1555   0.268E-02    0.247E-01
RMM:   5    -0.181676343219E+03    0.29121E-03   -0.15694E-04  1555   0.279E-02    0.990E-02
RMM:   6    -0.181676320015E+03    0.23204E-04   -0.83510E-05  1481   0.208E-02
  35 F= -.18167632E+03 E0= -.18167391E+03  d E =0.912105E-03
quench:  g(F)=  0.000E+00 g(S)=  0.000E+00 dE (1.order)= 0.000E+00
 bond charge predicted
       N       E                     dE             d eps       ncg     rms          rms(c)
DAV:   1    -0.181675293841E+03    0.10494E-02   -0.80960E-02  2772   0.518E-01    0.958E-02
RMM:   2    -0.181675771129E+03   -0.47729E-03   -0.23939E-03  2734   0.823E-02    0.210E-01
RMM:   3    -0.181675760986E+03    0.10143E-04   -0.37133E-04  1829   0.377E-02
  36 F= -.18167576E+03 E0= -.18167342E+03  d E =0.559029E-03
quench:  g(F)=  0.000E+00 g(S)=  0.000E+00 dE (1.order)= 0.000E+00
 bond charge predicted
       N       E                     dE             d eps       ncg     rms          rms(c)
DAV:   1    -0.181675278130E+03    0.49300E-03   -0.19997E-02  2790   0.287E-01    0.239E-01
RMM:   2    -0.181839542690E+03   -0.16426E+00   -0.18118E-02  2775   0.229E-01    0.495E+00
RMM:   3    -0.181674750832E+03    0.16479E+00   -0.14516E-02  2778   0.229E-01    0.504E-01
RMM:   4    -0.181675143334E+03   -0.39250E-03   -0.30481E-03  2760   0.147E-01    0.152E-01
RMM:   5    -0.181675312773E+03   -0.16944E-03   -0.35085E-04  1882   0.380E-02    0.178E-01
RMM:   6    -0.181675095331E+03    0.21744E-03   -0.15817E-04  1543   0.283E-02    0.552E-02
RMM:   7    -0.181675120597E+03   -0.25266E-04   -0.41821E-05  1476   0.136E-02
  37 F= -.18167512E+03 E0= -.18167274E+03  d E =0.640389E-03
quench:  g(F)=  0.000E+00 g(S)=  0.000E+00 dE (1.order)= 0.000E+00
 bond charge predicted
       N       E                     dE             d eps       ncg     rms          rms(c)
DAV:   1    -0.181674978606E+03    0.11672E-03   -0.16639E-03  2772   0.804E-02    0.272E-02
RMM:   2    -0.181675113204E+03   -0.13460E-03   -0.12737E-04  1487   0.241E-02    0.140E-01
RMM:   3    -0.181675129586E+03   -0.16383E-04   -0.51681E-05  1465   0.156E-02
  38 F= -.18167513E+03 E0= -.18167264E+03  d E =-.898958E-05
quench:  g(F)=  0.000E+00 g(S)=  0.000E+00 dE (1.order)= 0.000E+00
 bond charge predicted
       N       E                     dE             d eps       ncg     rms          rms(c)
DAV:   1    -0.181674657279E+03    0.45592E-03   -0.39375E-03  2772   0.135E-01    0.318E-02
RMM:   2    -0.181675399859E+03   -0.74258E-03   -0.21482E-04  1591   0.321E-02    0.328E-01
RMM:   3    -0.181674691840E+03    0.70802E-03   -0.90947E-05  1516   0.213E-02    0.117E-01
RMM:   4    -0.181674661757E+03    0.30083E-04   -0.40516E-05  1493   0.161E-02
  39 F= -.18167466E+03 E0= -.18167225E+03  d E =0.467829E-03
quench:  g(F)=  0.000E+00 g(S)=  0.000E+00 dE (1.order)= 0.000E+00
 bond charge predicted
       N       E                     dE             d eps       ncg     rms          rms(c)
DAV:   1    -0.181674158164E+03    0.53368E-03   -0.59924E-03  2772   0.148E-01    0.378E-02
RMM:   2    -0.181674367479E+03   -0.20931E-03   -0.28119E-04  1647   0.332E-02    0.169E-01
RMM:   3    -0.181674382055E+03   -0.14577E-04   -0.10051E-04  1491   0.221E-02
  40 F= -.18167438E+03 E0= -.18167186E+03  d E =0.279702E-03
quench:  g(F)=  0.000E+00 g(S)=  0.000E+00 dE (1.order)= 0.000E+00
 bond charge predicted
       N       E                     dE             d eps       ncg     rms          rms(c)
DAV:   1    -0.181673407567E+03    0.95991E-03   -0.10147E-02  2772   0.208E-01    0.485E-02
RMM:   2    -0.181675106411E+03   -0.16988E-02   -0.53632E-04  2060   0.470E-02    0.511E-01
RMM:   3    -0.181673456010E+03    0.16504E-02   -0.19502E-04  1560   0.300E-02    0.154E-01
RMM:   4    -0.181673421502E+03    0.34508E-04   -0.94941E-05  1539   0.243E-02
  41 F= -.18167342E+03 E0= -.18167108E+03  d E =0.960554E-03
quench:  g(F)=  0.000E+00 g(S)=  0.000E+00 dE (1.order)= 0.000E+00
 bond charge predicted
       N       E                     dE             d eps       ncg     rms          rms(c)
DAV:   1    -0.181672491197E+03    0.96481E-03   -0.14074E-02  2772   0.229E-01    0.590E-02
RMM:   2    -0.181672935444E+03   -0.44425E-03   -0.72327E-04  2317   0.512E-02    0.238E-01
RMM:   3    -0.181673158503E+03   -0.22306E-03   -0.18542E-04  1550   0.268E-02    0.328E-01
RMM:   4    -0.181672462447E+03    0.69606E-03   -0.10977E-04  1539   0.232E-02    0.550E-02
RMM:   5    -0.181672516145E+03   -0.53697E-04   -0.52419E-05  1469   0.169E-02
  42 F= -.18167252E+03 E0= -.18167019E+03  d E =0.905357E-03
quench:  g(F)=  0.000E+00 g(S)=  0.000E+00 dE (1.order)= 0.000E+00
 bond charge predicted
       N       E                     dE             d eps       ncg     rms          rms(c)
DAV:   1    -0.181671333013E+03    0.11294E-02   -0.20003E-02  2772   0.273E-01    0.602E-02
RMM:   2    -0.181671687046E+03   -0.35403E-03   -0.79433E-04  2115   0.511E-02    0.211E-01
RMM:   3    -0.181671472662E+03    0.21438E-03   -0.20167E-04  1541   0.309E-02    0.158E-01
RMM:   4    -0.181671396164E+03    0.76498E-04   -0.48128E-05  1481   0.149E-02
  43 F= -.18167140E+03 E0= -.18166906E+03  d E =0.111998E-02
quench:  g(F)=  0.000E+00 g(S)=  0.000E+00 dE (1.order)= 0.000E+00
 bond charge predicted
       N       E                     dE             d eps       ncg     rms          rms(c)
DAV:   1    -0.181670043472E+03    0.14292E-02   -0.25109E-02  2772   0.308E-01    0.869E-02
RMM:   2    -0.181671356397E+03   -0.13129E-02   -0.15612E-03  2765   0.755E-02    0.427E-01
RMM:   3    -0.181671331894E+03    0.24503E-04   -0.49529E-04  2238   0.424E-02
  44 F= -.18167133E+03 E0= -.18166864E+03  d E =0.642691E-04
quench:  g(F)=  0.000E+00 g(S)=  0.000E+00 dE (1.order)= 0.000E+00
 bond charge predicted
       N       E                     dE             d eps       ncg     rms          rms(c)
DAV:   1    -0.181668729171E+03    0.26272E-02   -0.29302E-02  2772   0.376E-01    0.918E-02
RMM:   2    -0.181671899446E+03   -0.31703E-02   -0.18778E-03  2776   0.916E-02    0.678E-01
RMM:   3    -0.181669972121E+03    0.19273E-02   -0.62922E-04  2463   0.476E-02    0.466E-01
RMM:   4    -0.181668716735E+03    0.12554E-02   -0.32406E-04  1870   0.415E-02    0.561E-02
RMM:   5    -0.181668886796E+03   -0.17006E-03   -0.10631E-04  1532   0.237E-02    0.623E-02
RMM:   6    -0.181668884543E+03    0.22528E-05   -0.40017E-05  1411   0.142E-02
  45 F= -.18166888E+03 E0= -.18166660E+03  d E =0.244735E-02
quench:  g(F)=  0.000E+00 g(S)=  0.000E+00 dE (1.order)= 0.000E+00
 bond charge predicted
       N       E                     dE             d eps       ncg     rms          rms(c)
DAV:   1    -0.181667914370E+03    0.97243E-03   -0.16726E-02  2772   0.242E-01    0.621E-02
RMM:   2    -0.181669722911E+03   -0.18085E-02   -0.94028E-04  2450   0.546E-02    0.514E-01
RMM:   3    -0.181668102540E+03    0.16204E-02   -0.23973E-04  1621   0.307E-02    0.207E-01
RMM:   4    -0.181667944042E+03    0.15850E-03   -0.15610E-04  1568   0.296E-02    0.587E-02
RMM:   5    -0.181667949515E+03   -0.54724E-05   -0.52374E-05  1421   0.156E-02
  46 F= -.18166795E+03 E0= -.18166569E+03  d E =0.935028E-03
quench:  g(F)=  0.000E+00 g(S)=  0.000E+00 dE (1.order)= 0.000E+00
 bond charge predicted
       N       E                     dE             d eps       ncg     rms          rms(c)
DAV:   1    -0.181667156712E+03    0.78733E-03   -0.13041E-02  2772   0.216E-01    0.467E-02
RMM:   2    -0.181667428548E+03   -0.27184E-03   -0.51507E-04  1770   0.402E-02    0.186E-01
RMM:   3    -0.181667418371E+03    0.10176E-04   -0.11261E-04  1512   0.230E-02
  47 F= -.18166742E+03 E0= -.18166503E+03  d E =0.531143E-03
quench:  g(F)=  0.000E+00 g(S)=  0.000E+00 dE (1.order)= 0.000E+00
 bond charge predicted
       N       E                     dE             d eps       ncg     rms          rms(c)
DAV:   1    -0.181666488213E+03    0.94033E-03   -0.73082E-03  2772   0.182E-01    0.582E-02
RMM:   2    -0.181669268653E+03   -0.27804E-02   -0.77070E-04  2530   0.549E-02    0.653E-01
RMM:   3    -0.181666612389E+03    0.26563E-02   -0.32184E-04  1846   0.364E-02    0.225E-01
RMM:   4    -0.181666471340E+03    0.14105E-03   -0.16184E-04  1561   0.316E-02    0.399E-02
RMM:   5    -0.181666527313E+03   -0.55974E-04   -0.42313E-05  1465   0.146E-02
  48 F= -.18166653E+03 E0= -.18166431E+03  d E =0.891058E-03
quench:  g(F)=  0.000E+00 g(S)=  0.000E+00 dE (1.order)= 0.000E+00
 bond charge predicted
       N       E                     dE             d eps       ncg     rms          rms(c)
DAV:   1    -0.181665808306E+03    0.66303E-03   -0.70255E-03  2784   0.164E-01    0.391E-02
RMM:   2    -0.181666026093E+03   -0.21779E-03   -0.28783E-04  1634   0.320E-02    0.179E-01
RMM:   3    -0.181666047480E+03   -0.21388E-04   -0.79775E-05  1485   0.190E-02
  49 F= -.18166605E+03 E0= -.18166374E+03  d E =0.479833E-03
quench:  g(F)=  0.000E+00 g(S)=  0.000E+00 dE (1.order)= 0.000E+00
 bond charge predicted
       N       E                     dE             d eps       ncg     rms          rms(c)
DAV:   1    -0.181664911259E+03    0.11148E-02   -0.87690E-03  2772   0.198E-01    0.430E-02
RMM:   2    -0.181665118179E+03   -0.20692E-03   -0.37058E-04  1711   0.397E-02    0.161E-01
RMM:   3    -0.181665159831E+03   -0.41652E-04   -0.84708E-05  1479   0.200E-02
  50 F= -.18166516E+03 E0= -.18166308E+03  d E =0.887649E-03
quench:  g(F)=  0.000E+00 g(S)=  0.000E+00 dE (1.order)= 0.000E+00
 bond charge predicted
       N       E                     dE             d eps       ncg     rms          rms(c)
DAV:   1    -0.181663959281E+03    0.11589E-02   -0.10881E-02  2772   0.221E-01    0.628E-02
RMM:   2    -0.181667296768E+03   -0.33375E-02   -0.80030E-04  2564   0.558E-02    0.709E-01
RMM:   3    -0.181663983117E+03    0.33137E-02   -0.38652E-04  2003   0.392E-02    0.203E-01
RMM:   4    -0.181663989910E+03   -0.67928E-05   -0.14910E-04  1570   0.318E-02
  51 F= -.18166399E+03 E0= -.18166184E+03  d E =0.116992E-02
quench:  g(F)=  0.000E+00 g(S)=  0.000E+00 dE (1.order)= 0.000E+00
 bond charge predicted
       N       E                     dE             d eps       ncg     rms          rms(c)
DAV:   1    -0.181662895898E+03    0.10872E-02   -0.12546E-02  2772   0.224E-01    0.838E-02
RMM:   2    -0.181664059029E+03   -0.11631E-02   -0.14025E-03  2775   0.734E-02    0.379E-01
RMM:   3    -0.181662902783E+03    0.11562E-02   -0.59668E-04  2489   0.482E-02    0.156E-01
RMM:   4    -0.181662968151E+03   -0.65368E-04   -0.68036E-05  1529   0.194E-02
  52 F= -.18166297E+03 E0= -.18166071E+03  d E =0.102176E-02
quench:  g(F)=  0.000E+00 g(S)=  0.000E+00 dE (1.order)= 0.000E+00
 bond charge predicted
       N       E                     dE             d eps       ncg     rms          rms(c)
DAV:   1    -0.181661593856E+03    0.13089E-02   -0.16445E-02  2772   0.256E-01    0.637E-02
RMM:   2    -0.181662507013E+03   -0.91316E-03   -0.87351E-04  2479   0.565E-02    0.353E-01
RMM:   3    -0.181662195803E+03    0.31121E-03   -0.21610E-04  1579   0.287E-02    0.321E-01
RMM:   4    -0.181661570506E+03    0.62530E-03   -0.13763E-04  1546   0.263E-02    0.618E-02
RMM:   5    -0.181661640650E+03   -0.70144E-04   -0.61132E-05  1487   0.179E-02
  53 F= -.18166164E+03 E0= -.18165951E+03  d E =0.132750E-02
quench:  g(F)=  0.000E+00 g(S)=  0.000E+00 dE (1.order)= 0.000E+00
 bond charge predicted
       N       E                     dE             d eps       ncg     rms          rms(c)
DAV:   1    -0.181660392960E+03    0.11775E-02   -0.15748E-02  2772   0.243E-01    0.591E-02
RMM:   2    -0.181661497893E+03   -0.11049E-02   -0.81021E-04  2249   0.507E-02    0.387E-01
RMM:   3    -0.181660659394E+03    0.83850E-03   -0.17790E-04  1552   0.264E-02    0.225E-01
RMM:   4    -0.181660415181E+03    0.24421E-03   -0.13036E-04  1545   0.263E-02    0.568E-02
RMM:   5    -0.181660439977E+03   -0.24796E-04   -0.53623E-05  1453   0.160E-02
  54 F= -.18166044E+03 E0= -.18165830E+03  d E =0.120067E-02
quench:  g(F)=  0.000E+00 g(S)=  0.000E+00 dE (1.order)= 0.000E+00
 bond charge predicted
       N       E                     dE             d eps       ncg     rms          rms(c)
DAV:   1    -0.181659458366E+03    0.95682E-03   -0.13078E-02  2772   0.220E-01    0.556E-02
RMM:   2    -0.181659851940E+03   -0.39357E-03   -0.74017E-04  2235   0.508E-02    0.224E-01
RMM:   3    -0.181659457482E+03    0.39446E-03   -0.19946E-04  1549   0.306E-02    0.740E-02
RMM:   4    -0.181659610089E+03   -0.15261E-03   -0.44755E-05  1476   0.141E-02    0.145E-01
RMM:   5    -0.181659489919E+03    0.12017E-03   -0.31358E-05  1430   0.117E-02    0.494E-02
RMM:   6    -0.181659488446E+03    0.14731E-05   -0.21041E-05  1402   0.107E-02
  55 F= -.18165949E+03 E0= -.18165742E+03  d E =0.951532E-03
quench:  g(F)=  0.000E+00 g(S)=  0.000E+00 dE (1.order)= 0.000E+00
 bond charge predicted
       N       E                     dE             d eps       ncg     rms          rms(c)
DAV:   1    -0.181658937767E+03    0.55215E-03   -0.44780E-03  2772   0.123E-01    0.305E-02
RMM:   2    -0.181658987504E+03   -0.49737E-04   -0.21250E-04  1536   0.250E-02
  56 F= -.18165899E+03 E0= -.18165700E+03  d E =0.500941E-03
quench:  g(F)=  0.000E+00 g(S)=  0.000E+00 dE (1.order)= 0.000E+00
 bond charge predicted
       N       E                     dE             d eps       ncg     rms          rms(c)
DAV:   1    -0.181658492454E+03    0.44531E-03   -0.32303E-03  2772   0.127E-01    0.102E-01
RMM:   2    -0.181692293610E+03   -0.33801E-01   -0.35179E-03  2771   0.987E-02    0.227E+00
RMM:   3    -0.181657550826E+03    0.34743E-01   -0.29300E-03  2727   0.107E-01    0.160E-01
RMM:   4    -0.181658482474E+03   -0.93165E-03   -0.55580E-04  2201   0.677E-02    0.893E-02
RMM:   5    -0.181658457341E+03    0.25133E-04   -0.57561E-05  1498   0.170E-02
  57 F= -.18165846E+03 E0= -.18165649E+03  d E =0.530164E-03
quench:  g(F)=  0.000E+00 g(S)=  0.000E+00 dE (1.order)= 0.000E+00
 bond charge predicted
       N       E                     dE             d eps       ncg     rms          rms(c)
DAV:   1    -0.181657858620E+03    0.62385E-03   -0.35516E-03  2799   0.122E-01    0.376E-02
RMM:   2    -0.181659424150E+03   -0.15655E-02   -0.32861E-04  1759   0.342E-02    0.488E-01
RMM:   3    -0.181657838363E+03    0.15858E-02   -0.15913E-04  1552   0.280E-02    0.112E-01
RMM:   4    -0.181657866201E+03   -0.27838E-04   -0.74071E-05  1517   0.215E-02
  58 F= -.18165787E+03 E0= -.18165581E+03  d E =0.591139E-03
quench:  g(F)=  0.000E+00 g(S)=  0.000E+00 dE (1.order)= 0.000E+00
 bond charge predicted
       N       E                     dE             d eps       ncg     rms          rms(c)
DAV:   1    -0.181657128489E+03    0.70987E-03   -0.51431E-03  2772   0.142E-01    0.479E-02
RMM:   2    -0.181657942199E+03   -0.81371E-03   -0.48023E-04  2086   0.426E-02    0.330E-01
RMM:   3    -0.181657613148E+03    0.32905E-03   -0.20505E-04  1565   0.293E-02    0.302E-01
RMM:   4    -0.181657088222E+03    0.52493E-03   -0.99139E-05  1541   0.233E-02    0.327E-02
RMM:   5    -0.181657131546E+03   -0.43325E-04   -0.31370E-05  1449   0.132E-02
  59 F= -.18165713E+03 E0= -.18165511E+03  d E =0.734655E-03
quench:  g(F)=  0.000E+00 g(S)=  0.000E+00 dE (1.order)= 0.000E+00
 bond charge predicted
       N       E                     dE             d eps       ncg     rms          rms(c)
DAV:   1    -0.181656223440E+03    0.86478E-03   -0.72446E-03  2772   0.167E-01    0.410E-02
RMM:   2    -0.181656390980E+03   -0.16754E-03   -0.35032E-04  1688   0.357E-02    0.150E-01
RMM:   3    -0.181656330557E+03    0.60423E-04   -0.11234E-04  1479   0.239E-02
  60 F= -.18165633E+03 E0= -.18165427E+03  d E =0.800989E-03
quench:  g(F)=  0.000E+00 g(S)=  0.000E+00 dE (1.order)= 0.000E+00
 bond charge predicted
       N       E                     dE             d eps       ncg     rms          rms(c)
DAV:   1    -0.181655133108E+03    0.12579E-02   -0.10127E-02  2772   0.205E-01    0.565E-02
RMM:   2    -0.181660508670E+03   -0.53756E-02   -0.91664E-04  2623   0.558E-02    0.907E-01
RMM:   3    -0.181654884356E+03    0.56243E-02   -0.47809E-04  2216   0.444E-02    0.125E-01
RMM:   4    -0.181655141843E+03   -0.25749E-03   -0.14482E-04  1567   0.327E-02    0.417E-02
RMM:   5    -0.181655172272E+03   -0.30428E-04   -0.31613E-05  1445   0.123E-02
  61 F= -.18165517E+03 E0= -.18165316E+03  d E =0.115829E-02
quench:  g(F)=  0.000E+00 g(S)=  0.000E+00 dE (1.order)= 0.000E+00
 bond charge predicted
       N       E                     dE             d eps       ncg     rms          rms(c)
DAV:   1    -0.181653937966E+03    0.12039E-02   -0.12374E-02  2772   0.217E-01    0.469E-02
RMM:   2    -0.181654753428E+03   -0.81546E-03   -0.52001E-04  1802   0.403E-02    0.345E-01
RMM:   3    -0.181654064881E+03    0.68855E-03   -0.12707E-04  1528   0.240E-02    0.162E-01
RMM:   4    -0.181653961382E+03    0.10350E-03   -0.70065E-05  1521   0.200E-02    0.416E-02
RMM:   5    -0.181653975604E+03   -0.14223E-04   -0.28624E-05  1412   0.116E-02
  62 F= -.18165398E+03 E0= -.18165199E+03  d E =0.119667E-02
quench:  g(F)=  0.000E+00 g(S)=  0.000E+00 dE (1.order)= 0.000E+00
 bond charge predicted
       N       E                     dE             d eps       ncg     rms          rms(c)
DAV:   1    -0.181652582344E+03    0.13790E-02   -0.15948E-02  2772   0.247E-01    0.525E-02
RMM:   2    -0.181652850285E+03   -0.26794E-03   -0.63672E-04  1868   0.448E-02    0.184E-01
RMM:   3    -0.181652766685E+03    0.83600E-04   -0.14345E-04  1517   0.264E-02
  63 F= -.18165277E+03 E0= -.18165075E+03  d E =0.120892E-02
quench:  g(F)=  0.000E+00 g(S)=  0.000E+00 dE (1.order)= 0.000E+00
 bond charge predicted
       N       E                     dE             d eps       ncg     rms          rms(c)
DAV:   1    -0.181651098079E+03    0.17522E-02   -0.18585E-02  2772   0.276E-01    0.809E-02
RMM:   2    -0.181661998863E+03   -0.10901E-01   -0.18543E-03  2767   0.793E-02    0.130E+00
RMM:   3    -0.181650746283E+03    0.11253E-01   -0.10043E-03  2659   0.631E-02    0.203E-01
RMM:   4    -0.181651081477E+03   -0.33519E-03   -0.28650E-04  1772   0.453E-02    0.521E-02
RMM:   5    -0.181651157391E+03   -0.75914E-04   -0.46570E-05  1488   0.159E-02
  64 F= -.18165116E+03 E0= -.18164924E+03  d E =0.160929E-02
quench:  g(F)=  0.000E+00 g(S)=  0.000E+00 dE (1.order)= 0.000E+00
 bond charge predicted
       N       E                     dE             d eps       ncg     rms          rms(c)
DAV:   1    -0.181649740326E+03    0.13412E-02   -0.18907E-02  2772   0.269E-01    0.575E-02
RMM:   2    -0.181650606612E+03   -0.86629E-03   -0.79323E-04  2098   0.501E-02    0.359E-01
RMM:   3    -0.181650006599E+03    0.60001E-03   -0.16480E-04  1550   0.266E-02    0.213E-01
RMM:   4    -0.181649768408E+03    0.23819E-03   -0.11189E-04  1545   0.245E-02    0.463E-02
RMM:   5    -0.181649792050E+03   -0.23642E-04   -0.38962E-05  1403   0.139E-02
  65 F= -.18164979E+03 E0= -.18164791E+03  d E =0.136534E-02
quench:  g(F)=  0.000E+00 g(S)=  0.000E+00 dE (1.order)= 0.000E+00
 bond charge predicted
       N       E                     dE             d eps       ncg     rms          rms(c)
DAV:   1    -0.181648735000E+03    0.10334E-02   -0.12114E-02  2772   0.205E-01    0.532E-02
RMM:   2    -0.181649892296E+03   -0.11573E-02   -0.73831E-04  2119   0.478E-02    0.398E-01
RMM:   3    -0.181648935660E+03    0.95664E-03   -0.17566E-04  1559   0.270E-02    0.209E-01
RMM:   4    -0.181648740593E+03    0.19507E-03   -0.10468E-04  1541   0.241E-02    0.464E-02
RMM:   5    -0.181648774503E+03   -0.33909E-04   -0.42003E-05  1445   0.142E-02
  66 F= -.18164877E+03 E0= -.18164688E+03  d E =0.101755E-02
quench:  g(F)=  0.000E+00 g(S)=  0.000E+00 dE (1.order)= 0.000E+00
 bond charge predicted
       N       E                     dE             d eps       ncg     rms          rms(c)
DAV:   1    -0.181648352403E+03    0.38819E-03   -0.32631E-03  2772   0.110E-01    0.329E-02
RMM:   2    -0.181649041429E+03   -0.68903E-03   -0.26271E-04  1638   0.318E-02    0.327E-01
RMM:   3    -0.181648411875E+03    0.62955E-03   -0.10046E-04  1516   0.220E-02    0.130E-01
RMM:   4    -0.181648362125E+03    0.49750E-04   -0.50897E-05  1490   0.175E-02
  67 F= -.18164836E+03 E0= -.18164653E+03  d E =0.412378E-03
quench:  g(F)=  0.000E+00 g(S)=  0.000E+00 dE (1.order)= 0.000E+00
 bond charge predicted
       N       E                     dE             d eps       ncg     rms          rms(c)
DAV:   1    -0.181647847707E+03    0.56417E-03   -0.29802E-03  2772   0.108E-01    0.384E-02
RMM:   2    -0.181648154756E+03   -0.30705E-03   -0.27219E-04  1645   0.341E-02    0.203E-01
RMM:   3    -0.181647855823E+03    0.29893E-03   -0.14169E-04  1528   0.274E-02    0.972E-02
RMM:   4    -0.181647845945E+03    0.98780E-05   -0.20370E-05  1436   0.106E-02
  68 F= -.18164785E+03 E0= -.18164600E+03  d E =0.516180E-03
quench:  g(F)=  0.000E+00 g(S)=  0.000E+00 dE (1.order)= 0.000E+00
 bond charge predicted
       N       E                     dE             d eps       ncg     rms          rms(c)
DAV:   1    -0.181647242339E+03    0.61348E-03   -0.47840E-03  2772   0.135E-01    0.328E-02
RMM:   2    -0.181647588749E+03   -0.34641E-03   -0.23210E-04  1603   0.310E-02    0.233E-01
RMM:   3    -0.181647377125E+03    0.21162E-03   -0.77126E-05  1495   0.192E-02    0.154E-01
RMM:   4    -0.181647242807E+03    0.13432E-03   -0.44108E-05  1467   0.158E-02    0.191E-02
RMM:   5    -0.181647258856E+03   -0.16049E-04   -0.13236E-05  1360   0.794E-03
  69 F= -.18164726E+03 E0= -.18164540E+03  d E =0.587089E-03
quench:  g(F)=  0.000E+00 g(S)=  0.000E+00 dE (1.order)= 0.000E+00
 bond charge predicted
       N       E                     dE             d eps       ncg     rms          rms(c)
DAV:   1    -0.181646527990E+03    0.71482E-03   -0.56832E-03  2772   0.148E-01    0.287E-02
RMM:   2    -0.181646777767E+03   -0.24978E-03   -0.21601E-04  1580   0.280E-02    0.185E-01
RMM:   3    -0.181646595126E+03    0.18264E-03   -0.47910E-05  1459   0.148E-02    0.106E-01
RMM:   4    -0.181646540399E+03    0.54726E-04   -0.28652E-05  1448   0.124E-02
  70 F= -.18164654E+03 E0= -.18164475E+03  d E =0.718457E-03
quench:  g(F)=  0.000E+00 g(S)=  0.000E+00 dE (1.order)= 0.000E+00
 bond charge predicted
       N       E                     dE             d eps       ncg     rms          rms(c)
DAV:   1    -0.181645729430E+03    0.86570E-03   -0.73441E-03  2772   0.168E-01    0.393E-02
RMM:   2    -0.181645928949E+03   -0.19952E-03   -0.34207E-04  1680   0.370E-02    0.159E-01
RMM:   3    -0.181645893675E+03    0.35274E-04   -0.10913E-04  1500   0.235E-02
  71 F= -.18164589E+03 E0= -.18164400E+03  d E =0.646724E-03
quench:  g(F)=  0.000E+00 g(S)=  0.000E+00 dE (1.order)= 0.000E+00
 bond charge predicted
       N       E                     dE             d eps       ncg     rms          rms(c)
DAV:   1    -0.181644966155E+03    0.96279E-03   -0.70445E-03  2772   0.174E-01    0.561E-02
RMM:   2    -0.181648842842E+03   -0.38767E-02   -0.80756E-04  2627   0.555E-02    0.755E-01
RMM:   3    -0.181644947400E+03    0.38954E-02   -0.39857E-04  2033   0.406E-02    0.190E-01
RMM:   4    -0.181644959298E+03   -0.11898E-04   -0.15739E-04  1563   0.322E-02
  72 F= -.18164496E+03 E0= -.18164316E+03  d E =0.934377E-03
quench:  g(F)=  0.000E+00 g(S)=  0.000E+00 dE (1.order)= 0.000E+00
 bond charge predicted
       N       E                     dE             d eps       ncg     rms          rms(c)
DAV:   1    -0.181644533085E+03    0.41431E-03   -0.37627E-03  2772   0.118E-01    0.387E-02
RMM:   2    -0.181645235588E+03   -0.70250E-03   -0.33798E-04  1717   0.357E-02    0.311E-01
RMM:   3    -0.181644680399E+03    0.55519E-03   -0.10717E-04  1504   0.214E-02    0.165E-01
RMM:   4    -0.181644529019E+03    0.15138E-03   -0.73414E-05  1506   0.197E-02    0.288E-02
RMM:   5    -0.181644543921E+03   -0.14901E-04   -0.20525E-05  1411   0.102E-02
  73 F= -.18164454E+03 E0= -.18164274E+03  d E =0.415377E-03
quench:  g(F)=  0.000E+00 g(S)=  0.000E+00 dE (1.order)= 0.000E+00
 bond charge predicted
       N       E                     dE             d eps       ncg     rms          rms(c)
DAV:   1    -0.181644283767E+03    0.24525E-03   -0.10541E-03  2712   0.610E-02    0.249E-02
RMM:   2    -0.181644476345E+03   -0.19258E-03   -0.12425E-04  1531   0.231E-02    0.166E-01
RMM:   3    -0.181644415204E+03    0.61142E-04   -0.58978E-05  1486   0.169E-02
  74 F= -.18164442E+03 E0= -.18164252E+03  d E =0.128717E-03
quench:  g(F)=  0.000E+00 g(S)=  0.000E+00 dE (1.order)= 0.000E+00
 bond charge predicted
       N       E                     dE             d eps       ncg     rms          rms(c)
DAV:   1    -0.181643994308E+03    0.48204E-03   -0.13038E-03  2772   0.880E-02    0.193E-02
RMM:   2    -0.181644058473E+03   -0.64166E-04   -0.80707E-05  1434   0.206E-02
  75 F= -.18164406E+03 E0= -.18164223E+03  d E =0.356730E-03
quench:  g(F)=  0.000E+00 g(S)=  0.000E+00 dE (1.order)= 0.000E+00
 bond charge predicted
       N       E                     dE             d eps       ncg     rms          rms(c)
DAV:   1    -0.181643729830E+03    0.26448E-03   -0.12008E-03  2754   0.833E-02    0.681E-02
RMM:   2    -0.181658846643E+03   -0.15117E-01   -0.15530E-03  2721   0.657E-02    0.152E+00
RMM:   3    -0.181643110708E+03    0.15736E-01   -0.13323E-03  2699   0.727E-02    0.102E-01
RMM:   4    -0.181643737794E+03   -0.62709E-03   -0.23659E-04  1705   0.461E-02    0.681E-02
RMM:   5    -0.181643717451E+03    0.20342E-04   -0.31079E-05  1474   0.125E-02
  76 F= -.18164372E+03 E0= -.18164195E+03  d E =0.341022E-03
quench:  g(F)=  0.000E+00 g(S)=  0.000E+00 dE (1.order)= 0.000E+00
 bond charge predicted
       N       E                     dE             d eps       ncg     rms          rms(c)
DAV:   1    -0.181643412790E+03    0.32500E-03   -0.13001E-03  2850   0.737E-02    0.202E-02
RMM:   2    -0.181643458741E+03   -0.45951E-04   -0.79686E-05  1426   0.190E-02
  77 F= -.18164346E+03 E0= -.18164170E+03  d E =0.258710E-03
quench:  g(F)=  0.000E+00 g(S)=  0.000E+00 dE (1.order)= 0.000E+00
 bond charge predicted
       N       E                     dE             d eps       ncg     rms          rms(c)
DAV:   1    -0.181643148872E+03    0.26392E-03   -0.14040E-03  2775   0.907E-02    0.998E-02
RMM:   2    -0.181681155397E+03   -0.38007E-01   -0.37547E-03  2751   0.992E-02    0.240E+00
RMM:   3    -0.181641947255E+03    0.39208E-01   -0.31294E-03  2724   0.110E-01    0.118E-01
RMM:   4    -0.181643131785E+03   -0.11845E-02   -0.56463E-04  2230   0.683E-02    0.991E-02
RMM:   5    -0.181643080815E+03    0.50970E-04   -0.57012E-05  1500   0.175E-02
  78 F= -.18164308E+03 E0= -.18164130E+03  d E =0.377926E-03
quench:  g(F)=  0.000E+00 g(S)=  0.000E+00 dE (1.order)= 0.000E+00
 bond charge predicted
       N       E                     dE             d eps       ncg     rms          rms(c)
DAV:   1    -0.181642788689E+03    0.34310E-03   -0.13354E-03  2844   0.736E-02    0.386E-02
RMM:   2    -0.181645338372E+03   -0.25497E-02   -0.40559E-04  1990   0.364E-02    0.619E-01
RMM:   3    -0.181642742383E+03    0.25960E-02   -0.25760E-04  1663   0.343E-02    0.141E-01
RMM:   4    -0.181642780482E+03   -0.38099E-04   -0.99612E-05  1538   0.255E-02
  79 F= -.18164278E+03 E0= -.18164105E+03  d E =0.300333E-03
quench:  g(F)=  0.000E+00 g(S)=  0.000E+00 dE (1.order)= 0.000E+00
 bond charge predicted
       N       E                     dE             d eps       ncg     rms          rms(c)
DAV:   1    -0.181642505074E+03    0.23731E-03   -0.11371E-03  2784   0.685E-02    0.316E-02
RMM:   2    -0.181642697232E+03   -0.19216E-03   -0.17978E-04  1557   0.284E-02    0.159E-01
RMM:   3    -0.181642482921E+03    0.21431E-03   -0.98816E-05  1490   0.231E-02    0.265E-02
RMM:   4    -0.181642503460E+03   -0.20539E-04   -0.12562E-05  1347   0.811E-03
  80 F= -.18164250E+03 E0= -.18164078E+03  d E =0.277022E-03
quench:  g(F)=  0.000E+00 g(S)=  0.000E+00 dE (1.order)= 0.000E+00
 bond charge predicted
       N       E                     dE             d eps       ncg     rms          rms(c)
DAV:   1    -0.181642264031E+03    0.21889E-03   -0.10145E-03  2646   0.654E-02    0.527E-02
RMM:   2    -0.181651514601E+03   -0.92506E-02   -0.95924E-04  2619   0.519E-02    0.119E+00
RMM:   3    -0.181641796796E+03    0.97178E-02   -0.80774E-04  2587   0.569E-02    0.749E-02
RMM:   4    -0.181642264320E+03   -0.46752E-03   -0.13719E-04  1580   0.355E-02    0.471E-02
RMM:   5    -0.181642255664E+03    0.86567E-05   -0.17850E-05  1448   0.941E-03
  81 F= -.18164226E+03 E0= -.18164051E+03  d E =0.247797E-03
quench:  g(F)=  0.000E+00 g(S)=  0.000E+00 dE (1.order)= 0.000E+00
 bond charge predicted
       N       E                     dE             d eps       ncg     rms          rms(c)
DAV:   1    -0.181642012625E+03    0.25170E-03   -0.77763E-04  2643   0.569E-02    0.164E-02
RMM:   2    -0.181642146615E+03   -0.13399E-03   -0.55198E-05  1452   0.156E-02    0.142E-01
RMM:   3    -0.181642029310E+03    0.11731E-03   -0.20028E-05  1423   0.982E-03    0.582E-02
RMM:   4    -0.181642015629E+03    0.13680E-04   -0.11406E-05  1372   0.795E-03
  82 F= -.18164202E+03 E0= -.18164030E+03  d E =0.240034E-03
quench:  g(F)=  0.000E+00 g(S)=  0.000E+00 dE (1.order)= 0.000E+00
 bond charge predicted
       N       E                     dE             d eps       ncg     rms          rms(c)
DAV:   1    -0.181641781603E+03    0.24771E-03   -0.78137E-04  2502   0.551E-02    0.201E-02
RMM:   2    -0.181641847983E+03   -0.66381E-04   -0.72443E-05  1414   0.181E-02
  83 F= -.18164185E+03 E0= -.18164022E+03  d E =0.167646E-03
quench:  g(F)=  0.000E+00 g(S)=  0.000E+00 dE (1.order)= 0.000E+00
 bond charge predicted
       N       E                     dE             d eps       ncg     rms          rms(c)
DAV:   1    -0.181641614350E+03    0.16725E-03   -0.77448E-04  2403   0.765E-02    0.736E-02
RMM:   2    -0.181659622323E+03   -0.18008E-01   -0.18320E-03  2717   0.713E-02    0.165E+00
RMM:   3    -0.181640918302E+03    0.18704E-01   -0.15679E-03  2715   0.785E-02    0.111E-01
RMM:   4    -0.181641620226E+03   -0.70192E-03   -0.28322E-04  1780   0.497E-02    0.675E-02
RMM:   5    -0.181641602492E+03    0.17734E-04   -0.34932E-05  1474   0.133E-02
  84 F= -.18164160E+03 E0= -.18163992E+03  d E =0.245491E-03
quench:  g(F)=  0.000E+00 g(S)=  0.000E+00 dE (1.order)= 0.000E+00
 bond charge predicted
       N       E                     dE             d eps       ncg     rms          rms(c)
DAV:   1    -0.181641367096E+03    0.25313E-03   -0.75672E-04  2778   0.597E-02    0.232E-02
RMM:   2    -0.181642819674E+03   -0.14526E-02   -0.16240E-04  1545   0.229E-02    0.471E-01
RMM:   3    -0.181641281961E+03    0.15377E-02   -0.11696E-04  1539   0.247E-02    0.320E-02
RMM:   4    -0.181641372081E+03   -0.90120E-04   -0.33642E-05  1487   0.159E-02
  85 F= -.18164137E+03 E0= -.18163966E+03  d E =0.230411E-03
quench:  g(F)=  0.000E+00 g(S)=  0.000E+00 dE (1.order)= 0.000E+00
 bond charge predicted
       N       E                     dE             d eps       ncg     rms          rms(c)
DAV:   1    -0.181641130586E+03    0.15138E-03   -0.79641E-04  2538   0.552E-02    0.184E-02
RMM:   2    -0.181641364255E+03   -0.23367E-03   -0.80223E-05  1476   0.184E-02    0.181E-01
RMM:   3    -0.181641168270E+03    0.19599E-03   -0.34215E-05  1455   0.125E-02    0.886E-02
RMM:   4    -0.181641132297E+03    0.35973E-04   -0.17828E-05  1408   0.101E-02
  86 F= -.18164113E+03 E0= -.18163943E+03  d E =0.239784E-03
quench:  g(F)=  0.000E+00 g(S)=  0.000E+00 dE (1.order)= 0.000E+00
 bond charge predicted
       N       E                     dE             d eps       ncg     rms          rms(c)
DAV:   1    -0.181640953146E+03    0.21512E-03   -0.50880E-04  2148   0.446E-02    0.166E-02
RMM:   2    -0.181641003057E+03   -0.49911E-04   -0.52187E-05  1397   0.160E-02
  87 F= -.18164100E+03 E0= -.18163939E+03  d E =0.129240E-03
quench:  g(F)=  0.000E+00 g(S)=  0.000E+00 dE (1.order)= 0.000E+00
 bond charge predicted
       N       E                     dE             d eps       ncg     rms          rms(c)
DAV:   1    -0.181640879313E+03    0.73832E-04   -0.43270E-04  1917   0.635E-02    0.851E-02
RMM:   2    -0.181666391211E+03   -0.25512E-01   -0.24669E-03  2721   0.810E-02    0.197E+00
RMM:   3    -0.181640032554E+03    0.26359E-01   -0.22122E-03  2724   0.933E-02    0.115E-01
RMM:   4    -0.181640870128E+03   -0.83757E-03   -0.37563E-04  1932   0.579E-02    0.780E-02
RMM:   5    -0.181640848401E+03    0.21727E-04   -0.38388E-05  1496   0.139E-02
  88 F= -.18164085E+03 E0= -.18163914E+03  d E =0.154656E-03
quench:  g(F)=  0.000E+00 g(S)=  0.000E+00 dE (1.order)= 0.000E+00
 bond charge predicted
       N       E                     dE             d eps       ncg     rms          rms(c)
DAV:   1    -0.181640756607E+03    0.11352E-03   -0.15856E-04  1773   0.360E-02    0.280E-02
RMM:   2    -0.181641933064E+03   -0.11765E-02   -0.18419E-04  1573   0.262E-02    0.428E-01
RMM:   3    -0.181640755032E+03    0.11780E-02   -0.12048E-04  1541   0.245E-02    0.106E-01
RMM:   4    -0.181640751771E+03    0.32611E-05   -0.47914E-05  1499   0.177E-02
  89 F= -.18164075E+03 E0= -.18163906E+03  d E =0.966300E-04
quench:  g(F)=  0.000E+00 g(S)=  0.000E+00 dE (1.order)= 0.000E+00
 bond charge predicted
       N       E                     dE             d eps       ncg     rms          rms(c)
DAV:   1    -0.181640645707E+03    0.10932E-03   -0.18504E-04  1926   0.317E-02    0.167E-02
RMM:   2    -0.181640701615E+03   -0.55908E-04   -0.48291E-05  1413   0.162E-02
  90 F= -.18164070E+03 E0= -.18163902E+03  d E =0.501561E-04
quench:  g(F)=  0.000E+00 g(S)=  0.000E+00 dE (1.order)= 0.000E+00
 bond charge predicted
       N       E                     dE             d eps       ncg     rms          rms(c)
DAV:   1    -0.181640572622E+03    0.73085E-04   -0.41892E-04  1953   0.688E-02    0.100E-01
RMM:   2    -0.181678442292E+03   -0.37870E-01   -0.36445E-03  2724   0.970E-02    0.240E+00
RMM:   3    -0.181639406658E+03    0.39036E-01   -0.31482E-03  2724   0.110E-01    0.130E-01
RMM:   4    -0.181640543188E+03   -0.11365E-02   -0.58359E-04  2266   0.690E-02    0.857E-02
RMM:   5    -0.181640516867E+03    0.26321E-04   -0.51819E-05  1500   0.166E-02
  91 F= -.18164052E+03 E0= -.18163877E+03  d E =0.184748E-03
quench:  g(F)=  0.000E+00 g(S)=  0.000E+00 dE (1.order)= 0.000E+00
 bond charge predicted
       N       E                     dE             d eps       ncg     rms          rms(c)
DAV:   1    -0.181640398657E+03    0.14453E-03   -0.29287E-04  2043   0.414E-02    0.338E-02
RMM:   2    -0.181643526392E+03   -0.31277E-02   -0.36152E-04  1902   0.329E-02    0.689E-01
RMM:   3    -0.181640227711E+03    0.32987E-02   -0.27610E-04  1718   0.360E-02    0.794E-02
RMM:   4    -0.181640398505E+03   -0.17079E-03   -0.77254E-05  1534   0.239E-02    0.236E-02
RMM:   5    -0.181640401938E+03   -0.34335E-05   -0.12004E-05  1363   0.725E-03
  92 F= -.18164040E+03 E0= -.18163870E+03  d E =0.114929E-03
quench:  g(F)=  0.000E+00 g(S)=  0.000E+00 dE (1.order)= 0.000E+00
 bond charge predicted
       N       E                     dE             d eps       ncg     rms          rms(c)
DAV:   1    -0.181640314444E+03    0.84061E-04   -0.37694E-04  2028   0.384E-02    0.128E-02
RMM:   2    -0.181640393358E+03   -0.78914E-04   -0.38611E-05  1426   0.142E-02
  93 F= -.18164039E+03 E0= -.18163873E+03  d E =0.858097E-05
quench:  g(F)=  0.000E+00 g(S)=  0.000E+00 dE (1.order)= 0.000E+00
 bond charge predicted
       N       E                     dE             d eps       ncg     rms          rms(c)
DAV:   1    -0.181640356117E+03   -0.41674E-04   -0.68329E-04  2106   0.726E-02    0.655E-02
RMM:   2    -0.181652619569E+03   -0.12263E-01   -0.13380E-03  2688   0.638E-02    0.137E+00
RMM:   3    -0.181639879119E+03    0.12740E-01   -0.10993E-03  2670   0.658E-02    0.145E-01
RMM:   4    -0.181640333027E+03   -0.45391E-03   -0.23894E-04  1687   0.441E-02    0.300E-02
RMM:   5    -0.181640344540E+03   -0.11513E-04   -0.25733E-05  1458   0.107E-02
  94 F= -.18164034E+03 E0= -.18163868E+03  d E =0.488178E-04
quench:  g(F)=  0.000E+00 g(S)=  0.000E+00 dE (1.order)= 0.000E+00
 bond charge predicted
       N       E                     dE             d eps       ncg     rms          rms(c)
DAV:   1    -0.181640468568E+03   -0.13554E-03   -0.10793E-03  2844   0.681E-02    0.171E-02
RMM:   2    -0.181640681128E+03   -0.21256E-03   -0.66081E-05  1475   0.163E-02    0.177E-01
RMM:   3    -0.181640487135E+03    0.19399E-03   -0.31954E-05  1455   0.124E-02    0.767E-02
RMM:   4    -0.181640467690E+03    0.19445E-04   -0.12520E-05  1389   0.907E-03
  95 F= -.18164047E+03 E0= -.18163877E+03  d E =-.123150E-03
quench:  g(F)=  0.000E+00 g(S)=  0.000E+00 dE (1.order)= 0.000E+00
 bond charge predicted
       N       E                     dE             d eps       ncg     rms          rms(c)
DAV:   1    -0.181640819088E+03   -0.33195E-03   -0.36335E-03  2772   0.119E-01    0.237E-02
RMM:   2    -0.181640852889E+03   -0.33802E-04   -0.12743E-04  1458   0.217E-02
  96 F= -.18164085E+03 E0= -.18163915E+03  d E =-.385199E-03
quench:  g(F)=  0.000E+00 g(S)=  0.000E+00 dE (1.order)= 0.000E+00
 bond charge predicted
       N       E                     dE             d eps       ncg     rms          rms(c)
DAV:   1    -0.181641500536E+03   -0.68145E-03   -0.99931E-03  2772   0.200E-01    0.459E-02
RMM:   2    -0.181643442212E+03   -0.19417E-02   -0.49936E-04  1941   0.407E-02    0.548E-01
RMM:   3    -0.181641416551E+03    0.20257E-02   -0.22193E-04  1586   0.323E-02    0.109E-01
RMM:   4    -0.181641525009E+03   -0.10846E-03   -0.81696E-05  1532   0.241E-02    0.416E-02
RMM:   5    -0.181641520780E+03    0.42294E-05   -0.18203E-05  1424   0.954E-03
  97 F= -.18164152E+03 E0= -.18163981E+03  d E =-.667891E-03
quench:  g(F)=  0.000E+00 g(S)=  0.000E+00 dE (1.order)= 0.000E+00
 bond charge predicted
       N       E                     dE             d eps       ncg     rms          rms(c)
DAV:   1    -0.181642660375E+03   -0.11354E-02   -0.22490E-02  2772   0.296E-01    0.559E-02
RMM:   2    -0.181643032074E+03   -0.37170E-03   -0.79146E-04  2070   0.498E-02    0.227E-01
RMM:   3    -0.181642992834E+03    0.39239E-04   -0.13200E-04  1514   0.245E-02
  98 F= -.18164299E+03 E0= -.18164116E+03  d E =-.147205E-02
quench:  g(F)=  0.000E+00 g(S)=  0.000E+00 dE (1.order)= 0.000E+00
 bond charge predicted
       N       E                     dE             d eps       ncg     rms          rms(c)
DAV:   1    -0.181644451075E+03   -0.14190E-02   -0.45791E-02  2772   0.439E-01    0.112E-01
RMM:   2    -0.181658741823E+03   -0.14291E-01   -0.31093E-03  2785   0.104E-01    0.146E+00
RMM:   3    -0.181644548562E+03    0.14193E-01   -0.15347E-03  2722   0.761E-02    0.340E-01
RMM:   4    -0.181644500016E+03    0.48546E-04   -0.46538E-04  2106   0.557E-02
  99 F= -.18164450E+03 E0= -.18164270E+03  d E =-.150718E-02
quench:  g(F)=  0.000E+00 g(S)=  0.000E+00 dE (1.order)= 0.000E+00
 bond charge predicted
       N       E                     dE             d eps       ncg     rms          rms(c)
DAV:   1    -0.181647110428E+03   -0.25619E-02   -0.77698E-02  2772   0.558E-01    0.141E-01
RMM:   2    -0.181650761117E+03   -0.36507E-02   -0.46693E-03  2781   0.128E-01    0.665E-01
RMM:   3    -0.181651218309E+03   -0.45719E-03   -0.12916E-03  2724   0.648E-02    0.819E-01
RMM:   4    -0.181646896747E+03    0.43216E-02   -0.78899E-04  2621   0.580E-02    0.162E-01
RMM:   5    -0.181647201276E+03   -0.30453E-03   -0.21431E-04  1627   0.369E-02    0.103E-01
RMM:   6    -0.181647208531E+03   -0.72556E-05   -0.96608E-05  1483   0.218E-02
 100 F= -.18164721E+03 E0= -.18164545E+03  d E =-.270851E-02
quench:  g(F)=  0.000E+00 g(S)=  0.000E+00 dE (1.order)= 0.000E+00
 bond charge predicted
       N       E                     dE             d eps       ncg     rms          rms(c)
DAV:   1    -0.181650283222E+03   -0.30819E-02   -0.12093E-01  2772   0.692E-01    0.114E-01
RMM:   2    -0.181651203850E+03   -0.92063E-03   -0.38344E-03  2777   0.102E-01    0.315E-01
RMM:   3    -0.181651461707E+03   -0.25786E-03   -0.43815E-04  2092   0.396E-02    0.402E-01
RMM:   4    -0.181650725166E+03    0.73654E-03   -0.25997E-04  1698   0.323E-02    0.227E-01
RMM:   5    -0.181650584638E+03    0.14053E-03   -0.16547E-04  1552   0.306E-02    0.108E-01
RMM:   6    -0.181650537230E+03    0.47407E-04   -0.75168E-05  1481   0.199E-02
 101 F= -.18165054E+03 E0= -.18164863E+03  d E =-.332870E-02
quench:  g(F)=  0.000E+00 g(S)=  0.000E+00 dE (1.order)= 0.000E+00
 bond charge predicted
       N       E                     dE             d eps       ncg     rms          rms(c)
DAV:   1    -0.181654169431E+03   -0.35848E-02   -0.16917E-01  2772   0.816E-01    0.131E-01
RMM:   2    -0.181657096080E+03   -0.29266E-02   -0.55649E-03  2783   0.124E-01    0.627E-01
RMM:   3    -0.181655251442E+03    0.18446E-02   -0.53950E-04  2334   0.431E-02    0.378E-01
RMM:   4    -0.181654572251E+03    0.67919E-03   -0.60658E-04  2509   0.502E-02    0.170E-01
RMM:   5    -0.181654614256E+03   -0.42004E-04   -0.22068E-04  1583   0.318E-02
 102 F= -.18165461E+03 E0= -.18165274E+03  d E =-.407703E-02
quench:  g(F)=  0.000E+00 g(S)=  0.000E+00 dE (1.order)= 0.000E+00
 bond charge predicted
       N       E                     dE             d eps       ncg     rms          rms(c)
DAV:   1    -0.181658532432E+03   -0.39602E-02   -0.22188E-01  2772   0.939E-01    0.159E-01
RMM:   2    -0.181660804180E+03   -0.22717E-02   -0.73143E-03  2782   0.145E-01    0.506E-01
RMM:   3    -0.181659774757E+03    0.10294E-02   -0.10665E-03  2741   0.629E-02    0.427E-01
RMM:   4    -0.181659652311E+03    0.12245E-03   -0.38280E-04  1980   0.385E-02    0.371E-01
RMM:   5    -0.181659007140E+03    0.64517E-03   -0.34736E-04  1877   0.410E-02    0.127E-01
RMM:   6    -0.181658982587E+03    0.24553E-04   -0.19228E-04  1553   0.313E-02
 103 F= -.18165898E+03 E0= -.18165692E+03  d E =-.436833E-02
quench:  g(F)=  0.000E+00 g(S)=  0.000E+00 dE (1.order)= 0.000E+00
 bond charge predicted
       N       E                     dE             d eps       ncg     rms          rms(c)
DAV:   1    -0.181663349282E+03   -0.43421E-02   -0.27345E-01  2772   0.104E+00    0.167E-01
RMM:   2    -0.181668645082E+03   -0.52958E-02   -0.91490E-03  2786   0.164E-01    0.818E-01
RMM:   3    -0.181665496584E+03    0.31485E-02   -0.97836E-04  2696   0.562E-02    0.548E-01
RMM:   4    -0.181663821911E+03    0.16747E-02   -0.10300E-03  2724   0.648E-02    0.204E-01
RMM:   5    -0.181663980735E+03   -0.15882E-03   -0.28246E-04  1674   0.383E-02    0.157E-01
RMM:   6    -0.181663837587E+03    0.14315E-03   -0.15460E-04  1532   0.281E-02    0.860E-02
RMM:   7    -0.181663914856E+03   -0.77270E-04   -0.10506E-04  1493   0.216E-02
 104 F= -.18166391E+03 E0= -.18166182E+03  d E =-.493227E-02
quench:  g(F)=  0.000E+00 g(S)=  0.000E+00 dE (1.order)= 0.000E+00
 bond charge predicted
       N       E                     dE             d eps       ncg     rms          rms(c)
DAV:   1    -0.181668263519E+03   -0.44259E-02   -0.30533E-01  2772   0.110E+00    0.169E-01
RMM:   2    -0.181672632647E+03   -0.43691E-02   -0.10179E-02  2781   0.171E-01    0.733E-01
RMM:   3    -0.181671641309E+03    0.99134E-03   -0.11375E-03  2744   0.607E-02    0.688E-01
RMM:   4    -0.181668868012E+03    0.27733E-02   -0.96393E-04  2724   0.630E-02    0.228E-01
RMM:   5    -0.181668995485E+03   -0.12747E-03   -0.42564E-04  2055   0.448E-02    0.164E-01
RMM:   6    -0.181668844734E+03    0.15075E-03   -0.21401E-04  1559   0.320E-02    0.100E-01
RMM:   7    -0.181668867306E+03   -0.22572E-04   -0.11415E-04  1482   0.234E-02
 105 F= -.18166887E+03 E0= -.18166659E+03  d E =-.495245E-02
quench:  g(F)=  0.000E+00 g(S)=  0.000E+00 dE (1.order)= 0.000E+00
 bond charge predicted
       N       E                     dE             d eps       ncg     rms          rms(c)
DAV:   1    -0.181671626399E+03   -0.27817E-02   -0.18878E-01  2772   0.829E-01    0.148E-01
RMM:   2    -0.181673337555E+03   -0.17112E-02   -0.82572E-03  2791   0.147E-01    0.413E-01
RMM:   3    -0.181674559219E+03   -0.12217E-02   -0.83854E-04  2696   0.522E-02    0.644E-01
RMM:   4    -0.181672175893E+03    0.23833E-02   -0.60463E-04  2470   0.481E-02    0.256E-01
RMM:   5    -0.181672068114E+03    0.10778E-03   -0.32181E-04  1707   0.406E-02    0.130E-01
RMM:   6    -0.181672016963E+03    0.51151E-04   -0.17826E-04  1548   0.297E-02
 106 F= -.18167202E+03 E0= -.18166961E+03  d E =-.314966E-02
quench:  g(F)=  0.000E+00 g(S)=  0.000E+00 dE (1.order)= 0.000E+00
 bond charge predicted
       N       E                     dE             d eps       ncg     rms          rms(c)
DAV:   1    -0.181672538297E+03   -0.47018E-03   -0.41060E-03  2808   0.137E-01    0.104E-01
RMM:   2    -0.181674824885E+03   -0.22866E-02   -0.21180E-03  2772   0.914E-02    0.561E-01
RMM:   3    -0.181674422580E+03    0.40231E-03   -0.10533E-03  2720   0.617E-02    0.567E-01
RMM:   4    -0.181672418432E+03    0.20041E-02   -0.26493E-04  1723   0.366E-02    0.792E-02
RMM:   5    -0.181672484880E+03   -0.66448E-04   -0.91993E-05  1521   0.229E-02
 107 F= -.18167248E+03 E0= -.18167009E+03  d E =-.467917E-03
quench:  g(F)=  0.000E+00 g(S)=  0.000E+00 dE (1.order)= 0.000E+00
 bond charge predicted
       N       E                     dE             d eps       ncg     rms          rms(c)
DAV:   1    -0.181673345158E+03   -0.92673E-03   -0.12199E-02  2772   0.189E-01    0.544E-02
RMM:   2    -0.181674487083E+03   -0.11419E-02   -0.84195E-04  2149   0.495E-02    0.410E-01
RMM:   3    -0.181673566553E+03    0.92053E-03   -0.17302E-04  1552   0.270E-02    0.202E-01
RMM:   4    -0.181673369143E+03    0.19741E-03   -0.11770E-04  1543   0.252E-02    0.547E-02
RMM:   5    -0.181673379780E+03   -0.10637E-04   -0.44385E-05  1432   0.146E-02
 108 F= -.18167338E+03 E0= -.18167094E+03  d E =-.894900E-03
quench:  g(F)=  0.000E+00 g(S)=  0.000E+00 dE (1.order)= 0.000E+00
 bond charge predicted
       N       E                     dE             d eps       ncg     rms          rms(c)
DAV:   1    -0.181674664198E+03   -0.12951E-02   -0.12693E-02  2772   0.224E-01    0.487E-02
RMM:   2    -0.181674929929E+03   -0.26573E-03   -0.55035E-04  1820   0.435E-02    0.183E-01
RMM:   3    -0.181674929912E+03    0.16778E-07   -0.13592E-04  1516   0.255E-02
 109 F= -.18167493E+03 E0= -.18167236E+03  d E =-.155013E-02
quench:  g(F)=  0.000E+00 g(S)=  0.000E+00 dE (1.order)= 0.000E+00
 bond charge predicted
       N       E                     dE             d eps       ncg     rms          rms(c)
DAV:   1    -0.181676200961E+03   -0.12710E-02   -0.15989E-02  2772   0.265E-01    0.788E-02
RMM:   2    -0.181686448063E+03   -0.10247E-01   -0.16414E-03  2767   0.762E-02    0.126E+00
RMM:   3    -0.181675860040E+03    0.10588E-01   -0.10146E-03  2666   0.627E-02    0.190E-01
RMM:   4    -0.181676253626E+03   -0.39359E-03   -0.26750E-04  1736   0.452E-02    0.732E-02
RMM:   5    -0.181676260493E+03   -0.68672E-05   -0.52319E-05  1481   0.161E-02
 110 F= -.18167626E+03 E0= -.18167375E+03  d E =-.133058E-02
quench:  g(F)=  0.000E+00 g(S)=  0.000E+00 dE (1.order)= 0.000E+00
 bond charge predicted
       N       E                     dE             d eps       ncg     rms          rms(c)
DAV:   1    -0.181678018407E+03   -0.17648E-02   -0.20463E-02  2772   0.284E-01    0.554E-02
RMM:   2    -0.181679490506E+03   -0.14721E-02   -0.83443E-04  2181   0.500E-02    0.473E-01
RMM:   3    -0.181678045523E+03    0.14450E-02   -0.16894E-04  1554   0.279E-02    0.128E-01
RMM:   4    -0.181678067874E+03   -0.22351E-04   -0.11646E-04  1551   0.254E-02
 111 F= -.18167807E+03 E0= -.18167557E+03  d E =-.180738E-02
quench:  g(F)=  0.000E+00 g(S)=  0.000E+00 dE (1.order)= 0.000E+00
 bond charge predicted
       N       E                     dE             d eps       ncg     rms          rms(c)
DAV:   1    -0.181680060252E+03   -0.20147E-02   -0.25351E-02  2772   0.315E-01    0.712E-02
RMM:   2    -0.181681046804E+03   -0.98655E-03   -0.13013E-03  2705   0.666E-02    0.366E-01
RMM:   3    -0.181680865966E+03    0.18084E-03   -0.24693E-04  1632   0.294E-02    0.357E-01
RMM:   4    -0.181680045031E+03    0.82093E-03   -0.21654E-04  1583   0.326E-02    0.560E-02
RMM:   5    -0.181680108216E+03   -0.63185E-04   -0.72233E-05  1474   0.193E-02
 112 F= -.18168011E+03 E0= -.18167753E+03  d E =-.204034E-02
quench:  g(F)=  0.000E+00 g(S)=  0.000E+00 dE (1.order)= 0.000E+00
 bond charge predicted
       N       E                     dE             d eps       ncg     rms          rms(c)
DAV:   1    -0.181682128447E+03   -0.20834E-02   -0.28773E-02  2772   0.337E-01    0.610E-02
RMM:   2    -0.181682402240E+03   -0.27379E-03   -0.10143E-03  2256   0.567E-02    0.176E-01
RMM:   3    -0.181682284061E+03    0.11818E-03   -0.17481E-04  1540   0.283E-02    0.159E-01
RMM:   4    -0.181682268284E+03    0.15777E-04   -0.56678E-05  1503   0.160E-02
 113 F= -.18168227E+03 E0= -.18167970E+03  d E =-.216007E-02
quench:  g(F)=  0.000E+00 g(S)=  0.000E+00 dE (1.order)= 0.000E+00
 bond charge predicted
       N       E                     dE             d eps       ncg     rms          rms(c)
DAV:   1    -0.181683618393E+03   -0.13343E-02   -0.20301E-02  2772   0.278E-01    0.771E-02
RMM:   2    -0.181686895029E+03   -0.32766E-02   -0.15688E-03  2768   0.766E-02    0.705E-01
RMM:   3    -0.181684080051E+03    0.28150E-02   -0.48684E-04  2219   0.428E-02    0.318E-01
[...]
       N       E                     dE             d eps       ncg     rms          rms(c)
DAV:   1    -0.181655567338E+03    0.10911E-02   -0.35058E-03  2772   0.166E-01    0.610E-02
RMM:   2    -0.181658839679E+03   -0.32723E-02   -0.70822E-04  2547   0.560E-02    0.687E-01
RMM:   3    -0.181655850614E+03    0.29891E-02   -0.41408E-04  2062   0.397E-02    0.271E-01
RMM:   4    -0.181655592447E+03    0.25817E-03   -0.16957E-04  1574   0.330E-02    0.399E-02
RMM:   5    -0.181655640087E+03   -0.47640E-04   -0.36986E-05  1465   0.135E-02
 467 F= -.18165564E+03 E0= -.18165363E+03  d E =0.926534E-03
quench:  g(F)=  0.000E+00 g(S)=  0.000E+00 dE (1.order)= 0.000E+00
 bond charge predicted
       N       E                     dE             d eps       ncg     rms          rms(c)
DAV:   1    -0.181655174271E+03    0.41818E-03   -0.22717E-03  2772   0.942E-02    0.321E-02
RMM:   2    -0.181656081353E+03   -0.90708E-03   -0.21630E-04  1573   0.294E-02    0.367E-01
RMM:   3    -0.181655222278E+03    0.85907E-03   -0.10551E-04  1513   0.221E-02    0.118E-01
RMM:   4    -0.181655172749E+03    0.49529E-04   -0.50992E-05  1492   0.173E-02
 468 F= -.18165517E+03 E0= -.18165317E+03  d E =0.467338E-03
quench:  g(F)=  0.000E+00 g(S)=  0.000E+00 dE (1.order)= 0.000E+00
 bond charge predicted
       N       E                     dE             d eps       ncg     rms          rms(c)
DAV:   1    -0.181654609452E+03    0.61283E-03   -0.29991E-03  2772   0.107E-01    0.257E-02
RMM:   2    -0.181654798655E+03   -0.18920E-03   -0.14557E-04  1523   0.241E-02    0.163E-01
RMM:   3    -0.181654708987E+03    0.89668E-04   -0.45415E-05  1461   0.144E-02
 469 F= -.18165471E+03 E0= -.18165261E+03  d E =0.463762E-03
quench:  g(F)=  0.000E+00 g(S)=  0.000E+00 dE (1.order)= 0.000E+00
 bond charge predicted
       N       E                     dE             d eps       ncg     rms          rms(c)
DAV:   1    -0.181654043198E+03    0.75546E-03   -0.39314E-03  2772   0.130E-01    0.292E-02
RMM:   2    -0.181654209965E+03   -0.16677E-03   -0.17897E-04  1570   0.292E-02    0.148E-01
RMM:   3    -0.181654124922E+03    0.85042E-04   -0.64414E-05  1471   0.183E-02
 470 F= -.18165412E+03 E0= -.18165219E+03  d E =0.584065E-03
quench:  g(F)=  0.000E+00 g(S)=  0.000E+00 dE (1.order)= 0.000E+00
 bond charge predicted
       N       E                     dE             d eps       ncg     rms          rms(c)
DAV:   1    -0.181653529676E+03    0.68029E-03   -0.29544E-03  2772   0.116E-01    0.315E-02
RMM:   2    -0.181654242381E+03   -0.71270E-03   -0.19059E-04  1577   0.298E-02    0.327E-01
RMM:   3    -0.181653544408E+03    0.69797E-03   -0.88001E-05  1510   0.209E-02    0.103E-01
RMM:   4    -0.181653543824E+03    0.58419E-06   -0.33814E-05  1484   0.150E-02
 471 F= -.18165354E+03 E0= -.18165158E+03  d E =0.581099E-03
quench:  g(F)=  0.000E+00 g(S)=  0.000E+00 dE (1.order)= 0.000E+00
 bond charge predicted
       N       E                     dE             d eps       ncg     rms          rms(c)
DAV:   1    -0.181652918611E+03    0.62580E-03   -0.32804E-03  2772   0.114E-01    0.382E-02
RMM:   2    -0.181653110776E+03   -0.19216E-03   -0.27065E-04  1624   0.342E-02    0.153E-01
RMM:   3    -0.181652939328E+03    0.17145E-03   -0.11822E-04  1503   0.250E-02    0.860E-02
RMM:   4    -0.181652945982E+03   -0.66542E-05   -0.19645E-05  1420   0.975E-03
 472 F= -.18165295E+03 E0= -.18165092E+03  d E =0.597841E-03
quench:  g(F)=  0.000E+00 g(S)=  0.000E+00 dE (1.order)= 0.000E+00
 bond charge predicted
       N       E                     dE             d eps       ncg     rms          rms(c)
DAV:   1    -0.181652197872E+03    0.74146E-03   -0.43578E-03  2772   0.130E-01    0.292E-02
RMM:   2    -0.181652277045E+03   -0.79173E-04   -0.17829E-04  1530   0.263E-02
 473 F= -.18165228E+03 E0= -.18165021E+03  d E =0.668937E-03
quench:  g(F)=  0.000E+00 g(S)=  0.000E+00 dE (1.order)= 0.000E+00
 bond charge predicted
       N       E                     dE             d eps       ncg     rms          rms(c)
DAV:   1    -0.181651526258E+03    0.67161E-03   -0.48086E-03  2772   0.141E-01    0.562E-02
RMM:   2    -0.181659720271E+03   -0.81940E-02   -0.10305E-03  2712   0.565E-02    0.112E+00
RMM:   3    -0.181651068184E+03    0.86521E-02   -0.70849E-04  2528   0.542E-02    0.101E-01
RMM:   4    -0.181651525843E+03   -0.45766E-03   -0.16027E-04  1596   0.364E-02    0.476E-02
RMM:   5    -0.181651545144E+03   -0.19301E-04   -0.29177E-05  1459   0.120E-02
 474 F= -.18165155E+03 E0= -.18164958E+03  d E =0.731901E-03
quench:  g(F)=  0.000E+00 g(S)=  0.000E+00 dE (1.order)= 0.000E+00
 bond charge predicted
       N       E                     dE             d eps       ncg     rms          rms(c)
DAV:   1    -0.181651258412E+03    0.26743E-03   -0.26235E-03  2853   0.988E-02    0.241E-02
RMM:   2    -0.181652069431E+03   -0.81102E-03   -0.16669E-04  1551   0.244E-02    0.356E-01
RMM:   3    -0.181651218870E+03    0.85056E-03   -0.79632E-05  1503   0.202E-02    0.534E-02
RMM:   4    -0.181651263487E+03   -0.44618E-04   -0.27476E-05  1465   0.137E-02
 475 F= -.18165126E+03 E0= -.18164932E+03  d E =0.281657E-03
quench:  g(F)=  0.000E+00 g(S)=  0.000E+00 dE (1.order)= 0.000E+00
 bond charge predicted
       N       E                     dE             d eps       ncg     rms          rms(c)
DAV:   1    -0.181651259004E+03   -0.40135E-04   -0.80282E-04  2727   0.556E-02    0.221E-02
RMM:   2    -0.181651347461E+03   -0.88457E-04   -0.96508E-05  1464   0.208E-02
 476 F= -.18165135E+03 E0= -.18164931E+03  d E =-.839740E-04
quench:  g(F)=  0.000E+00 g(S)=  0.000E+00 dE (1.order)= 0.000E+00
 bond charge predicted
       N       E                     dE             d eps       ncg     rms          rms(c)
DAV:   1    -0.181651279907E+03   -0.20903E-04   -0.95930E-04  2763   0.809E-02    0.223E-02
RMM:   2    -0.181651726689E+03   -0.44678E-03   -0.11495E-04  1512   0.232E-02    0.249E-01
RMM:   3    -0.181651317110E+03    0.40958E-03   -0.53225E-05  1492   0.160E-02    0.990E-02
RMM:   4    -0.181651289222E+03    0.27889E-04   -0.27106E-05  1460   0.126E-02
 477 F= -.18165129E+03 E0= -.18164937E+03  d E =0.582397E-04
quench:  g(F)=  0.000E+00 g(S)=  0.000E+00 dE (1.order)= 0.000E+00
 bond charge predicted
       N       E                     dE             d eps       ncg     rms          rms(c)
DAV:   1    -0.181651334184E+03   -0.17074E-04   -0.90649E-04  2727   0.579E-02    0.222E-02
RMM:   2    -0.181651586599E+03   -0.25241E-03   -0.88835E-05  1489   0.192E-02    0.197E-01
RMM:   3    -0.181651380529E+03    0.20607E-03   -0.44009E-05  1468   0.145E-02    0.104E-01
RMM:   4    -0.181651332034E+03    0.48495E-04   -0.24293E-05  1448   0.119E-02
 478 F= -.18165133E+03 E0= -.18164938E+03  d E =-.428127E-04
quench:  g(F)=  0.000E+00 g(S)=  0.000E+00 dE (1.order)= 0.000E+00
 bond charge predicted
       N       E                     dE             d eps       ncg     rms          rms(c)
DAV:   1    -0.181651499896E+03   -0.11937E-03   -0.12071E-03  2772   0.705E-02    0.200E-02
RMM:   2    -0.181651660882E+03   -0.16099E-03   -0.80481E-05  1473   0.185E-02    0.147E-01
RMM:   3    -0.181651558705E+03    0.10218E-03   -0.32206E-05  1456   0.121E-02    0.108E-01
RMM:   4    -0.181651494756E+03    0.63949E-04   -0.18583E-05  1403   0.998E-03
 479 F= -.18165149E+03 E0= -.18164958E+03  d E =-.162722E-03
quench:  g(F)=  0.000E+00 g(S)=  0.000E+00 dE (1.order)= 0.000E+00
 bond charge predicted
       N       E                     dE             d eps       ncg     rms          rms(c)
DAV:   1    -0.181651828056E+03   -0.26935E-03   -0.19459E-03  2772   0.905E-02    0.223E-02
RMM:   2    -0.181651904796E+03   -0.76740E-04   -0.96335E-05  1456   0.202E-02
 480 F= -.18165190E+03 E0= -.18165008E+03  d E =-.410040E-03
quench:  g(F)=  0.000E+00 g(S)=  0.000E+00 dE (1.order)= 0.000E+00
 bond charge predicted
       N       E                     dE             d eps       ncg     rms          rms(c)
DAV:   1    -0.181652371201E+03   -0.54314E-03   -0.37020E-03  2772   0.137E-01    0.462E-02
RMM:   2    -0.181658354075E+03   -0.59829E-02   -0.72740E-04  2544   0.476E-02    0.948E-01
RMM:   3    -0.181652075392E+03    0.62787E-02   -0.52578E-04  2301   0.466E-02    0.102E-01
RMM:   4    -0.181652373828E+03   -0.29844E-03   -0.11988E-04  1553   0.314E-02    0.334E-02
RMM:   5    -0.181652385691E+03   -0.11862E-04   -0.17104E-05  1438   0.969E-03
 481 F= -.18165239E+03 E0= -.18165045E+03  d E =-.480895E-03
quench:  g(F)=  0.000E+00 g(S)=  0.000E+00 dE (1.order)= 0.000E+00
 bond charge predicted
       N       E                     dE             d eps       ncg     rms          rms(c)
DAV:   1    -0.181653186810E+03   -0.81298E-03   -0.67594E-03  2784   0.167E-01    0.249E-02
RMM:   2    -0.181653436986E+03   -0.25018E-03   -0.19817E-04  1597   0.241E-02    0.190E-01
RMM:   3    -0.181653212858E+03    0.22413E-03   -0.34906E-05  1450   0.128E-02    0.596E-02
RMM:   4    -0.181653204823E+03    0.80348E-05   -0.20710E-05  1409   0.107E-02
 482 F= -.18165320E+03 E0= -.18165121E+03  d E =-.819132E-03
quench:  g(F)=  0.000E+00 g(S)=  0.000E+00 dE (1.order)= 0.000E+00
 bond charge predicted
       N       E                     dE             d eps       ncg     rms          rms(c)
DAV:   1    -0.181654358565E+03   -0.11457E-02   -0.11986E-02  2772   0.219E-01    0.398E-02
RMM:   2    -0.181654575012E+03   -0.21645E-03   -0.41424E-04  1723   0.359E-02    0.168E-01
RMM:   3    -0.181654596852E+03   -0.21840E-04   -0.80317E-05  1493   0.189E-02
 483 F= -.18165460E+03 E0= -.18165270E+03  d E =-.139203E-02
quench:  g(F)=  0.000E+00 g(S)=  0.000E+00 dE (1.order)= 0.000E+00
 bond charge predicted
       N       E                     dE             d eps       ncg     rms          rms(c)
DAV:   1    -0.181655866395E+03   -0.12914E-02   -0.19111E-02  2772   0.288E-01    0.684E-02
RMM:   2    -0.181662003814E+03   -0.61374E-02   -0.13909E-03  2749   0.709E-02    0.954E-01
RMM:   3    -0.181655843946E+03    0.61599E-02   -0.61906E-04  2437   0.492E-02    0.214E-01
RMM:   4    -0.181655871790E+03   -0.27844E-04   -0.21345E-04  1627   0.377E-02
 484 F= -.18165587E+03 E0= -.18165390E+03  d E =-.127494E-02
quench:  g(F)=  0.000E+00 g(S)=  0.000E+00 dE (1.order)= 0.000E+00
 bond charge predicted
       N       E                     dE             d eps       ncg     rms          rms(c)
DAV:   1    -0.181657732805E+03   -0.18889E-02   -0.25052E-02  2772   0.312E-01    0.748E-02
RMM:   2    -0.181658493734E+03   -0.76093E-03   -0.13401E-03  2714   0.676E-02    0.304E-01
RMM:   3    -0.181658900960E+03   -0.40723E-03   -0.31493E-04  1793   0.330E-02    0.429E-01
RMM:   4    -0.181657687872E+03    0.12131E-02   -0.18946E-04  1574   0.301E-02    0.638E-02
RMM:   5    -0.181657795143E+03   -0.10727E-03   -0.82389E-05  1503   0.211E-02    0.713E-02
RMM:   6    -0.181657767859E+03    0.27284E-04   -0.30821E-05  1424   0.127E-02
 485 F= -.18165777E+03 E0= -.18165572E+03  d E =-.189607E-02
quench:  g(F)=  0.000E+00 g(S)=  0.000E+00 dE (1.order)= 0.000E+00
 bond charge predicted
       N       E                     dE             d eps       ncg     rms          rms(c)
DAV:   1    -0.181659825630E+03   -0.20305E-02   -0.31719E-02  2772   0.348E-01    0.617E-02
RMM:   2    -0.181660111079E+03   -0.28545E-03   -0.10644E-03  1979   0.524E-02    0.185E-01
RMM:   3    -0.181660314107E+03   -0.20303E-03   -0.13372E-04  1514   0.233E-02    0.266E-01
RMM:   4    -0.181659894811E+03    0.41930E-03   -0.10411E-04  1534   0.220E-02    0.810E-02
RMM:   5    -0.181659891090E+03    0.37203E-05   -0.46171E-05  1447   0.166E-02
 486 F= -.18165989E+03 E0= -.18165780E+03  d E =-.212323E-02
quench:  g(F)=  0.000E+00 g(S)=  0.000E+00 dE (1.order)= 0.000E+00
 bond charge predicted
       N       E                     dE             d eps       ncg     rms          rms(c)
DAV:   1    -0.181662075623E+03   -0.21808E-02   -0.35164E-02  2772   0.363E-01    0.701E-02
RMM:   2    -0.181662534965E+03   -0.45934E-03   -0.13405E-03  2291   0.604E-02    0.236E-01
RMM:   3    -0.181662593374E+03   -0.58409E-04   -0.16736E-04  1553   0.260E-02
 487 F= -.18166259E+03 E0= -.18166026E+03  d E =-.270228E-02
quench:  g(F)=  0.000E+00 g(S)=  0.000E+00 dE (1.order)= 0.000E+00
 bond charge predicted
       N       E                     dE             d eps       ncg     rms          rms(c)
DAV:   1    -0.181663523865E+03   -0.98890E-03   -0.24222E-02  2772   0.330E-01    0.133E-01
RMM:   2    -0.181688296584E+03   -0.24773E-01   -0.43841E-03  2775   0.125E-01    0.196E+00
RMM:   3    -0.181663893431E+03    0.24403E-01   -0.26437E-03  2746   0.999E-02    0.456E-01
RMM:   4    -0.181663429543E+03    0.46389E-03   -0.90441E-04  2692   0.755E-02    0.874E-02
RMM:   5    -0.181663607661E+03   -0.17812E-03   -0.13086E-04  1562   0.258E-02    0.859E-02
RMM:   6    -0.181663564767E+03    0.42894E-04   -0.72932E-05  1465   0.194E-02
 488 F= -.18166356E+03 E0= -.18166143E+03  d E =-.971393E-03
quench:  g(F)=  0.000E+00 g(S)=  0.000E+00 dE (1.order)= 0.000E+00
 bond charge predicted
       N       E                     dE             d eps       ncg     rms          rms(c)
DAV:   1    -0.181663708253E+03   -0.10059E-03   -0.42233E-04  1989   0.482E-02    0.392E-02
RMM:   2    -0.181663975052E+03   -0.26680E-03   -0.22061E-04  1584   0.325E-02    0.192E-01
RMM:   3    -0.181664135637E+03   -0.16059E-03   -0.11987E-04  1505   0.230E-02    0.261E-01
RMM:   4    -0.181663686980E+03    0.44866E-03   -0.61773E-05  1499   0.174E-02    0.336E-02
RMM:   5    -0.181663704002E+03   -0.17022E-04   -0.18496E-05  1417   0.108E-02
 489 F= -.18166370E+03 E0= -.18166156E+03  d E =-.139235E-03
quench:  g(F)=  0.000E+00 g(S)=  0.000E+00 dE (1.order)= 0.000E+00
 bond charge predicted
       N       E                     dE             d eps       ncg     rms          rms(c)
DAV:   1    -0.181663961367E+03   -0.27439E-03   -0.11252E-03  2466   0.574E-02    0.215E-02
RMM:   2    -0.181664472120E+03   -0.51075E-03   -0.12534E-04  1531   0.208E-02    0.278E-01
RMM:   3    -0.181663956105E+03    0.51602E-03   -0.52860E-05  1480   0.160E-02    0.594E-02
RMM:   4    -0.181663965767E+03   -0.96622E-05   -0.23530E-05  1448   0.121E-02
 490 F= -.18166397E+03 E0= -.18166182E+03  d E =-.261765E-03
quench:  g(F)=  0.000E+00 g(S)=  0.000E+00 dE (1.order)= 0.000E+00
 bond charge predicted
       N       E                     dE             d eps       ncg     rms          rms(c)
DAV:   1    -0.181664356076E+03   -0.39997E-03   -0.13222E-03  2772   0.719E-02    0.209E-02
RMM:   2    -0.181664516866E+03   -0.16079E-03   -0.84925E-05  1486   0.186E-02    0.150E-01
RMM:   3    -0.181664422187E+03    0.94680E-04   -0.35779E-05  1457   0.129E-02
 491 F= -.18166442E+03 E0= -.18166238E+03  d E =-.456420E-03
quench:  g(F)=  0.000E+00 g(S)=  0.000E+00 dE (1.order)= 0.000E+00
 bond charge predicted
       N       E                     dE             d eps       ncg     rms          rms(c)
DAV:   1    -0.181664681488E+03   -0.16462E-03   -0.15095E-03  2772   0.857E-02    0.189E-02
RMM:   2    -0.181664745049E+03   -0.63561E-04   -0.78222E-05  1422   0.202E-02
 492 F= -.18166475E+03 E0= -.18166266E+03  d E =-.322862E-03
quench:  g(F)=  0.000E+00 g(S)=  0.000E+00 dE (1.order)= 0.000E+00
 bond charge predicted
       N       E                     dE             d eps       ncg     rms          rms(c)
DAV:   1    -0.181664928820E+03   -0.24733E-03   -0.11305E-03  2772   0.787E-02    0.537E-02
RMM:   2    -0.181674456216E+03   -0.95274E-02   -0.98426E-04  2612   0.528E-02    0.121E+00
RMM:   3    -0.181664423117E+03    0.10033E-01   -0.84063E-04  2611   0.583E-02    0.855E-02
RMM:   4    -0.181664940188E+03   -0.51707E-03   -0.15817E-04  1600   0.378E-02    0.523E-02
RMM:   5    -0.181664931852E+03    0.83354E-05   -0.21994E-05  1454   0.106E-02
 493 F= -.18166493E+03 E0= -.18166276E+03  d E =-.186803E-03
quench:  g(F)=  0.000E+00 g(S)=  0.000E+00 dE (1.order)= 0.000E+00
 bond charge predicted
       N       E                     dE             d eps       ncg     rms          rms(c)
DAV:   1    -0.181664996975E+03   -0.56787E-04   -0.79877E-04  2844   0.566E-02    0.135E-02
RMM:   2    -0.181665212823E+03   -0.21585E-03   -0.44811E-05  1457   0.139E-02    0.181E-01
RMM:   3    -0.181665003799E+03    0.20902E-03   -0.23380E-05  1437   0.106E-02    0.387E-02
RMM:   4    -0.181665001728E+03    0.20711E-05   -0.98010E-06  1340   0.796E-03
 494 F= -.18166500E+03 E0= -.18166284E+03  d E =-.698760E-04
quench:  g(F)=  0.000E+00 g(S)=  0.000E+00 dE (1.order)= 0.000E+00
 bond charge predicted
       N       E                     dE             d eps       ncg     rms          rms(c)
DAV:   1    -0.181664979571E+03    0.24228E-04   -0.60374E-04  2772   0.479E-02    0.128E-02
RMM:   2    -0.181665284031E+03   -0.30446E-03   -0.50809E-05  1461   0.138E-02    0.214E-01
RMM:   3    -0.181664971230E+03    0.31280E-03   -0.29069E-05  1447   0.121E-02    0.409E-02
RMM:   4    -0.181664979748E+03   -0.85177E-05   -0.10939E-05  1388   0.856E-03
 495 F= -.18166498E+03 E0= -.18166281E+03  d E =0.219804E-04
quench:  g(F)=  0.000E+00 g(S)=  0.000E+00 dE (1.order)= 0.000E+00
 bond charge predicted
       N       E                     dE             d eps       ncg     rms          rms(c)
DAV:   1    -0.181664907474E+03    0.63756E-04   -0.66049E-04  2772   0.513E-02    0.119E-02
RMM:   2    -0.181664942120E+03   -0.34646E-04   -0.32519E-05  1392   0.121E-02
 496 F= -.18166494E+03 E0= -.18166269E+03  d E =0.376275E-04
quench:  g(F)=  0.000E+00 g(S)=  0.000E+00 dE (1.order)= 0.000E+00
 bond charge predicted
       N       E                     dE             d eps       ncg     rms          rms(c)
DAV:   1    -0.181664824881E+03    0.82593E-04   -0.73842E-04  2772   0.650E-02    0.610E-02
RMM:   2    -0.181678577191E+03   -0.13752E-01   -0.13784E-03  2652   0.609E-02    0.145E+00
RMM:   3    -0.181664155653E+03    0.14422E-01   -0.11694E-03  2681   0.684E-02    0.822E-02
RMM:   4    -0.181664825235E+03   -0.66958E-03   -0.21270E-04  1661   0.437E-02    0.583E-02
RMM:   5    -0.181664811916E+03    0.13319E-04   -0.24783E-05  1457   0.114E-02
 497 F= -.18166481E+03 E0= -.18166265E+03  d E =0.130204E-03
quench:  g(F)=  0.000E+00 g(S)=  0.000E+00 dE (1.order)= 0.000E+00
 bond charge predicted
       N       E                     dE             d eps       ncg     rms          rms(c)
DAV:   1    -0.181664684216E+03    0.14102E-03   -0.71981E-04  2844   0.571E-02    0.192E-02
RMM:   2    -0.181665446934E+03   -0.76272E-03   -0.99241E-05  1517   0.188E-02    0.342E-01
RMM:   3    -0.181664667593E+03    0.77934E-03   -0.71072E-05  1499   0.186E-02    0.601E-02
RMM:   4    -0.181664686818E+03   -0.19225E-04   -0.22379E-05  1447   0.126E-02
 498 F= -.18166469E+03 E0= -.18166252E+03  d E =0.125098E-03
quench:  g(F)=  0.000E+00 g(S)=  0.000E+00 dE (1.order)= 0.000E+00
 bond charge predicted
       N       E                     dE             d eps       ncg     rms          rms(c)
DAV:   1    -0.181664502172E+03    0.16542E-03   -0.92984E-04  2772   0.622E-02    0.174E-02
RMM:   2    -0.181664558042E+03   -0.55870E-04   -0.62744E-05  1437   0.166E-02
 499 F= -.18166456E+03 E0= -.18166230E+03  d E =0.128776E-03
quench:  g(F)=  0.000E+00 g(S)=  0.000E+00 dE (1.order)= 0.000E+00
 bond charge predicted
       N       E                     dE             d eps       ncg     rms          rms(c)
DAV:   1    -0.181664256451E+03    0.24572E-03   -0.13083E-03  2772   0.884E-02    0.813E-02
RMM:   2    -0.181688448630E+03   -0.24192E-01   -0.24458E-03  2730   0.808E-02    0.193E+00
RMM:   3    -0.181663309641E+03    0.25139E-01   -0.20368E-03  2721   0.897E-02    0.107E-01
RMM:   4    -0.181664248584E+03   -0.93894E-03   -0.37975E-04  1937   0.570E-02    0.763E-02
RMM:   5    -0.181664230013E+03    0.18571E-04   -0.41656E-05  1492   0.146E-02
 500 F= -.18166423E+03 E0= -.18166202E+03  d E =0.328029E-03
quench:  g(F)=  0.000E+00 g(S)=  0.000E+00 dE (1.order)= 0.000E+00
