 vasp.5.4.4.18Apr17-6-g9f103f2a35 (build Feb 06 2024 13:54:16) complex          
  
 POSCAR found type information on POSCAR  Cu Ni Cu N  O 
 05/POSCAR found :  5 types and      40 ions
 scaLAPACK will be used

 ----------------------------------------------------------------------------- 
|                                                                             |
|  ADVICE TO THIS USER RUNNING 'VASP/VAMP'   (HEAR YOUR MASTER'S VOICE ...):  |
|                                                                             |
|      You enforced a specific xc-type in the INCAR file,                     |
|      a different type was found on the POTCAR file                          |
|          I HOPE YOU KNOW, WHAT YOU ARE  DOING                               |
|                                                                             |
 ----------------------------------------------------------------------------- 

 LDA part: xc-table for Pade appr. of Perdew
 POSCAR found type information on POSCAR  Cu Ni Cu N  O 
 00/POSCAR found :  5 types and      40 ions
 POSCAR found type information on POSCAR  Cu Ni Cu N  O 
 06/POSCAR found :  5 types and      40 ions
 Jacobian:    20.5888137679208     
 POSCAR, INCAR and KPOINTS ok, starting setup
 FFT: planning ...
 WAVECAR not read
 entering main loop
       N       E                     dE             d eps       ncg     rms          rms(c)
  Solvation turned off during non-self-consistent phase (first NELMDL steps)
DAV:   1     0.413213013740E+04    0.41321E+04   -0.17868E+05  4032   0.203E+03
DAV:   2     0.569390993923E+03   -0.35627E+04   -0.34386E+04  4032   0.456E+02
DAV:   3    -0.402966980958E+02   -0.60969E+03   -0.56366E+03  4797   0.228E+02
DAV:   4    -0.150879047852E+03   -0.11058E+03   -0.97889E+02  7146   0.909E+01
DAV:   5    -0.163146110108E+03   -0.12267E+02   -0.11690E+02  6318   0.307E+01    0.435E+01
 Begin Solvation calculations
  rms_SCF =    5.18071209204042      tol =   0.518071209204042     
 Begin minimization
 Creating dielectric and ionic cavities
  area:      161.122732979899     
  volume:    674.784273681285     
  Acav:     8.458943481444682E-002
  Solving linear dielectric/ionic screening model
        iter                  A_solv                     rms
   LPB:       -0.354827708890371E+03   0.229664821993011E+03
   LPB:    0  -0.899322534396266E+01   0.326304676821683E+02  -0.457406E+01   0.000000E+00   0.330594E+02  -0.151216E+03
   LPB:    1  -0.171936826064206E+01   0.852788496407913E+01   0.113807E-01   0.000000E+00   0.100514E+03   0.118975E-13
   LPB:    2  -0.710038278904165E+00   0.131768060559504E+01   0.129479E-01   0.121966E+00   0.314946E+03  -0.411393E-14
   LPB:    3  -0.434575939415254E+00   0.123353670033446E+01   0.271086E-01   0.130353E+00   0.548715E+03   0.926738E-15
   LPB:    4  -0.347204798518419E+00   0.114028007793972E+01   0.252772E-01   0.340161E+00   0.930673E+02   0.164191E-15
   LPB:    5  -0.305435172542673E+00   0.707644824366009E+00   0.222595E-01   0.542883E+00   0.419663E+03   0.855214E-15
   LPB:    6  -0.279437566684123E+00   0.212433999595535E+00   0.298664E-01   0.463880E+00   0.105351E+03   0.111644E-13
  Finished solving LPB equations
  A_corr:   -0.194848131869677     
 End minimization
 Ecorr=   1766.27929629967     
 A_corr= -0.194848131869677     
 Ecorr_band=  -1766.47414443154     
 End Solvation calculations
RMM:   6    -0.155116122876E+03    0.80300E+01   -0.35394E+02  4091   0.932E+01    0.333E+01
 Begin Solvation calculations
  rms_SCF =    5.18071209204042      tol =   0.518071209204042     
 Begin minimization
 Creating dielectric and ionic cavities
  area:      174.903643282648     
  volume:    694.496133572946     
  Acav:     9.182441272339001E-002
  Solving linear dielectric/ionic screening model
        iter                  A_solv                     rms
   LPB:       -0.592426002403775E+01   0.393234670615855E+02
   LPB:    0  -0.470283364799431E+01   0.350149164600748E+02   0.275713E+00   0.000000E+00   0.321353E+02   0.886013E+01
   LPB:    1  -0.657902136362102E+00   0.321026048882831E+01   0.929759E-02   0.000000E+00   0.752013E+02   0.516458E-15
   LPB:    2  -0.302234597347546E+00   0.104622300481769E+01   0.152488E-01   0.536127E-01   0.221288E+03  -0.111085E-13
   LPB:    3  -0.243412340736890E+00   0.827226397573930E+00   0.229140E-01   0.110061E+00   0.131298E+03  -0.117063E-13
   LPB:    4  -0.220715166574707E+00   0.527596756276136E+00   0.214402E-01   0.412385E+00   0.289481E+03  -0.915572E-14
   LPB:    5  -0.207344468688067E+00   0.188071194007543E+00   0.289273E-01   0.436620E+00   0.133666E+03  -0.350486E-14
  Finished solving LPB equations
  A_corr:   -0.115520055964677     
 End minimization
 Ecorr=   1671.77035967222     
 A_corr= -0.115520055964677     
 Ecorr_band=  -1671.88587972819     
 End Solvation calculations
RMM:   7    -0.138386222572E+03    0.16730E+02   -0.62414E+01  4099   0.425E+01    0.244E+01
 Begin Solvation calculations
  rms_SCF =    3.59094792147696      tol =   0.359094792147696     
 Begin minimization
 Creating dielectric and ionic cavities
  area:      156.508471452830     
  volume:    693.318679944618     
  Acav:     8.216694751273550E-002
  Solving linear dielectric/ionic screening model
        iter                  A_solv                     rms
   LPB:       -0.292397589674827E+00   0.366397572929823E+01
   LPB:    0  -0.289833447751197E+00   0.362793790734215E+01   0.126218E-01   0.000000E+00   0.321905E+02   0.406303E+00
   LPB:    1  -0.226370462897849E+00   0.730880135082085E+00   0.111392E-01   0.000000E+00   0.776837E+02   0.285717E-17
   LPB:    2  -0.214421487294069E+00   0.198630260314619E+00   0.158058E-01   0.132693E+00   0.259175E+03  -0.300346E-15
   LPB:    3  -0.208760910981092E+00   0.108902337858163E+00   0.307017E-01   0.243884E+00   0.179587E+03   0.926147E-16
   LPB:    4  -0.205144024440848E+00   0.256645926394346E+00   0.408964E-01   0.479680E+00   0.268178E+03  -0.805986E-15
  Finished solving LPB equations
  A_corr:   -0.122977076928112     
 End minimization
 Ecorr=   1654.86287281867     
 A_corr= -0.122977076928112     
 Ecorr_band=  -1654.98584989560     
 End Solvation calculations
RMM:   8    -0.140039106476E+03   -0.16529E+01   -0.12413E+01  4099   0.117E+01    0.180E+01
 Begin Solvation calculations
  rms_SCF =    3.59094792147696      tol =   0.359094792147696     
 Begin minimization
 Creating dielectric and ionic cavities
  area:      168.628883244062     
  volume:    692.094760997768     
  Acav:     8.853016370313263E-002
  Solving linear dielectric/ionic screening model
        iter                  A_solv                     rms
   LPB:       -0.122630458389816E+01   0.169762510435750E+02
   LPB:    0  -0.122628872452408E+01   0.169722038567189E+02  -0.991762E-03   0.000000E+00   0.322479E+02  -0.319822E-01
   LPB:    1  -0.334034035807367E+00   0.163523157807304E+01   0.920655E-02   0.000000E+00   0.727158E+02  -0.196486E-17
   LPB:    2  -0.255271847041841E+00   0.251656679901803E+00   0.151542E-01   0.536283E-01   0.170453E+03  -0.599350E-15
   LPB:    3  -0.243741769348904E+00   0.234415032546556E+00   0.257834E-01   0.860410E-01   0.327917E+03  -0.350510E-14
   LPB:    4  -0.239344007044212E+00   0.187057016912420E+00   0.292197E-01   0.336562E+00   0.977457E+02  -0.383093E-14
  Finished solving LPB equations
  A_corr:   -0.150813843341079     
 End minimization
 Ecorr=   1633.58881132634     
 A_corr= -0.150813843341079     
 Ecorr_band=  -1633.73962516968     
 End Solvation calculations
RMM:   9    -0.136998252283E+03    0.30409E+01   -0.17819E+00  4104   0.513E+00    0.131E+01
 Begin Solvation calculations
  rms_SCF =    1.91616380026937      tol =   0.191616380026937     
 Begin minimization
 Creating dielectric and ionic cavities
  area:      160.959664926050     
  volume:    688.794368480844     
  Acav:     8.450382408617611E-002
  Solving linear dielectric/ionic screening model
        iter                  A_solv                     rms
   LPB:       -0.503982733858931E+00   0.355392010650968E+01
   LPB:    0  -0.503951553665249E+00   0.351838128570768E+01  -0.138728E-02   0.000000E+00   0.324026E+02  -0.449515E-01
   LPB:    1  -0.342059966037355E+00   0.172934663811038E+01   0.137847E-01   0.000000E+00   0.113991E+03   0.280108E-18
   LPB:    2  -0.306444076099290E+00   0.546948467110052E+00   0.142231E-01   0.213218E+00   0.156727E+03  -0.120045E-14
   LPB:    3  -0.292545810312240E+00   0.366324558076720E+00   0.285466E-01   0.194427E+00   0.165682E+03  -0.274807E-14
   LPB:    4  -0.286336910008578E+00   0.322085066559782E+00   0.301292E-01   0.423274E+00   0.671205E+02  -0.312821E-14
   LPB:    5  -0.282354427017080E+00   0.251907508189436E+00   0.252389E-01   0.765697E+00   0.300064E+03  -0.183515E-14
   LPB:    6  -0.278907964612234E+00   0.734996025837515E-01   0.344965E-01   0.633161E+00   0.594119E+02   0.377988E-15
  Finished solving LPB equations
  A_corr:   -0.194404140526058     
 End minimization
 Ecorr=   1589.26704339383     
 A_corr= -0.194404140526058     
 Ecorr_band=  -1589.46144753435     
 End Solvation calculations
RMM:  10    -0.135782861246E+03    0.12154E+01   -0.27527E+00  4085   0.700E+00    0.879E+00
 Begin Solvation calculations
  rms_SCF =    1.91616380026937      tol =   0.191616380026937     
 Begin minimization
 Creating dielectric and ionic cavities
  area:      154.554754380547     
  volume:    686.149500679503     
  Acav:     8.114124604978702E-002
  Solving linear dielectric/ionic screening model
        iter                  A_solv                     rms
   LPB:       -0.619304144228765E+00   0.883332515786222E+01
   LPB:    0  -0.619229659232811E+00   0.884412885317411E+01   0.214008E-02   0.000000E+00   0.325266E+02   0.696095E-01
   LPB:    1  -0.354594601529156E+00   0.920856600945290E+00   0.940891E-02   0.000000E+00   0.757877E+02  -0.149446E-17
   LPB:    2  -0.328217594112923E+00   0.154931232749711E+00   0.147650E-01   0.635160E-01   0.227609E+03  -0.189273E-14
   LPB:    3  -0.323589890481673E+00   0.136091812687919E+00   0.265586E-01   0.975371E-01   0.411457E+03  -0.378220E-14
   LPB:    4  -0.321510454254575E+00   0.141903768184081E+00   0.333900E-01   0.357411E+00   0.970923E+02  -0.358936E-14
  Finished solving LPB equations
  A_corr:   -0.240369208204788     
 End minimization
 Ecorr=   1572.32540228526     
 A_corr= -0.240369208204788     
 Ecorr_band=  -1572.56577149346     
 End Solvation calculations
RMM:  11    -0.134877407607E+03    0.90545E+00   -0.11535E+00  4078   0.436E+00    0.317E+00
 Begin Solvation calculations
  rms_SCF =   0.908013755981325      tol =   9.080137559813253E-002
 Begin minimization
 Creating dielectric and ionic cavities
  area:      146.333711571036     
  volume:    683.496455786851     
  Acav:     7.682519857479395E-002
  Solving linear dielectric/ionic screening model
        iter                  A_solv                     rms
   LPB:       -0.377870392168711E+00   0.966562560032915E+00
   LPB:    0  -0.376015380106653E+00   0.112971837897483E+01   0.106596E-01   0.000000E+00   0.326510E+02   0.348046E+00
   LPB:    1  -0.351285223874940E+00   0.532040895927353E+00   0.158844E-01   0.000000E+00   0.128786E+03  -0.936989E-17
   LPB:    2  -0.346862783401558E+00   0.328881858044236E+00   0.146326E-01   0.194126E+00   0.183755E+03  -0.504091E-14
   LPB:    3  -0.343708624458905E+00   0.205727671009715E+00   0.295919E-01   0.352672E+00   0.922100E+02  -0.603070E-14
   LPB:    4  -0.340867501398336E+00   0.157247724494930E+00   0.415475E-01   0.641556E+00   0.647033E+02  -0.663327E-14
   LPB:    5  -0.338666974997618E+00   0.218676138153366E+00   0.319183E-01   0.100819E+01   0.203367E+03  -0.712759E-14
   LPB:    6  -0.337057121961391E+00   0.116239601715992E+00   0.272668E-01   0.856377E+00   0.436520E+02  -0.784832E-14
   LPB:    7  -0.336005771644769E+00   0.542766988788899E-01   0.297121E-01   0.599325E+00   0.225934E+03  -0.773368E-14
  Finished solving LPB equations
  A_corr:   -0.259180573069975     
 End minimization
 Ecorr=   1542.60130732851     
 A_corr= -0.259180573069975     
 Ecorr_band=  -1542.86048790158     
 End Solvation calculations
RMM:  12    -0.134855551297E+03    0.21856E-01   -0.18110E-01  4176   0.148E+00    0.254E+00
 Begin Solvation calculations
  rms_SCF =   0.518286635647789      tol =   5.182866356477894E-002
 Begin minimization
 Creating dielectric and ionic cavities
  area:      142.078416698773     
  volume:    678.238284136483     
  Acav:     7.459116876685568E-002
  Solving linear dielectric/ionic screening model
        iter                  A_solv                     rms
   LPB:       -0.519974023800817E+00   0.264326982637406E+01
   LPB:    0  -0.517794821007478E+00   0.287430477674764E+01   0.115102E-01   0.000000E+00   0.328975E+02   0.378656E+00
   LPB:    1  -0.410811210083074E+00   0.140216496586977E+01   0.135342E-01   0.000000E+00   0.122429E+03   0.598226E-17
   LPB:    2  -0.395206207630026E+00   0.282933538401894E+00   0.132868E-01   0.148579E+00   0.134788E+03  -0.141828E-15
   LPB:    3  -0.390385671154738E+00   0.177636262058398E+00   0.215645E-01   0.190333E+00   0.301530E+03  -0.227937E-15
   LPB:    4  -0.388822410103584E+00   0.164306091466637E+00   0.238135E-01   0.293665E+00   0.111872E+03  -0.222572E-15
   LPB:    5  -0.387679226090956E+00   0.145425291283308E+00   0.282966E-01   0.615421E+00   0.293687E+03  -0.798007E-15
   LPB:    6  -0.386560930109397E+00   0.614928410700305E-01   0.377866E-01   0.732550E+00   0.649241E+02  -0.315265E-15
   LPB:    7  -0.385559668737322E+00   0.396839163915862E-01   0.382647E-01   0.884158E+00   0.113416E+03   0.909236E-15
  Finished solving LPB equations
  A_corr:   -0.310968499970467     
 End minimization
 Ecorr=   1513.36296093717     
 A_corr= -0.310968499970467     
 Ecorr_band=  -1513.67392943714     
 End Solvation calculations
RMM:  13    -0.134837521089E+03    0.18030E-01   -0.18850E-01  4123   0.177E+00    0.153E+00
 Begin Solvation calculations
  rms_SCF =   0.502724253185602      tol =   5.027242531856019E-002
 Begin minimization
 Creating dielectric and ionic cavities
  area:      140.971739361799     
  volume:    675.674953897623     
  Acav:     7.401016316494442E-002
  Solving linear dielectric/ionic screening model
        iter                  A_solv                     rms
   LPB:       -0.433172052937714E+00   0.104696062371159E+01
   LPB:    0  -0.433156441501581E+00   0.101061662862911E+01  -0.972441E-03   0.000000E+00   0.330177E+02  -0.321077E-01
   LPB:    1  -0.411695730956794E+00   0.366302782736264E+00   0.155818E-01   0.000000E+00   0.126913E+03  -0.139121E-17
   LPB:    2  -0.408851410154687E+00   0.179025194827478E+00   0.160181E-01   0.128927E+00   0.193936E+03   0.788281E-15
   LPB:    3  -0.407964203818994E+00   0.844360381811167E-01   0.220965E-01   0.226117E+00   0.100904E+03  -0.464637E-15
   LPB:    4  -0.407477445022513E+00   0.135836714098495E+00   0.351115E-01   0.345274E+00   0.180920E+03  -0.920163E-15
   LPB:    5  -0.407025690535222E+00   0.127087225758652E+00   0.274640E-01   0.118652E+01   0.930988E+02  -0.127953E-14
   LPB:    6  -0.406425394666764E+00   0.511957413360180E-01   0.314693E-01   0.115968E+01   0.570913E+02  -0.160860E-14
   LPB:    7  -0.405979132988261E+00   0.340607725861840E-01   0.326903E-01   0.715637E+00   0.100424E+03  -0.235817E-14
  Finished solving LPB equations
  A_corr:   -0.331968969823317     
 End minimization
 Ecorr=   1498.90368484105     
 A_corr= -0.331968969823317     
 Ecorr_band=  -1499.23565381087     
 End Solvation calculations
RMM:  14    -0.134808020736E+03    0.29500E-01   -0.69671E-02  4117   0.116E+00    0.683E-01
 Begin Solvation calculations
  rms_SCF =   0.383847808333833      tol =   3.838478083338325E-002
 Begin minimization
 Creating dielectric and ionic cavities
  area:      141.116643413225     
  volume:    674.055172032149     
  Acav:     7.408623779194314E-002
  Solving linear dielectric/ionic screening model
        iter                  A_solv                     rms
   LPB:       -0.434500681709265E+00   0.812736253225548E+00
   LPB:    0  -0.434448619650084E+00   0.748296210425443E+00  -0.177380E-02   0.000000E+00   0.330936E+02  -0.587013E-01
   LPB:    1  -0.422941274055849E+00   0.273562441591098E+00   0.154643E-01   0.000000E+00   0.130537E+03  -0.344862E-17
   LPB:    2  -0.421516350786967E+00   0.110766463415214E+00   0.154458E-01   0.123976E+00   0.174438E+03   0.238798E-14
   LPB:    3  -0.421146115060450E+00   0.398410089797516E-01   0.211817E-01   0.189469E+00   0.118382E+03   0.257974E-14
   LPB:    4  -0.420996542931002E+00   0.537574965510894E-01   0.320768E-01   0.266773E+00   0.334054E+03   0.249346E-14
   LPB:    5  -0.420874960007067E+00   0.748616302426525E-01   0.323871E-01   0.805083E+00   0.921380E+02   0.261106E-14
   LPB:    6  -0.420733560541059E+00   0.463970891884119E-01   0.271217E-01   0.138877E+01   0.738743E+02   0.283144E-14
   LPB:    7  -0.420576002401938E+00   0.259824106871897E-01   0.345565E-01   0.874542E+00   0.804848E+02   0.326714E-14
  Finished solving LPB equations
  A_corr:   -0.346489764609995     
 End minimization
 Ecorr=   1491.08310223258     
 A_corr= -0.346489764609995     
 Ecorr_band=  -1491.42959199719     
 End Solvation calculations
RMM:  15    -0.134801816293E+03    0.62044E-02   -0.16655E-02  4224   0.434E-01    0.484E-01
 Begin Solvation calculations
  rms_SCF =   0.294513674654418      tol =   2.945136746544176E-002
 Begin minimization
 Creating dielectric and ionic cavities
  area:      141.504828022478     
  volume:    672.460093242261     
  Acav:     7.429003471180069E-002
  Solving linear dielectric/ionic screening model
        iter                  A_solv                     rms
   LPB:       -0.456620014320441E+00   0.803710549990175E+00
   LPB:    0  -0.456619843382399E+00   0.807063437257727E+00   0.101525E-03   0.000000E+00   0.331684E+02   0.336741E-02
   LPB:    1  -0.441168381396119E+00   0.434841909616949E+00   0.150332E-01   0.000000E+00   0.165942E+03  -0.166121E-18
   LPB:    2  -0.439291167410833E+00   0.134741827690859E+00   0.143299E-01   0.127454E+00   0.106623E+03   0.542101E-15
   LPB:    3  -0.438790168401869E+00   0.728263392856739E-01   0.185020E-01   0.206703E+00   0.246314E+03   0.650943E-15
   LPB:    4  -0.438611949069891E+00   0.637631279331346E-01   0.211255E-01   0.311552E+00   0.118461E+03   0.583778E-15
   LPB:    5  -0.438481549514520E+00   0.505509595032537E-01   0.266729E-01   0.579506E+00   0.244979E+03   0.669449E-15
   LPB:    6  -0.438355148074203E+00   0.198362184320227E-01   0.371782E-01   0.695437E+00   0.672829E+02   0.962342E-15
  Finished solving LPB equations
  A_corr:   -0.364065113362403     
 End minimization
 Ecorr=   1483.64625933725     
 A_corr= -0.364065113362403     
 Ecorr_band=  -1484.01032445061     
 End Solvation calculations
RMM:  16    -0.134801664662E+03    0.15163E-03   -0.10678E-02  4211   0.308E-01    0.285E-01
 Begin Solvation calculations
  rms_SCF =   0.216111505777935      tol =   2.161115057779354E-002
 Begin minimization
 Creating dielectric and ionic cavities
  area:      141.978804328934     
  volume:    670.912271566026     
  Acav:     7.453887227269031E-002
  Solving linear dielectric/ionic screening model
        iter                  A_solv                     rms
   LPB:       -0.481980174993997E+00   0.101556448944530E+01
   LPB:    0  -0.481921868228271E+00   0.953005851917341E+00  -0.187300E-02   0.000000E+00   0.332410E+02  -0.622603E-01
   LPB:    1  -0.461737102226354E+00   0.516213965692318E+00   0.146489E-01   0.000000E+00   0.166314E+03   0.269605E-17
   LPB:    2  -0.459179456388584E+00   0.154620445011393E+00   0.142664E-01   0.130109E+00   0.100305E+03   0.108980E-15
   LPB:    3  -0.458526705618547E+00   0.911969436028157E-01   0.187175E-01   0.194524E+00   0.234349E+03  -0.156989E-15
   LPB:    4  -0.458211515409837E+00   0.855392788009111E-01   0.238034E-01   0.379695E+00   0.105997E+03  -0.508979E-15
   LPB:    5  -0.457964784733079E+00   0.684382223352624E-01   0.272979E-01   0.682590E+00   0.224992E+03  -0.687305E-15
   LPB:    6  -0.457738643425152E+00   0.266327510429156E-01   0.345196E-01   0.724803E+00   0.731921E+02  -0.107887E-14
   LPB:    7  -0.457568250973592E+00   0.183435292772970E-01   0.365885E-01   0.710872E+00   0.179368E+03  -0.136552E-14
  Finished solving LPB equations
  A_corr:   -0.383029378700902     
 End minimization
 Ecorr=   1475.31304806188     
 A_corr= -0.383029378700902     
 Ecorr_band=  -1475.69607744058     
 End Solvation calculations
RMM:  17    -0.134803651714E+03   -0.19871E-02   -0.50492E-03  4289   0.189E-01    0.278E-01
 Begin Solvation calculations
  rms_SCF =   0.216111505777935      tol =   2.161115057779354E-002
 Begin minimization
 Creating dielectric and ionic cavities
  area:      142.410968297544     
  volume:    669.930620203215     
  Acav:     7.476575835621047E-002
  Solving linear dielectric/ionic screening model
        iter                  A_solv                     rms
   LPB:       -0.490370783748323E+00   0.986711702978429E+00
   LPB:    0  -0.490260376713101E+00   0.909301956757113E+00  -0.257559E-02   0.000000E+00   0.332870E+02  -0.857335E-01
   LPB:    1  -0.474844263611780E+00   0.305011818296089E+00   0.153900E-01   0.000000E+00   0.133174E+03   0.657702E-17
   LPB:    2  -0.473047409711704E+00   0.119936832484735E+00   0.154324E-01   0.116237E+00   0.147754E+03   0.258730E-14
   LPB:    3  -0.472615594568201E+00   0.425773871954422E-01   0.209274E-01   0.177216E+00   0.119141E+03   0.205963E-14
   LPB:    4  -0.472418138295761E+00   0.305798643325621E-01   0.305107E-01   0.313643E+00   0.310689E+03   0.105624E-14
   LPB:    5  -0.472248804503108E+00   0.496961532804615E-01   0.413449E-01   0.632852E+00   0.131872E+03   0.298507E-15
   LPB:    6  -0.472116015392349E+00   0.809527231204639E-01   0.303485E-01   0.106833E+01   0.664330E+02   0.106271E-15
   LPB:    7  -0.472010611063181E+00   0.375857038403930E-01   0.219812E-01   0.109593E+01   0.143644E+03   0.142263E-16
   LPB:    8  -0.471924361859695E+00   0.143527119130400E-01   0.297846E-01   0.603889E+00   0.142191E+03  -0.593710E-16
  Finished solving LPB equations
  A_corr:   -0.397158603503484     
 End minimization
 Ecorr=   1468.56265069052     
 A_corr= -0.397158603503484     
 Ecorr_band=  -1468.95980929403     
 End Solvation calculations
RMM:  18    -0.134805011547E+03   -0.13598E-02   -0.21236E-03  4554   0.947E-02    0.232E-01
 Begin Solvation calculations
  rms_SCF =   0.216111505777935      tol =   2.161115057779354E-002
 Begin minimization
 Creating dielectric and ionic cavities
  area:      142.979831842008     
  volume:    668.950149072860     
  Acav:     7.506441171705414E-002
  Solving linear dielectric/ionic screening model
        iter                  A_solv                     rms
   LPB:       -0.523256338671735E+00   0.147716795462769E+01
   LPB:    0  -0.522912418309600E+00   0.135571627514990E+01  -0.454263E-02   0.000000E+00   0.333329E+02  -0.151419E+00
   LPB:    1  -0.495135434303781E+00   0.369548678901666E+00   0.153446E-01   0.000000E+00   0.113323E+03  -0.639115E-17
   LPB:    2  -0.491969682057094E+00   0.166985322873595E+00   0.150795E-01   0.115974E+00   0.188941E+03   0.191331E-14
   LPB:    3  -0.491248862907754E+00   0.871286777193534E-01   0.198683E-01   0.172813E+00   0.110838E+03   0.889950E-15
   LPB:    4  -0.490989701273473E+00   0.835125793310262E-01   0.218160E-01   0.327439E+00   0.284162E+03   0.632044E-15
   LPB:    5  -0.490855718144162E+00   0.607983547270854E-01   0.217964E-01   0.517450E+00   0.118811E+03   0.391558E-15
   LPB:    6  -0.490732515360445E+00   0.262319719987638E-01   0.288214E-01   0.695410E+00   0.120757E+03   0.292322E-15
   LPB:    7  -0.490621162673067E+00   0.150070084170265E-01   0.384118E-01   0.678158E+00   0.150871E+03   0.169149E-16
  Finished solving LPB equations
  A_corr:   -0.415556750956013     
 End minimization
 Ecorr=   1462.36425502230     
 A_corr= -0.415556750956013     
 Ecorr_band=  -1462.77981177326     
 End Solvation calculations
RMM:  19    -0.134807249552E+03   -0.22380E-02   -0.27154E-03  4056   0.122E-01    0.174E-01
 Begin Solvation calculations
  rms_SCF =   0.163195110943412      tol =   1.631951109434116E-002
 Begin minimization
 Creating dielectric and ionic cavities
  area:      143.489277276083     
  volume:    668.354498126520     
  Acav:     7.533187056994368E-002
  Solving linear dielectric/ionic screening model
        iter                  A_solv                     rms
   LPB:       -0.535053197788853E+00   0.135753868407851E+01
   LPB:    0  -0.534691752603005E+00   0.122922904416823E+01  -0.465498E-02   0.000000E+00   0.333609E+02  -0.155294E+00
   LPB:    1  -0.511932392962183E+00   0.345818266287097E+00   0.152675E-01   0.000000E+00   0.113288E+03  -0.769605E-17
   LPB:    2  -0.509375397854594E+00   0.140233321835727E+00   0.152586E-01   0.112415E+00   0.158123E+03   0.757114E-15
   LPB:    3  -0.508791906359497E+00   0.570806632162620E-01   0.209027E-01   0.166578E+00   0.113849E+03   0.928443E-15
   LPB:    4  -0.508522764179851E+00   0.479376905419262E-01   0.289797E-01   0.332701E+00   0.311707E+03   0.158737E-14
   LPB:    5  -0.508325451370756E+00   0.704083190007370E-01   0.359234E-01   0.591413E+00   0.101239E+03   0.114663E-14
   LPB:    6  -0.508192938939665E+00   0.713810453621419E-01   0.238113E-01   0.101320E+01   0.128922E+03   0.134326E-14
   LPB:    7  -0.508068049212737E+00   0.287794141795391E-01   0.255968E-01   0.876733E+00   0.112996E+03   0.150301E-14
   LPB:    8  -0.507972860497892E+00   0.130251143017479E-01   0.337763E-01   0.577608E+00   0.219480E+03   0.168708E-14
  Finished solving LPB equations
  A_corr:   -0.432640989927948     
 End minimization
 Ecorr=   1455.86534632850     
 A_corr= -0.432640989927948     
 Ecorr_band=  -1456.29798731843     
 End Solvation calculations
RMM:  20    -0.134809386402E+03   -0.21369E-02   -0.18023E-03  4068   0.116E-01    0.141E-01
 Begin Solvation calculations
  rms_SCF =   0.163195110943412      tol =   1.631951109434116E-002
 Begin minimization
 Creating dielectric and ionic cavities
  area:      143.763275052240     
  volume:    668.216723403874     
  Acav:     7.547571940242583E-002
  Solving linear dielectric/ionic screening model
        iter                  A_solv                     rms
   LPB:       -0.529334872184848E+00   0.101477712384531E+01
   LPB:    0  -0.529137669231756E+00   0.935788165115270E+00  -0.343804E-02   0.000000E+00   0.333673E+02  -0.114718E+00
   LPB:    1  -0.519572986244253E+00   0.209177942646666E+00   0.150012E-01   0.000000E+00   0.887669E+02  -0.960530E-18
   LPB:    2  -0.518527620954027E+00   0.105491536725811E+00   0.144774E-01   0.113249E+00   0.232624E+03   0.848789E-15
   LPB:    3  -0.518298590639762E+00   0.564562499338186E-01   0.180186E-01   0.176032E+00   0.115704E+03   0.118554E-14
   LPB:    4  -0.518208921189826E+00   0.474272166408924E-01   0.206460E-01   0.341694E+00   0.214404E+03   0.101034E-14
   LPB:    5  -0.518154072901377E+00   0.360840163694781E-01   0.254565E-01   0.496085E+00   0.115969E+03   0.946961E-15
   LPB:    6  -0.518090028970677E+00   0.173987018714002E-01   0.367911E-01   0.807927E+00   0.915219E+02   0.812316E-15
   LPB:    7  -0.518019344703161E+00   0.104697719941846E-01   0.422835E-01   0.960320E+00   0.115882E+03   0.414553E-15
  Finished solving LPB equations
  A_corr:   -0.442543625300735     
 End minimization
 Ecorr=   1452.25883109035     
 A_corr= -0.442543625300735     
 Ecorr_band=  -1452.70137471565     
 End Solvation calculations
RMM:  21    -0.134810745201E+03   -0.13588E-02   -0.84284E-04  4050   0.597E-02    0.111E-01
 Begin Solvation calculations
  rms_SCF =   0.163195110943412      tol =   1.631951109434116E-002
 Begin minimization
 Creating dielectric and ionic cavities
  area:      143.991167587838     
  volume:    668.347445910437     
  Acav:     7.559536298361490E-002
  Solving linear dielectric/ionic screening model
        iter                  A_solv                     rms
   LPB:       -0.541792212405685E+00   0.131527095774686E+01
   LPB:    0  -0.541420104209801E+00   0.122355906942999E+01  -0.472312E-02   0.000000E+00   0.333612E+02  -0.157569E+00
   LPB:    1  -0.528826655625108E+00   0.258290984509953E+00   0.144273E-01   0.000000E+00   0.761296E+02   0.584088E-17
   LPB:    2  -0.527513357671915E+00   0.125569119846322E+00   0.134703E-01   0.111693E+00   0.259281E+03  -0.257566E-15
   LPB:    3  -0.527231892097272E+00   0.527436171659208E-01   0.166798E-01   0.173081E+00   0.129839E+03  -0.942306E-16
   LPB:    4  -0.527130181813552E+00   0.477160797930268E-01   0.220270E-01   0.273637E+00   0.169817E+03  -0.722495E-16
   LPB:    5  -0.527066657873918E+00   0.346356261816640E-01   0.267132E-01   0.514993E+00   0.113961E+03  -0.866526E-16
   LPB:    6  -0.527004216999921E+00   0.158778265400586E-01   0.347640E-01   0.755315E+00   0.949294E+02  -0.855842E-16
  Finished solving LPB equations
  A_corr:   -0.451408854016306     
 End minimization
 Ecorr=   1449.32723504706     
 A_corr= -0.451408854016306     
 Ecorr_band=  -1449.77864390108     
 End Solvation calculations
RMM:  22    -0.134812220437E+03   -0.14752E-02   -0.90861E-04  4060   0.648E-02    0.847E-02
 Begin Solvation calculations
  rms_SCF =   0.131451645639021      tol =   1.314516456390207E-002
 Begin minimization
 Creating dielectric and ionic cavities
  area:      144.225984890641     
  volume:    668.658447474758     
  Acav:     7.571864206758636E-002
  Solving linear dielectric/ionic screening model
        iter                  A_solv                     rms
   LPB:       -0.566143566795175E+00   0.197690390037918E+01
   LPB:    0  -0.565274080526852E+00   0.185285186741827E+01  -0.722138E-02   0.000000E+00   0.333466E+02  -0.240809E+00
   LPB:    1  -0.541412509685748E+00   0.384991874596158E+00   0.137847E-01   0.000000E+00   0.698994E+02  -0.974751E-17
   LPB:    2  -0.538880819681158E+00   0.166839711585749E+00   0.128346E-01   0.113953E+00   0.266605E+03   0.233637E-14
   LPB:    3  -0.538340033503513E+00   0.627068886136953E-01   0.169542E-01   0.161704E+00   0.139311E+03   0.222714E-14
   LPB:    4  -0.538127003359975E+00   0.649335210998476E-01   0.251972E-01   0.265058E+00   0.151461E+03   0.178590E-14
   LPB:    5  -0.537992998988667E+00   0.502846225462848E-01   0.271678E-01   0.583412E+00   0.113873E+03   0.148969E-14
   LPB:    6  -0.537879031011682E+00   0.224991496637801E-01   0.313436E-01   0.737172E+00   0.104198E+03   0.770370E-15
   LPB:    7  -0.537788452128192E+00   0.118943269224179E-01   0.357106E-01   0.697583E+00   0.222786E+03  -0.179173E-15
  Finished solving LPB equations
  A_corr:   -0.462069810060606     
 End minimization
 Ecorr=   1445.65320162411     
 A_corr= -0.462069810060606     
 Ecorr_band=  -1446.11527143417     
 End Solvation calculations
RMM:  23    -0.134813531405E+03   -0.13110E-02   -0.10634E-03  4047   0.596E-02    0.548E-02
 Begin Solvation calculations
  rms_SCF =   9.565433515568589E-002 tol =   9.565433515568589E-003
 Begin minimization
 Creating dielectric and ionic cavities
  area:      144.276199071716     
  volume:    668.748468743072     
  Acav:     7.574500451265108E-002
  Solving linear dielectric/ionic screening model
        iter                  A_solv                     rms
   LPB:       -0.544610734750001E+00   0.819707210105451E+00
   LPB:    0  -0.544484051421345E+00   0.778565932060569E+00  -0.275662E-02   0.000000E+00   0.333424E+02  -0.919122E-01
   LPB:    1  -0.541235836027917E+00   0.153787125760019E+00   0.126370E-01   0.000000E+00   0.647103E+02  -0.481349E-17
   LPB:    2  -0.540869193099138E+00   0.515809846225609E-01   0.123524E-01   0.115475E+00   0.262061E+03  -0.139222E-14
   LPB:    3  -0.540792475434621E+00   0.205446151174456E-01   0.185550E-01   0.139297E+00   0.164656E+03  -0.159307E-14
   LPB:    4  -0.540762092613032E+00   0.262177645048696E-01   0.288390E-01   0.254809E+00   0.123259E+03  -0.159600E-14
   LPB:    5  -0.540724067304025E+00   0.315260236562557E-01   0.403763E-01   0.893918E+00   0.105047E+03  -0.163797E-14
   LPB:    6  -0.540666346028189E+00   0.173085990113146E-01   0.400565E-01   0.153009E+01   0.599697E+02  -0.163796E-14
   LPB:    7  -0.540625257448748E+00   0.663711643339611E-02   0.301847E-01   0.944651E+00   0.137213E+03  -0.228615E-14
  Finished solving LPB equations
  A_corr:   -0.464880252936097     
 End minimization
 Ecorr=   1443.90439927063     
 A_corr= -0.464880252936097     
 Ecorr_band=  -1444.36927952357     
 End Solvation calculations
RMM:  24    -0.134813702990E+03   -0.17158E-03   -0.19114E-04  3828   0.371E-02    0.526E-02
 Begin Solvation calculations
  rms_SCF =   9.565433515568589E-002 tol =   9.565433515568589E-003
 Begin minimization
 Creating dielectric and ionic cavities
  area:      144.306136433470     
  volume:    668.827660995434     
  Acav:     7.576072162757201E-002
  Solving linear dielectric/ionic screening model
        iter                  A_solv                     rms
   LPB:       -0.547275371601294E+00   0.919980678810099E+00
   LPB:    0  -0.547127313052627E+00   0.880917560968112E+00  -0.298028E-02   0.000000E+00   0.333387E+02  -0.993587E-01
   LPB:    1  -0.543534031570354E+00   0.160643178084749E+00   0.118327E-01   0.000000E+00   0.643611E+02   0.177898E-17
   LPB:    2  -0.543122761753019E+00   0.447956558230442E-01   0.121803E-01   0.111189E+00   0.257703E+03  -0.155870E-15
   LPB:    3  -0.543058683961038E+00   0.152478733317340E-01   0.177816E-01   0.106726E+00   0.187047E+03  -0.155762E-15
   LPB:    4  -0.543045203722885E+00   0.138498834960322E-01   0.223912E-01   0.167064E+00   0.153491E+03  -0.132298E-15
   LPB:    5  -0.543038468986324E+00   0.110847816044879E-01   0.264744E-01   0.422545E+00   0.136077E+03   0.130827E-18
   LPB:    6  -0.543032195492312E+00   0.596878793698232E-02   0.336556E-01   0.732754E+00   0.103129E+03   0.599714E-16
  Finished solving LPB equations
  A_corr:   -0.467271473864740     
 End minimization
 Ecorr=   1443.06439988532     
 A_corr= -0.467271473864740     
 Ecorr_band=  -1443.53167135918     
 End Solvation calculations
RMM:  25    -0.134813777854E+03   -0.74864E-04   -0.21306E-04  3968   0.274E-02    0.330E-02
 Begin Solvation calculations
  rms_SCF =   4.838353568520464E-002 tol =   4.838353568520464E-003
 Begin minimization
 Creating dielectric and ionic cavities
  area:      144.288837232598     
  volume:    668.848539296097     
  Acav:     7.575163954711370E-002
  Solving linear dielectric/ionic screening model
        iter                  A_solv                     rms
   LPB:       -0.544882269108544E+00   0.590084111150111E+00
   LPB:    0  -0.544840816311336E+00   0.575149710843434E+00  -0.157697E-02   0.000000E+00   0.333377E+02  -0.525726E-01
   LPB:    1  -0.543478888521099E+00   0.872524609761969E-01   0.107361E-01   0.000000E+00   0.703163E+02  -0.810253E-18
   LPB:    2  -0.543351715248871E+00   0.231435439649300E-01   0.118416E-01   0.846601E-01   0.256718E+03  -0.571213E-15
   LPB:    3  -0.543335126036716E+00   0.620563988153605E-02   0.189041E-01   0.817116E-01   0.147115E+03  -0.620034E-15
   LPB:    4  -0.543329939135811E+00   0.692070159815251E-02   0.318837E-01   0.185383E+00   0.119886E+03  -0.639578E-15
   LPB:    5  -0.543324697461498E+00   0.107315388885506E-01   0.419245E-01   0.768534E+00   0.115580E+03  -0.698908E-15
   LPB:    6  -0.543319460941905E+00   0.933904654863905E-02   0.319309E-01   0.131169E+01   0.593464E+02  -0.823146E-15
   LPB:    7  -0.543314236586348E+00   0.381219461076809E-02   0.327114E-01   0.973871E+00   0.128485E+03  -0.898572E-15
  Finished solving LPB equations
  A_corr:   -0.467562597039234     
 End minimization
 Ecorr=   1442.46110721149     
 A_corr= -0.467562597039234     
 Ecorr_band=  -1442.92866980853     
 End Solvation calculations
RMM:  26    -0.134813899842E+03   -0.12199E-03   -0.62178E-05  3076   0.251E-02    0.134E-02
 Begin Solvation calculations
  rms_SCF =   2.367554434333849E-002 tol =   2.367554434333849E-003
 Begin minimization
 Creating dielectric and ionic cavities
  area:      144.281953617825     
  volume:    668.836245556672     
  Acav:     7.574802564935815E-002
  Solving linear dielectric/ionic screening model
        iter                  A_solv                     rms
   LPB:       -0.544335182964322E+00   0.416018134426866E+00
   LPB:    0  -0.544316160444233E+00   0.404915706912742E+00  -0.106826E-02   0.000000E+00   0.333383E+02  -0.356140E-01
   LPB:    1  -0.543670510661761E+00   0.571183727152062E-01   0.103985E-01   0.000000E+00   0.713286E+02   0.802603E-18
   LPB:    2  -0.543612605536924E+00   0.142505561461167E-01   0.119356E-01   0.781351E-01   0.257177E+03  -0.831141E-16
   LPB:    3  -0.543605739416633E+00   0.415598408690040E-02   0.186601E-01   0.758445E-01   0.165422E+03  -0.803764E-16
   LPB:    4  -0.543604495853902E+00   0.344661524163676E-02   0.237727E-01   0.142165E+00   0.147498E+03  -0.817341E-16
   LPB:    5  -0.543603635943168E+00   0.495402132194994E-02   0.361184E-01   0.455130E+00   0.178132E+03  -0.933006E-16
   LPB:    6  -0.543602193724638E+00   0.430410711890786E-02   0.435025E-01   0.139249E+01   0.639280E+02  -0.982444E-16
   LPB:    7  -0.543599814383701E+00   0.203756287579364E-02   0.449029E-01   0.159833E+01   0.713964E+02  -0.117300E-15
  Finished solving LPB equations
  A_corr:   -0.467851788734343     
 End minimization
 Ecorr=   1442.00793467345     
 A_corr= -0.467851788734343     
 Ecorr_band=  -1442.47578646218     
 End Solvation calculations
RMM:  27    -0.134813996451E+03   -0.96609E-04   -0.39857E-05  2598   0.177E-02    0.199E-02
 Begin Solvation calculations
  rms_SCF =   1.952376966140801E-002 tol =   1.952376966140801E-003
 Begin minimization
 Creating dielectric and ionic cavities
  area:      144.269605271963     
  volume:    668.810277064673     
  Acav:     7.574154276778056E-002
  Solving linear dielectric/ionic screening model
        iter                  A_solv                     rms
   LPB:       -0.542984947575848E+00   0.737883844686397E-01
   LPB:    0  -0.542984606784237E+00   0.723739715421000E-01   0.142982E-03   0.000000E+00   0.333395E+02   0.476693E-02
   LPB:    1  -0.542915754935233E+00   0.133929998338828E-01   0.153720E-01   0.000000E+00   0.110426E+03   0.255604E-18
   LPB:    2  -0.542908649633074E+00   0.106816379154807E-01   0.160209E-01   0.990176E-01   0.275650E+03   0.166894E-16
   LPB:    3  -0.542906633677325E+00   0.638587574191598E-02   0.176822E-01   0.257068E+00   0.100393E+03   0.245149E-16
   LPB:    4  -0.542905651696920E+00   0.338216897478592E-02   0.214918E-01   0.400761E+00   0.360182E+03   0.194978E-16
   LPB:    5  -0.542905263672203E+00   0.294832532091715E-02   0.243185E-01   0.349215E+00   0.144570E+03   0.274476E-16
   LPB:    6  -0.542904997332761E+00   0.174642284970023E-02   0.270280E-01   0.617588E+00   0.165318E+03   0.307067E-16
  Finished solving LPB equations
  A_corr:   -0.467163454564980     
 End minimization
 Ecorr=   1442.11038282938     
 A_corr= -0.467163454564980     
 Ecorr_band=  -1442.57754628395     
 End Solvation calculations
RMM:  28    -0.134814071038E+03   -0.74587E-04   -0.18743E-05  2437   0.165E-02    0.660E-03
 Begin Solvation calculations
  rms_SCF =   6.462780378995096E-003 tol =   6.462780378995096E-004
 Begin minimization
 Creating dielectric and ionic cavities
  area:      144.265348244184     
  volume:    668.775792084982     
  Acav:     7.573930782819660E-002
  Solving linear dielectric/ionic screening model
        iter                  A_solv                     rms
   LPB:       -0.542456300159187E+00   0.103579411310125E+00
   LPB:    0  -0.542455757534718E+00   0.102592025037077E+00   0.180416E-03   0.000000E+00   0.333411E+02   0.601527E-02
   LPB:    1  -0.542367081681243E+00   0.234183410779104E-01   0.144934E-01   0.000000E+00   0.801343E+02  -0.150752E-19
   LPB:    2  -0.542357722883450E+00   0.115176567576338E-01   0.129963E-01   0.117696E+00   0.269591E+03   0.423393E-16
   LPB:    3  -0.542355219762564E+00   0.350788409473695E-02   0.175699E-01   0.197840E+00   0.132913E+03   0.461075E-16
   LPB:    4  -0.542354139128545E+00   0.309052231898779E-02   0.277358E-01   0.273480E+00   0.413509E+03   0.646109E-16
   LPB:    5  -0.542353517092053E+00   0.333081033513616E-02   0.305113E-01   0.523260E+00   0.128999E+03   0.696164E-16
   LPB:    6  -0.542353112784212E+00   0.255370613203700E-02   0.274259E-01   0.723095E+00   0.143846E+03   0.382290E-16
   LPB:    7  -0.542352817882394E+00   0.115688156008503E-02   0.287576E-01   0.695623E+00   0.239336E+03   0.281384E-16
   LPB:    8  -0.542352599502714E+00   0.616269379585805E-03   0.353695E-01   0.602086E+00   0.594451E+03   0.327211E-16
  Finished solving LPB equations
  A_corr:   -0.466613291674517     
 End minimization
 Ecorr=   1442.13382181757     
 A_corr= -0.466613291674517     
 Ecorr_band=  -1442.60043510925     
 End Solvation calculations
RMM:  29    -0.134814137319E+03   -0.66281E-04   -0.17873E-05  2453   0.104E-02    0.149E-02
 Begin Solvation calculations
  rms_SCF =   6.462780378995096E-003 tol =   6.462780378995096E-004
 Begin minimization
 Creating dielectric and ionic cavities
  area:      144.276874419805     
  volume:    668.764071208827     
  Acav:     7.574535907039764E-002
  Solving linear dielectric/ionic screening model
        iter                  A_solv                     rms
   LPB:       -0.543099548483053E+00   0.219431136848409E+00
   LPB:    0  -0.543090993621312E+00   0.208700148744715E+00  -0.716354E-03   0.000000E+00   0.333417E+02  -0.238844E-01
   LPB:    1  -0.542920774721011E+00   0.307818493206121E-01   0.105232E-01   0.000000E+00   0.676630E+02   0.131635E-17
   LPB:    2  -0.542903538853746E+00   0.878171725265984E-02   0.124917E-01   0.853003E-01   0.217342E+03  -0.400846E-15
   LPB:    3  -0.542901106923208E+00   0.338013739515283E-02   0.182809E-01   0.964141E-01   0.155361E+03  -0.433226E-15
   LPB:    4  -0.542900505971710E+00   0.302029071940040E-02   0.247575E-01   0.182465E+00   0.103338E+03  -0.430493E-15
   LPB:    5  -0.542900222089582E+00   0.192841512977658E-02   0.236249E-01   0.495035E+00   0.194716E+03  -0.422759E-15
   LPB:    6  -0.542900050193292E+00   0.652807594576657E-03   0.271272E-01   0.527344E+00   0.134423E+03  -0.419422E-15
   LPB:    7  -0.542899938196040E+00   0.355852034566115E-03   0.349545E-01   0.505642E+00   0.356176E+03  -0.434105E-15
  Finished solving LPB equations
  A_corr:   -0.467154579125643     
 End minimization
 Ecorr=   1441.83510975396     
 A_corr= -0.467154579125643     
 Ecorr_band=  -1442.30226433309     
 End Solvation calculations
RMM:  30    -0.134814147842E+03   -0.10523E-04   -0.65338E-06  2358   0.100E-02    0.793E-03
 Begin Solvation calculations
  rms_SCF =   6.462780378995096E-003 tol =   6.462780378995096E-004
 Begin minimization
 Creating dielectric and ionic cavities
  area:      144.282957548307     
  volume:    668.743103132316     
  Acav:     7.574855271286099E-002
  Solving linear dielectric/ionic screening model
        iter                  A_solv                     rms
   LPB:       -0.543037981119646E+00   0.344736855248549E-01
   LPB:    0  -0.543037234675127E+00   0.263657624235867E-01  -0.211599E-03   0.000000E+00   0.333427E+02  -0.705527E-02
   LPB:    1  -0.543029724799190E+00   0.103861943783931E-01   0.108930E-01   0.000000E+00   0.128649E+03   0.180273E-18
   LPB:    2  -0.543029037139900E+00   0.211329224482785E-02   0.131869E-01   0.756391E-01   0.831725E+02  -0.203148E-15
   LPB:    3  -0.543028815145703E+00   0.136731016512012E-02   0.217904E-01   0.195364E+00   0.307053E+03  -0.221209E-15
   LPB:    4  -0.543028709578550E+00   0.118732465562807E-02   0.263908E-01   0.392646E+00   0.139273E+03  -0.228930E-15
   LPB:    5  -0.543028640748602E+00   0.102246069704247E-02   0.268373E-01   0.641153E+00   0.409731E+03  -0.232001E-15
   LPB:    6  -0.543028565603041E+00   0.674937030077413E-03   0.394836E-01   0.742076E+00   0.980391E+02  -0.232997E-15
   LPB:    7  -0.543028474774638E+00   0.487020638293043E-03   0.492762E-01   0.968497E+00   0.187221E+03  -0.240235E-15
  Finished solving LPB equations
  A_corr:   -0.467279922061777     
 End minimization
 Ecorr=   1441.68537532880     
 A_corr= -0.467279922061777     
 Ecorr_band=  -1442.15265525087     
 End Solvation calculations
RMM:  31    -0.134814162028E+03   -0.14186E-04   -0.43266E-06  2355   0.603E-03    0.646E-03
 Begin Solvation calculations
  rms_SCF =   6.116316235616485E-003 tol =   6.116316235616485E-004
 Begin minimization
 Creating dielectric and ionic cavities
  area:      144.285241101148     
  volume:    668.725024155497     
  Acav:     7.574975157810246E-002
  Solving linear dielectric/ionic screening model
        iter                  A_solv                     rms
   LPB:       -0.542981591987209E+00   0.567642600819309E-01
   LPB:    0  -0.542981591969243E+00   0.567687638467692E-01   0.103811E-05   0.000000E+00   0.333435E+02   0.346142E-04
   LPB:    1  -0.542957801400286E+00   0.116667795428409E-01   0.141484E-01   0.000000E+00   0.732098E+02   0.221958E-21
   LPB:    2  -0.542955826620956E+00   0.542200434287226E-02   0.125181E-01   0.938177E-01   0.256162E+03  -0.145916E-16
   LPB:    3  -0.542955266224276E+00   0.136181352775087E-02   0.177014E-01   0.200682E+00   0.140073E+03  -0.302454E-16
   LPB:    4  -0.542955101272375E+00   0.780583210855537E-03   0.252602E-01   0.206268E+00   0.390202E+03  -0.356208E-16
   LPB:    5  -0.542955020716950E+00   0.782461477461904E-03   0.307609E-01   0.401029E+00   0.287137E+03  -0.357814E-16
   LPB:    6  -0.542954959130453E+00   0.105877491448325E-02   0.352566E-01   0.667036E+00   0.145565E+03  -0.317731E-16
   LPB:    7  -0.542954905534042E+00   0.934983816562564E-03   0.302472E-01   0.101439E+01   0.192428E+03  -0.249281E-16
   LPB:    8  -0.542954848322563E+00   0.449401715198032E-03   0.363182E-01   0.889013E+00   0.162089E+03  -0.349093E-17
  Finished solving LPB equations
  A_corr:   -0.467205096744461     
 End minimization
 Ecorr=   1441.64278965195     
 A_corr= -0.467205096744461     
 Ecorr_band=  -1442.10999474870     
 End Solvation calculations
RMM:  32    -0.134814175039E+03   -0.13011E-04   -0.44368E-06  2362   0.562E-03    0.179E-03
 Begin Solvation calculations
  rms_SCF =   2.385073348886672E-003 tol =   2.385073348886672E-004
 Begin minimization
 Creating dielectric and ionic cavities
  area:      144.292177174398     
  volume:    668.720587628036     
  Acav:     7.575339301655896E-002
  Solving linear dielectric/ionic screening model
        iter                  A_solv                     rms
   LPB:       -0.543299266034023E+00   0.806541532463359E-01
   LPB:    0  -0.543296249195586E+00   0.690133902497921E-01  -0.425387E-03   0.000000E+00   0.333437E+02  -0.141840E-01
   LPB:    1  -0.543278001836518E+00   0.915810306339735E-02   0.972758E-02   0.000000E+00   0.697636E+02  -0.606853E-19
   LPB:    2  -0.543276467067231E+00   0.308480974809905E-02   0.133988E-01   0.610635E-01   0.145352E+03   0.912589E-16
   LPB:    3  -0.543276241683391E+00   0.155883494231766E-02   0.168306E-01   0.116908E+00   0.156695E+03   0.102532E-15
   LPB:    4  -0.543276173331352E+00   0.955906928018015E-03   0.235933E-01   0.216342E+00   0.756990E+02   0.106233E-15
   LPB:    5  -0.543276123551271E+00   0.473040045095838E-03   0.282909E-01   0.607359E+00   0.242469E+03   0.104153E-15
   LPB:    6  -0.543276082503322E+00   0.225030546125778E-03   0.394072E-01   0.591979E+00   0.108067E+03   0.104103E-15
  Finished solving LPB equations
  A_corr:   -0.467522689486763     
 End minimization
 Ecorr=   1441.46847190216     
 A_corr= -0.467522689486763     
 Ecorr_band=  -1441.93599459165     
 End Solvation calculations
RMM:  33    -0.134814178580E+03   -0.35410E-05   -0.21808E-06  2323   0.490E-03
 Begin Solvation calculations
  rms_SCF =   2.385073348886672E-003 tol =   2.385073348886672E-004
 Begin minimization
 Creating dielectric and ionic cavities
  area:      144.293580219871     
  volume:    668.720270592197     
  Acav:     7.575412961543229E-002
  Solving linear dielectric/ionic screening model
        iter                  A_solv                     rms
   LPB:       -0.543348262924563E+00   0.256836006523402E-01
   LPB:    0  -0.543347877209580E+00   0.202036841890642E-01  -0.152104E-03   0.000000E+00   0.333437E+02  -0.507172E-02
   LPB:    1  -0.543344347562077E+00   0.484423660558866E-02   0.127101E-01   0.000000E+00   0.809761E+02   0.178113E-18
   LPB:    2  -0.543344079633167E+00   0.107455953041350E-02   0.144019E-01   0.669914E-01   0.994941E+02   0.123212E-15
   LPB:    3  -0.543344004253306E+00   0.497731252761119E-03   0.244223E-01   0.165909E+00   0.269101E+03   0.154597E-15
   LPB:    4  -0.543343971818523E+00   0.836160513809412E-03   0.295619E-01   0.355475E+00   0.189521E+03   0.165649E-15
   LPB:    5  -0.543343950359258E+00   0.958695682417347E-03   0.250410E-01   0.781059E+00   0.198944E+03   0.171110E-15
   LPB:    6  -0.543343923841022E+00   0.578525848744935E-03   0.307177E-01   0.100738E+01   0.114074E+03   0.174966E-15
   LPB:    7  -0.543343883145589E+00   0.333644565787208E-03   0.467321E-01   0.100873E+01   0.118223E+03   0.182509E-15
   LPB:    8  -0.543343826094479E+00   0.344893180145096E-03   0.513770E-01   0.127516E+01   0.100333E+03   0.193601E-15
   LPB:    9  -0.543343762595949E+00   0.363725101280044E-03   0.457075E-01   0.125107E+01   0.989396E+02   0.208513E-15
   LPB:   10  -0.543343700965366E+00   0.393316288822101E-03   0.421114E-01   0.105347E+01   0.169412E+03   0.224917E-15
   LPB:   11  -0.543343642211646E+00   0.315378179221328E-03   0.418354E-01   0.959610E+00   0.449590E+03   0.239926E-15
   LPB:   12  -0.543343585041682E+00   0.351493646511261E-03   0.431339E-01   0.943751E+00   0.613702E+03   0.255905E-15
   LPB:   13  -0.543343528307348E+00   0.257629639919852E-03   0.449286E-01   0.952739E+00   0.109032E+04   0.271018E-15
   LPB:   14  -0.543343468993657E+00   0.266401445195736E-03   0.458667E-01   0.102408E+01   0.112926E+04   0.284327E-15
   LPB:   15  -0.543343416903762E+00   0.232729076867244E-03   0.422020E-01   0.954471E+00   0.482881E+03   0.298834E-15
  Finished solving LPB equations
  A_corr:   -0.467589287288329     
 End minimization
 Ecorr=   1441.32587027119     
 A_corr= -0.467589287288329     
 Ecorr_band=  -1441.79345955848     
 End Solvation calculations
   1 F= -.13481418E+03 E0= -.13480942E+03  d E =-.134814E+03
quench:  g(F)=  0.000E+00 g(S)=  0.000E+00 dE (1.order)= 0.000E+00
 bond charge predicted
       N       E                     dE             d eps       ncg     rms          rms(c)
 Begin Solvation calculations
  rms_SCF =   2.385073348886672E-003 tol =   2.385073348886672E-004
 Begin minimization
 Creating dielectric and ionic cavities
  area:      144.333082466265     
  volume:    668.723452530247     
  Acav:     7.577486829478888E-002
  Solving linear dielectric/ionic screening model
        iter                  A_solv                     rms
   LPB:       -0.544117264518950E+00   0.233311488511910E-02
   LPB:    0  -0.544117264517425E+00   0.233360398333156E-02   0.302413E-06   0.000000E+00   0.333436E+02   0.100835E-04
   LPB:    1  -0.543649848408901E+00   0.856495525508934E-03   0.156182E-01   0.000000E+00   0.700467E+06  -0.575540E-21
   LPB:    2  -0.543606557766874E+00   0.684702468935489E-03   0.264345E-01   0.547207E-01   0.146837E+06   0.686759E-20
   LPB:    3  -0.543593180372785E+00   0.101105923060097E-02   0.324029E-01   0.252095E+00   0.469875E+05  -0.954739E-18
   LPB:    4  -0.543587542295384E+00   0.254229486405345E-02   0.353171E-01   0.386686E+00   0.992648E+04  -0.101393E-19
   LPB:    5  -0.543584827763957E+00   0.586870611237952E-02   0.349672E-01   0.486282E+00   0.731720E+03  -0.767331E-18
   LPB:    6  -0.543583574224569E+00   0.701826377724256E-02   0.239544E-01   0.674093E+00   0.188484E+03   0.902336E-17
   LPB:    7  -0.543582596653486E+00   0.339531615317593E-02   0.230505E-01   0.810430E+00   0.276000E+03   0.219227E-16
   LPB:    8  -0.543581956022178E+00   0.409434907661799E-02   0.290786E-01   0.519477E+00   0.313088E+03   0.928320E-17
   LPB:    9  -0.543581568949426E+00   0.244032261937558E-02   0.226684E-01   0.775064E+00   0.173083E+03   0.378560E-18
   LPB:   10  -0.543581251947307E+00   0.722819867246320E-03   0.309092E-01   0.600624E+00   0.572799E+03   0.350303E-16
   LPB:   11  -0.543581034398284E+00   0.340360845561531E-03   0.396256E-01   0.535311E+00   0.270720E+04   0.686903E-16
   LPB:   12  -0.543580895032890E+00   0.443773004719787E-03   0.390689E-01   0.649745E+00   0.289887E+04   0.958651E-16
   LPB:   13  -0.543580804347186E+00   0.488335028648706E-03   0.356332E-01   0.713444E+00   0.143849E+04   0.111969E-15
   LPB:   14  -0.543580741694081E+00   0.332743166224284E-03   0.332931E-01   0.739442E+00   0.128960E+04   0.122379E-15
   LPB:   15  -0.543580692464900E+00   0.183734862834211E-03   0.383410E-01   0.682293E+00   0.221346E+04   0.129770E-15
  Finished solving LPB equations
  A_corr:   -0.467805824170111     
 End minimization
 Ecorr=   1441.32382237430     
 A_corr= -0.467805824170111     
 Ecorr_band=  -1441.79162819847     
 End Solvation calculations
DAV:   1    -0.134816599438E+03   -0.24244E-02   -0.37657E-02  4203   0.334E-01    0.586E-02
 Begin Solvation calculations
  rms_SCF =   2.385073348886672E-003 tol =   2.385073348886672E-004
 Begin minimization
 Creating dielectric and ionic cavities
  area:      144.307389915022     
  volume:    668.691859622144     
  Acav:     7.576137970538642E-002
  Solving linear dielectric/ionic screening model
        iter                  A_solv                     rms
   LPB:       -0.544372436000977E+00   0.988826294672391E-01
   LPB:    0  -0.544366046038360E+00   0.861454568185664E-01  -0.619082E-03   0.000000E+00   0.333451E+02  -0.206433E-01
   LPB:    1  -0.544322712716904E+00   0.217516478863399E-01   0.115006E-01   0.000000E+00   0.841346E+02   0.115407E-18
   LPB:    2  -0.544315738222837E+00   0.409814642359858E-02   0.136243E-01   0.135862E+00   0.314874E+03  -0.112351E-15
   LPB:    3  -0.544313831345715E+00   0.376306615957476E-02   0.248705E-01   0.149776E+00   0.556237E+03  -0.134400E-15
   LPB:    4  -0.544313231566998E+00   0.328416429099298E-02   0.219918E-01   0.355707E+00   0.167261E+03  -0.144656E-15
   LPB:    5  -0.544312893873818E+00   0.155147341731867E-02   0.242083E-01   0.511478E+00   0.230216E+03  -0.136391E-15
   LPB:    6  -0.544312703029394E+00   0.703120968897425E-03   0.313266E-01   0.436725E+00   0.313015E+03  -0.105134E-15
   LPB:    7  -0.544312595593136E+00   0.389997419862200E-03   0.330083E-01   0.534271E+00   0.799296E+03  -0.657639E-16
   LPB:    8  -0.544312528868698E+00   0.238505429919670E-03   0.348404E-01   0.588401E+00   0.819310E+03  -0.419193E-16
  Finished solving LPB equations
  A_corr:   -0.468551149163311     
 End minimization
 Ecorr=   1441.30458303458     
 A_corr= -0.468551149163311     
 Ecorr_band=  -1441.77313418375     
 End Solvation calculations
RMM:   2    -0.134816805255E+03   -0.20582E-03   -0.24564E-03  5992   0.969E-02    0.466E-02
 Begin Solvation calculations
  rms_SCF =   2.385073348886672E-003 tol =   2.385073348886672E-004
 Begin minimization
 Creating dielectric and ionic cavities
  area:      144.305645693770     
  volume:    668.693748552963     
  Acav:     7.576046398922942E-002
  Solving linear dielectric/ionic screening model
        iter                  A_solv                     rms
   LPB:       -0.544596172171347E+00   0.295679848713824E-01
   LPB:    0  -0.544595528222689E+00   0.248912846269695E-01  -0.196528E-03   0.000000E+00   0.333450E+02  -0.655324E-02
   LPB:    1  -0.544591639735018E+00   0.712190451437909E-02   0.109822E-01   0.000000E+00   0.962401E+02  -0.111358E-18
   LPB:    2  -0.544590752950795E+00   0.162158434030810E-02   0.155771E-01   0.160783E+00   0.204535E+03  -0.330761E-16
   LPB:    3  -0.544590589214633E+00   0.134124081362653E-02   0.248879E-01   0.115565E+00   0.244668E+03  -0.391455E-16
   LPB:    4  -0.544590533630606E+00   0.928229871641667E-03   0.224858E-01   0.375738E+00   0.134929E+03  -0.416377E-16
   LPB:    5  -0.544590496446605E+00   0.580718247771135E-03   0.274008E-01   0.548972E+00   0.327174E+03  -0.429444E-16
   LPB:    6  -0.544590463444786E+00   0.300508735232076E-03   0.381728E-01   0.637077E+00   0.187519E+03  -0.545518E-16
   LPB:    7  -0.544590437979984E+00   0.209994688403692E-03   0.385499E-01   0.764070E+00   0.603748E+03  -0.750587E-16
  Finished solving LPB equations
  A_corr:   -0.468829973990754     
 End minimization
 Ecorr=   1441.26275589019     
 A_corr= -0.468829973990754     
 Ecorr_band=  -1441.73158586418     
 End Solvation calculations
RMM:   3    -0.134816753658E+03    0.51596E-04   -0.14651E-04  3670   0.296E-02    0.284E-02
 Begin Solvation calculations
  rms_SCF =   2.385073348886672E-003 tol =   2.385073348886672E-004
 Begin minimization
 Creating dielectric and ionic cavities
  area:      144.304962870317     
  volume:    668.688704377983     
  Acav:     7.576010550691636E-002
  Solving linear dielectric/ionic screening model
        iter                  A_solv                     rms
   LPB:       -0.545105692467691E+00   0.740612238346828E-01
   LPB:    0  -0.545103683189209E+00   0.686241993811921E-01  -0.347151E-03   0.000000E+00   0.333452E+02  -0.115758E-01
   LPB:    1  -0.545082654982958E+00   0.122792499084529E-01   0.104041E-01   0.000000E+00   0.801405E+02  -0.499824E-18
   LPB:    2  -0.545079807268376E+00   0.192634812108633E-02   0.135644E-01   0.103872E+00   0.298141E+03  -0.350097E-16
   LPB:    3  -0.545079268096146E+00   0.176733803792542E-02   0.244853E-01   0.104888E+00   0.626574E+03  -0.376325E-16
   LPB:    4  -0.545079115955553E+00   0.148334885632573E-02   0.225831E-01   0.305942E+00   0.150012E+03  -0.452846E-16
   LPB:    5  -0.545079036682172E+00   0.925195376516485E-03   0.240954E-01   0.488352E+00   0.272993E+03  -0.471984E-16
   LPB:    6  -0.545078987790577E+00   0.398395778524150E-03   0.300314E-01   0.494840E+00   0.165330E+03  -0.538300E-16
   LPB:    7  -0.545078956573071E+00   0.232949921359170E-03   0.335045E-01   0.572316E+00   0.521179E+03  -0.555070E-16
  Finished solving LPB equations
  A_corr:   -0.469318851066155     
 End minimization
 Ecorr=   1441.21681691457     
 A_corr= -0.469318851066155     
 Ecorr_band=  -1441.68613576564     
 End Solvation calculations
RMM:   4    -0.134816761736E+03   -0.80780E-05   -0.66786E-05  3289   0.335E-02
 Begin Solvation calculations
  rms_SCF =   2.385073348886672E-003 tol =   2.385073348886672E-004
 Begin minimization
 Creating dielectric and ionic cavities
  area:      144.303953618457     
  volume:    668.687573406256     
  Acav:     7.575957564968974E-002
  Solving linear dielectric/ionic screening model
        iter                  A_solv                     rms
   LPB:       -0.545455166127635E+00   0.334289740988469E-01
   LPB:    0  -0.545454054851226E+00   0.256008946507420E-01  -0.258172E-03   0.000000E+00   0.333453E+02  -0.860881E-02
   LPB:    1  -0.545448062963615E+00   0.951122331975021E-02   0.129392E-01   0.000000E+00   0.946388E+02   0.116976E-18
   LPB:    2  -0.545447226446225E+00   0.181749753604823E-02   0.128603E-01   0.140465E+00   0.185261E+03  -0.926131E-17
   LPB:    3  -0.545446987360911E+00   0.140988214533401E-02   0.222130E-01   0.165471E+00   0.457545E+03  -0.111010E-16
   LPB:    4  -0.545446910190342E+00   0.123391532819964E-02   0.222978E-01   0.321547E+00   0.120484E+03  -0.898005E-17
   LPB:    5  -0.545446858185939E+00   0.733401331596756E-03   0.264397E-01   0.568320E+00   0.253959E+03  -0.546240E-17
   LPB:    6  -0.545446819311737E+00   0.299592591081489E-03   0.351784E-01   0.561826E+00   0.150835E+03  -0.177728E-16
   LPB:    7  -0.545446793099897E+00   0.186810099535162E-03   0.354407E-01   0.669282E+00   0.360657E+03  -0.369334E-16
  Finished solving LPB equations
  A_corr:   -0.469687217450207     
 End minimization
 Ecorr=   1441.15433571742     
 A_corr= -0.469687217450207     
 Ecorr_band=  -1441.62402293487     
 End Solvation calculations
   2 F= -.13481676E+03 E0= -.13481205E+03  d E =-.258316E-02
quench:  g(F)=  0.000E+00 g(S)=  0.000E+00 dE (1.order)= 0.000E+00
 bond charge predicted
       N       E                     dE             d eps       ncg     rms          rms(c)
 Begin Solvation calculations
  rms_SCF =   2.385073348886672E-003 tol =   2.385073348886672E-004
 Begin minimization
 Creating dielectric and ionic cavities
  area:      144.388724189581     
  volume:    668.685937577834     
  Acav:     7.580408019953007E-002
  Solving linear dielectric/ionic screening model
        iter                  A_solv                     rms
   LPB:       -0.547715510769826E+00   0.416482772851354E-02
   LPB:    0  -0.547715510769161E+00   0.416499385439583E-02  -0.199703E-06   0.000000E+00   0.333453E+02  -0.665917E-05
   LPB:    1  -0.546229608663819E+00   0.150824062160704E-02   0.155360E-01   0.000000E+00   0.709720E+06   0.765940E-22
   LPB:    2  -0.546099576950032E+00   0.141878381026008E-02   0.262371E-01   0.518182E-01   0.152426E+06  -0.236450E-17
   LPB:    3  -0.546059646688828E+00   0.213138771804825E-02   0.324081E-01   0.248608E+00   0.334118E+05   0.821645E-19
   LPB:    4  -0.546042803616797E+00   0.603352143079413E-02   0.352197E-01   0.388139E+00   0.793044E+04  -0.911533E-17
   LPB:    5  -0.546034967890339E+00   0.136548483826362E-01   0.329731E-01   0.496917E+00   0.450124E+03  -0.177608E-16
   LPB:    6  -0.546031276089901E+00   0.112052284722825E-01   0.202001E-01   0.769067E+00   0.181185E+03  -0.155612E-16
   LPB:    7  -0.546027952871457E+00   0.497385944477301E-02   0.264571E-01   0.687279E+00   0.422725E+03   0.151851E-16
   LPB:    8  -0.546025940146957E+00   0.662685158463554E-02   0.307215E-01   0.521584E+00   0.261175E+03   0.568014E-16
   LPB:    9  -0.546024734711592E+00   0.420867052922280E-02   0.235791E-01   0.780323E+00   0.202946E+03   0.908962E-16
   LPB:   10  -0.546023765475987E+00   0.124774008848211E-02   0.311734E-01   0.608176E+00   0.383726E+03   0.111689E-15
   LPB:   11  -0.546023100359732E+00   0.619460112467725E-03   0.397230E-01   0.538531E+00   0.349926E+04   0.126094E-15
   LPB:   12  -0.546022669575287E+00   0.697321588651085E-03   0.395226E-01   0.650967E+00   0.177659E+04   0.134485E-15
   LPB:   13  -0.546022385447516E+00   0.776154979143421E-03   0.371847E-01   0.701026E+00   0.134647E+04   0.137874E-15
   LPB:   14  -0.546022194173833E+00   0.589665262889319E-03   0.343250E-01   0.729282E+00   0.118373E+04   0.140894E-15
   LPB:   15  -0.546022046679867E+00   0.366278626196804E-03   0.379008E-01   0.698363E+00   0.172449E+04   0.142295E-15
   LPB:   16  -0.546021944472227E+00   0.274656839702578E-03   0.377722E-01   0.695320E+00   0.196521E+04   0.143500E-15
   LPB:   17  -0.546021872620103E+00   0.346643078824082E-03   0.406015E-01   0.654013E+00   0.228258E+04   0.144643E-15
   LPB:   18  -0.546021819638446E+00   0.355281897706068E-03   0.370464E-01   0.808132E+00   0.111058E+04   0.145982E-15
   LPB:   19  -0.546021777626883E+00   0.248960673817172E-03   0.366511E-01   0.801496E+00   0.159202E+04   0.147118E-15
   LPB:   20  -0.546021745036225E+00   0.144269576109685E-03   0.388993E-01   0.730920E+00   0.205689E+04   0.147613E-15
  Finished solving LPB equations
  A_corr:   -0.470217664836695     
 End minimization
 Ecorr=   1441.03677483022     
 A_corr= -0.470217664836695     
 Ecorr_band=  -1441.50699249506     
 End Solvation calculations
DAV:   1    -0.134819307074E+03   -0.25534E-02   -0.11494E-01  4176   0.627E-01    0.127E-01
 Begin Solvation calculations
  rms_SCF =   2.385073348886672E-003 tol =   2.385073348886672E-004
 Begin minimization
 Creating dielectric and ionic cavities
  area:      144.327208189397     
  volume:    668.635261322547     
  Acav:     7.577178429943356E-002
  Solving linear dielectric/ionic screening model
        iter                  A_solv                     rms
   LPB:       -0.547643166733565E+00   0.122593812179974E+00
   LPB:    0  -0.547621407649862E+00   0.875408267171798E-01  -0.114236E-02   0.000000E+00   0.333477E+02  -0.380950E-01
   LPB:    1  -0.547512911807476E+00   0.441173988762056E-01   0.137984E-01   0.000000E+00   0.132425E+03  -0.330148E-18
   LPB:    2  -0.547491509667946E+00   0.121245212197894E-01   0.132084E-01   0.206073E+00   0.205780E+03  -0.177570E-15
   LPB:    3  -0.547485446362252E+00   0.727292613331072E-02   0.247493E-01   0.151196E+00   0.229738E+03  -0.209161E-15
   LPB:    4  -0.547483470898125E+00   0.573697664354820E-02   0.233357E-01   0.345544E+00   0.183262E+03  -0.216126E-15
   LPB:    5  -0.547482463736801E+00   0.305850873258219E-02   0.224957E-01   0.528872E+00   0.240304E+03  -0.202589E-15
   LPB:    6  -0.547481857672593E+00   0.128746152140912E-02   0.312125E-01   0.433702E+00   0.219778E+03  -0.191419E-15
   LPB:    7  -0.547481533143804E+00   0.894287486765143E-03   0.348017E-01   0.480244E+00   0.681626E+03  -0.216211E-15
   LPB:    8  -0.547481350531967E+00   0.657451721206005E-03   0.345625E-01   0.566593E+00   0.380043E+03  -0.221419E-15
   LPB:    9  -0.547481240551336E+00   0.432748051897632E-03   0.347867E-01   0.598383E+00   0.767424E+03  -0.228999E-15
   LPB:   10  -0.547481171170040E+00   0.285417833138426E-03   0.358620E-01   0.611934E+00   0.740058E+03  -0.232750E-15
   LPB:   11  -0.547481125809143E+00   0.237976077129544E-03   0.361964E-01   0.647752E+00   0.937060E+03  -0.237473E-15
  Finished solving LPB equations
  A_corr:   -0.471709341509709     
 End minimization
 Ecorr=   1440.96097706154     
 A_corr= -0.471709341509709     
 Ecorr_band=  -1441.43268640305     
 End Solvation calculations
RMM:   2    -0.134821567849E+03   -0.22608E-02   -0.89338E-03  4807   0.231E-01    0.600E-01
 Begin Solvation calculations
  rms_SCF =   2.385073348886672E-003 tol =   2.385073348886672E-004
 Begin minimization
 Creating dielectric and ionic cavities
  area:      144.333556845547     
  volume:    668.636637200785     
  Acav:     7.577511734391211E-002
  Solving linear dielectric/ionic screening model
        iter                  A_solv                     rms
   LPB:       -0.547888475930535E+00   0.154893413989503E+00
   LPB:    0  -0.547887883482376E+00   0.153971259370669E+00  -0.188498E-03   0.000000E+00   0.333476E+02  -0.628598E-02
   LPB:    1  -0.547818165309800E+00   0.140540392057702E-01   0.881874E-02   0.000000E+00   0.753737E+02   0.146121E-18
   LPB:    2  -0.547812596335760E+00   0.282042903226263E-02   0.154194E-01   0.456845E-01   0.160401E+03  -0.102936E-16
   LPB:    3  -0.547811777769982E+00   0.204594613024179E-02   0.242801E-01   0.933457E-01   0.224983E+03  -0.147537E-16
   LPB:    4  -0.547811515541885E+00   0.176651358963538E-02   0.254632E-01   0.305467E+00   0.189248E+03  -0.291899E-16
   LPB:    5  -0.547811383824175E+00   0.122648778965416E-02   0.241470E-01   0.529682E+00   0.242599E+03  -0.291978E-16
   LPB:    6  -0.547811301611212E+00   0.668668420880601E-03   0.284306E-01   0.530118E+00   0.200941E+03  -0.423810E-16
   LPB:    7  -0.547811244998977E+00   0.355462874184886E-03   0.330340E-01   0.592646E+00   0.477739E+03  -0.494893E-16
   LPB:    8  -0.547811204204939E+00   0.172154197183505E-03   0.379312E-01   0.627553E+00   0.534779E+03  -0.501961E-16
  Finished solving LPB equations
  A_corr:   -0.472036086861027     
 End minimization
 Ecorr=   1440.92748740395     
 A_corr= -0.472036086861027     
 Ecorr_band=  -1441.39952349081     
 End Solvation calculations
RMM:   3    -0.134819901204E+03    0.16666E-02   -0.15558E-03  4218   0.104E-01    0.154E-01
 Begin Solvation calculations
  rms_SCF =   2.385073348886672E-003 tol =   2.385073348886672E-004
 Begin minimization
 Creating dielectric and ionic cavities
  area:      144.331492213888     
  volume:    668.641264964942     
  Acav:     7.577403341229111E-002
  Solving linear dielectric/ionic screening model
        iter                  A_solv                     rms
   LPB:       -0.548382335343879E+00   0.478564925219977E-01
   LPB:    0  -0.548380787605836E+00   0.416653061945306E-01  -0.304672E-03   0.000000E+00   0.333474E+02  -0.101600E-01
   LPB:    1  -0.548366589796838E+00   0.147429147914164E-01   0.120826E-01   0.000000E+00   0.106864E+03  -0.637761E-18
   LPB:    2  -0.548364577296616E+00   0.214988998525471E-02   0.126528E-01   0.135359E+00   0.187678E+03  -0.114703E-16
   LPB:    3  -0.548364049816600E+00   0.108981034598180E-02   0.240643E-01   0.137811E+00   0.415479E+03  -0.155074E-19
   LPB:    4  -0.548363877681862E+00   0.113087023346207E-02   0.278428E-01   0.282048E+00   0.246785E+03   0.436060E-17
   LPB:    5  -0.548363794900027E+00   0.131239635976899E-02   0.258604E-01   0.517779E+00   0.346087E+03   0.946465E-17
   LPB:    6  -0.548363737521094E+00   0.695455691111299E-03   0.277624E-01   0.645648E+00   0.928062E+02   0.172041E-16
   LPB:    7  -0.548363694286044E+00   0.385462823160767E-03   0.328039E-01   0.637698E+00   0.508997E+03   0.217569E-16
   LPB:    8  -0.548363662059263E+00   0.210792802047116E-03   0.365174E-01   0.669586E+00   0.212639E+03   0.304525E-16
  Finished solving LPB equations
  A_corr:   -0.472589628646971     
 End minimization
 Ecorr=   1440.84757017448     
 A_corr= -0.472589628646971     
 Ecorr_band=  -1441.32015980313     
 End Solvation calculations
RMM:   4    -0.134819737247E+03    0.16396E-03   -0.29161E-04  4213   0.536E-02    0.686E-02
 Begin Solvation calculations
  rms_SCF =   2.385073348886672E-003 tol =   2.385073348886672E-004
 Begin minimization
 Creating dielectric and ionic cavities
  area:      144.325182866527     
  volume:    668.640614707047     
  Acav:     7.577072100492674E-002
  Solving linear dielectric/ionic screening model
        iter                  A_solv                     rms
   LPB:       -0.549504738392331E+00   0.774184538624366E-01
   LPB:    0  -0.549496278097750E+00   0.526924833444928E-01  -0.712322E-03   0.000000E+00   0.333475E+02  -0.237541E-01
   LPB:    1  -0.549452048868949E+00   0.244983846262731E-01   0.149917E-01   0.000000E+00   0.117108E+03  -0.510462E-18
   LPB:    2  -0.549445413624396E+00   0.850420046977219E-02   0.124251E-01   0.181008E+00   0.207739E+03  -0.654925E-16
   LPB:    3  -0.549443451966008E+00   0.453425580833290E-02   0.226558E-01   0.162139E+00   0.166475E+03  -0.742813E-16
   LPB:    4  -0.549442853665734E+00   0.304215837594108E-02   0.227530E-01   0.303694E+00   0.135261E+03  -0.759288E-16
   LPB:    5  -0.549442566351024E+00   0.168648004589136E-02   0.222416E-01   0.491262E+00   0.299259E+03  -0.531610E-16
   LPB:    6  -0.549442389139649E+00   0.615753794463744E-03   0.308548E-01   0.444607E+00   0.163159E+03  -0.406993E-16
   LPB:    7  -0.549442288285751E+00   0.440341720352505E-03   0.344328E-01   0.509979E+00   0.508282E+03  -0.194126E-16
   LPB:    8  -0.549442227031420E+00   0.298381675387193E-03   0.345938E-01   0.604530E+00   0.258978E+03  -0.110698E-16
   LPB:    9  -0.549442186877701E+00   0.233241713760008E-03   0.357655E-01   0.634050E+00   0.370623E+03  -0.508532E-17
  Finished solving LPB equations
  A_corr:   -0.473671465872774     
 End minimization
 Ecorr=   1440.68580533550     
 A_corr= -0.473671465872774     
 Ecorr_band=  -1441.15947680137     
 End Solvation calculations
RMM:   5    -0.134819705637E+03    0.31610E-04   -0.15088E-04  4018   0.447E-02    0.457E-02
 Begin Solvation calculations
  rms_SCF =   2.385073348886672E-003 tol =   2.385073348886672E-004
 Begin minimization
 Creating dielectric and ionic cavities
  area:      144.328217842720     
  volume:    668.641384786537     
  Acav:     7.577231436742800E-002
  Solving linear dielectric/ionic screening model
        iter                  A_solv                     rms
   LPB:       -0.551116063411015E+00   0.159464908438035E+00
   LPB:    0  -0.551101182766202E+00   0.140230987845714E+00  -0.944702E-03   0.000000E+00   0.333474E+02  -0.315034E-01
   LPB:    1  -0.550985151780042E+00   0.378813352576708E-01   0.110923E-01   0.000000E+00   0.909324E+02   0.255556E-18
   LPB:    2  -0.550967532682071E+00   0.540120147748727E-02   0.133710E-01   0.125970E+00   0.216702E+03   0.199865E-15
   LPB:    3  -0.550963845364548E+00   0.425363631271006E-02   0.240497E-01   0.116354E+00   0.462597E+03   0.147060E-15
   LPB:    4  -0.550962790139598E+00   0.378679424966907E-02   0.237734E-01   0.289503E+00   0.147656E+03   0.125894E-15
   LPB:    5  -0.550962301925311E+00   0.255182404673008E-02   0.226705E-01   0.485171E+00   0.275005E+03   0.879128E-16
   LPB:    6  -0.550962008055451E+00   0.981793189417412E-03   0.292143E-01   0.467100E+00   0.130694E+03   0.714769E-16
   LPB:    7  -0.550961823727031E+00   0.592084294738300E-03   0.328203E-01   0.558329E+00   0.409384E+03   0.648520E-16
   LPB:    8  -0.550961701202563E+00   0.324753843698364E-03   0.358277E-01   0.608912E+00   0.221428E+03   0.596831E-16
   LPB:    9  -0.550961620440660E+00   0.281636045152858E-03   0.376034E-01   0.628025E+00   0.268180E+03   0.560373E-16
   LPB:   10  -0.550961567919537E+00   0.230671693568948E-03   0.375941E-01   0.650481E+00   0.234016E+03   0.535734E-16
  Finished solving LPB equations
  A_corr:   -0.475189253552109     
 End minimization
 Ecorr=   1440.44737086323     
 A_corr= -0.475189253552109     
 Ecorr_band=  -1440.92256011679     
 End Solvation calculations
RMM:   6    -0.134819665034E+03    0.40603E-04   -0.82092E-05  3636   0.402E-02    0.181E-02
 Begin Solvation calculations
  rms_SCF =   2.385073348886672E-003 tol =   2.385073348886672E-004
 Begin minimization
 Creating dielectric and ionic cavities
  area:      144.335104828229     
  volume:    668.661696916235     
  Acav:     7.577593003482012E-002
  Solving linear dielectric/ionic screening model
        iter                  A_solv                     rms
   LPB:       -0.552130030234300E+00   0.666398167787790E-01
   LPB:    0  -0.552123247974973E+00   0.401154443933493E-01  -0.637789E-03   0.000000E+00   0.333465E+02  -0.212680E-01
   LPB:    1  -0.552081518801390E+00   0.136318967338803E-01   0.165681E-01   0.000000E+00   0.133972E+03  -0.123124E-17
   LPB:    2  -0.552077983567877E+00   0.733776746991143E-02   0.173564E-01   0.808707E-01   0.135956E+03   0.850098E-16
   LPB:    3  -0.552076979029402E+00   0.287368474144208E-02   0.180795E-01   0.272785E+00   0.138367E+03   0.104543E-15
   LPB:    4  -0.552076549407227E+00   0.264949384495366E-02   0.223546E-01   0.345892E+00   0.232305E+03   0.106556E-15
   LPB:    5  -0.552076359625690E+00   0.245674112294403E-02   0.207446E-01   0.476024E+00   0.223216E+03   0.107465E-15
   LPB:    6  -0.552076229159309E+00   0.904567860640446E-03   0.256907E-01   0.555103E+00   0.859654E+02   0.114131E-15
   LPB:    7  -0.552076131770625E+00   0.510783520370759E-03   0.339542E-01   0.564798E+00   0.253167E+03   0.132407E-15
   LPB:    8  -0.552076057280300E+00   0.316103978303532E-03   0.372565E-01   0.697079E+00   0.129926E+03   0.139577E-15
   LPB:    9  -0.552076003261412E+00   0.270186626906555E-03   0.381336E-01   0.708502E+00   0.165585E+03   0.143935E-15
   LPB:   10  -0.552075966799668E+00   0.239686563686862E-03   0.365883E-01   0.703489E+00   0.156579E+03   0.147976E-15
   LPB:   11  -0.552075942350436E+00   0.197996795176237E-03   0.354126E-01   0.692807E+00   0.267948E+03   0.150692E-15
  Finished solving LPB equations
  A_corr:   -0.476300012315616     
 End minimization
 Ecorr=   1440.16549839011     
 A_corr= -0.476300012315616     
 Ecorr_band=  -1440.64179840242     
 End Solvation calculations
RMM:   7    -0.134819664374E+03    0.65923E-06   -0.22354E-05  2503   0.171E-02
 Begin Solvation calculations
  rms_SCF =   2.385073348886672E-003 tol =   2.385073348886672E-004
 Begin minimization
 Creating dielectric and ionic cavities
  area:      144.341853243456     
  volume:    668.671862793931     
  Acav:     7.577947295281447E-002
  Solving linear dielectric/ionic screening model
        iter                  A_solv                     rms
   LPB:       -0.552526261161483E+00   0.385793934765507E-01
   LPB:    0  -0.552525160735544E+00   0.314559895559933E-01  -0.256906E-03   0.000000E+00   0.333460E+02  -0.856677E-02
   LPB:    1  -0.552517971262683E+00   0.110936119740726E-01   0.113340E-01   0.000000E+00   0.989690E+02   0.442849E-18
   LPB:    2  -0.552516944668396E+00   0.148387301962885E-02   0.129778E-01   0.124706E+00   0.121304E+03   0.145423E-16
   LPB:    3  -0.552516751779539E+00   0.105871677419886E-02   0.218280E-01   0.111711E+00   0.286348E+03  -0.275243E-17
   LPB:    4  -0.552516690664632E+00   0.848009971843787E-03   0.251270E-01   0.275241E+00   0.961588E+02  -0.555455E-17
   LPB:    5  -0.552516660499180E+00   0.705002069339035E-03   0.242298E-01   0.511862E+00   0.329255E+03  -0.103471E-16
   LPB:    6  -0.552516639805056E+00   0.280769102046871E-03   0.295288E-01   0.562914E+00   0.823884E+02  -0.151975E-16
   LPB:    7  -0.552516621154241E+00   0.210265410013462E-03   0.400904E-01   0.663829E+00   0.137494E+03  -0.192513E-16
  Finished solving LPB equations
  A_corr:   -0.476737148201427     
 End minimization
 Ecorr=   1440.05199633028     
 A_corr= -0.476737148201427     
 Ecorr_band=  -1440.52873347848     
 End Solvation calculations
   3 F= -.13481966E+03 E0= -.13481500E+03  d E =-.290264E-02
quench:  g(F)=  0.000E+00 g(S)=  0.000E+00 dE (1.order)= 0.000E+00
 bond charge predicted
       N       E                     dE             d eps       ncg     rms          rms(c)
 Begin Solvation calculations
  rms_SCF =   2.385073348886672E-003 tol =   2.385073348886672E-004
 Begin minimization
 Creating dielectric and ionic cavities
  area:      144.473279013701     
  volume:    668.640975082277     
  Acav:     7.584847148219322E-002
  Solving linear dielectric/ionic screening model
        iter                  A_solv                     rms
   LPB:       -0.556117571740658E+00   0.509752475425486E-02
   LPB:    0  -0.556117571577751E+00   0.513445383442289E-02  -0.312575E-05   0.000000E+00   0.333474E+02  -0.104236E-03
   LPB:    1  -0.554026125869978E+00   0.195264290703234E-02   0.155106E-01   0.000000E+00   0.624851E+06  -0.194517E-20
   LPB:    2  -0.553847441723323E+00   0.231256613919504E-02   0.262561E-01   0.504706E-01   0.130163E+06   0.578092E-18
   LPB:    3  -0.553791537693616E+00   0.464025972490320E-02   0.326765E-01   0.251392E+00   0.219101E+05   0.312309E-18
   LPB:    4  -0.553767933019709E+00   0.132111475555538E-01   0.345856E-01   0.398929E+00   0.243662E+04   0.232042E-17
   LPB:    5  -0.553758146854417E+00   0.219822328840179E-01   0.260538E-01   0.550350E+00   0.227497E+03   0.411005E-17
   LPB:    6  -0.553751605094729E+00   0.809073638094704E-02   0.193864E-01   0.898374E+00   0.235314E+03  -0.158594E-16
   LPB:    7  -0.553746132785070E+00   0.236915130873471E-02   0.345876E-01   0.468870E+00   0.125791E+04  -0.321254E-16
   LPB:    8  -0.553742866197042E+00   0.371730194617117E-02   0.377212E-01   0.547341E+00   0.770312E+03  -0.466247E-16
   LPB:    9  -0.553741122550802E+00   0.613406457514289E-02   0.313187E-01   0.642904E+00   0.390902E+03  -0.378614E-16
   LPB:   10  -0.553740062337096E+00   0.350466621268984E-02   0.240488E-01   0.791854E+00   0.137590E+03   0.508635E-17
   LPB:   11  -0.553739175337058E+00   0.137954050026117E-02   0.336091E-01   0.598642E+00   0.867775E+03  -0.383269E-16
[...]
  volume:    667.947053030614     
  Acav:     7.591986027041135E-002
  Solving linear dielectric/ionic screening model
        iter                  A_solv                     rms
   LPB:       -0.587066656186346E+00   0.190847001576666E-01
   LPB:    0  -0.587066654763688E+00   0.190629589943891E-01  -0.923256E-05   0.000000E+00   0.333800E+02  -0.308183E-03
   LPB:    1  -0.587065612664087E+00   0.180550602122809E-02   0.877489E-02   0.000000E+00   0.744238E+02   0.164809E-20
   LPB:    2  -0.587065525544091E+00   0.353270765424243E-03   0.160186E-01   0.457958E-01   0.139800E+03   0.554757E-18
   LPB:    3  -0.587065513390315E+00   0.216301878180243E-03   0.236620E-01   0.944423E-01   0.202150E+03   0.661166E-19
   LPB:    4  -0.587065509272757E+00   0.204935085545466E-03   0.279290E-01   0.287027E+00   0.229694E+03   0.822781E-18
   LPB:    5  -0.587065507279208E+00   0.158321101059083E-03   0.243292E-01   0.555795E+00   0.215207E+03   0.434120E-18
   LPB:    6  -0.587065506080185E+00   0.954878264785432E-04   0.271334E-01   0.539293E+00   0.220143E+03  -0.317525E-18
   LPB:    7  -0.587065505196467E+00   0.528724065081722E-04   0.330880E-01   0.604393E+00   0.451308E+03  -0.256696E-17
  Finished solving LPB equations
  A_corr:   -0.511145644926056     
 End minimization
 Ecorr=   1434.98135026262     
 A_corr= -0.511145644926056     
 Ecorr_band=  -1435.49249590754     
 End Solvation calculations
RMM:   3    -0.134822959186E+03    0.13624E-04   -0.18680E-05  2399   0.151E-02    0.223E-02
 Begin Solvation calculations
  rms_SCF =   8.618772263633901E-004 tol =   8.618772263633901E-005
 Begin minimization
 Creating dielectric and ionic cavities
  area:      144.609895575930     
  volume:    667.947153553846     
  Acav:     7.592019517736337E-002
  Solving linear dielectric/ionic screening model
        iter                  A_solv                     rms
   LPB:       -0.587058133458621E+00   0.125515722626268E-01
   LPB:    0  -0.587058130481057E+00   0.124926462192878E-01   0.133568E-04   0.000000E+00   0.333800E+02   0.445850E-03
   LPB:    1  -0.587057664170516E+00   0.136631831518429E-02   0.908555E-02   0.000000E+00   0.721482E+02   0.225326E-19
   LPB:    2  -0.587057606861512E+00   0.205939412037920E-03   0.167195E-01   0.667843E-01   0.145387E+03   0.231997E-17
   LPB:    3  -0.587057598969605E+00   0.897561420072112E-04   0.230700E-01   0.998013E-01   0.413117E+03   0.354529E-17
   LPB:    4  -0.587057596425833E+00   0.105944716345775E-03   0.294465E-01   0.252528E+00   0.484342E+03   0.375823E-17
   LPB:    5  -0.587057595130360E+00   0.134291477953957E-03   0.309499E-01   0.484535E+00   0.203482E+03   0.382001E-17
   LPB:    6  -0.587057594255043E+00   0.125207854847939E-03   0.291211E-01   0.718104E+00   0.196300E+03   0.466217E-17
   LPB:    7  -0.587057593574957E+00   0.685467304508360E-04   0.293405E-01   0.771150E+00   0.194789E+03   0.483880E-17
  Finished solving LPB equations
  A_corr:   -0.511137398397593     
 End minimization
 Ecorr=   1434.98579538088     
 A_corr= -0.511137398397593     
 Ecorr_band=  -1435.49693277927     
 End Solvation calculations
RMM:   4    -0.134822957390E+03    0.17960E-05   -0.40230E-06  2199   0.802E-03
 Begin Solvation calculations
  rms_SCF =   8.618772263633901E-004 tol =   8.618772263633901E-005
 Begin minimization
 Creating dielectric and ionic cavities
  area:      144.609044744505     
  volume:    667.946936053307     
  Acav:     7.591974849086493E-002
  Solving linear dielectric/ionic screening model
        iter                  A_solv                     rms
   LPB:       -0.587064419927530E+00   0.747461652352715E-02
   LPB:    0  -0.587064419519546E+00   0.747758064880818E-02  -0.494417E-05   0.000000E+00   0.333800E+02  -0.165036E-03
   LPB:    1  -0.587064243520437E+00   0.665818771097203E-03   0.884761E-02   0.000000E+00   0.803714E+02  -0.110635E-19
   LPB:    2  -0.587064223700876E+00   0.176918762979239E-03   0.179753E-01   0.554286E-01   0.204797E+03  -0.318206E-18
   LPB:    3  -0.587064220133402E+00   0.115360707997831E-03   0.247373E-01   0.130795E+00   0.327270E+03  -0.514183E-18
   LPB:    4  -0.587064218620214E+00   0.105473495767359E-03   0.300186E-01   0.349537E+00   0.341819E+03  -0.130294E-17
   LPB:    5  -0.587064217829572E+00   0.109009618219367E-03   0.287475E-01   0.545604E+00   0.241983E+03  -0.139057E-17
   LPB:    6  -0.587064217233213E+00   0.833350935019976E-04   0.288155E-01   0.752492E+00   0.258080E+03  -0.239785E-17
  Finished solving LPB equations
  A_corr:   -0.511144468742348     
 End minimization
 Ecorr=   1434.98874307382     
 A_corr= -0.511144468742348     
 Ecorr_band=  -1435.49988754256     
 End Solvation calculations
  78 F= -.13482296E+03 E0= -.13481867E+03  d E =-.190218E-04
quench:  g(F)=  0.000E+00 g(S)=  0.000E+00 dE (1.order)= 0.000E+00
 bond charge predicted
       N       E                     dE             d eps       ncg     rms          rms(c)
 Begin Solvation calculations
  rms_SCF =   8.618772263633901E-004 tol =   8.618772263633901E-005
 Begin minimization
 Creating dielectric and ionic cavities
  area:      144.607499236078     
  volume:    667.940306846755     
  Acav:     7.591893709894074E-002
  Solving linear dielectric/ionic screening model
        iter                  A_solv                     rms
   LPB:       -0.587142345286785E+00   0.588477219523988E-03
   LPB:    0  -0.587142345280233E+00   0.597764354835122E-03  -0.626538E-06   0.000000E+00   0.333803E+02  -0.209140E-04
   LPB:    1  -0.587118874000139E+00   0.243639919672144E-03   0.164327E-01   0.000000E+00   0.425572E+06  -0.120508E-20
   LPB:    2  -0.587115781209089E+00   0.267541626972350E-03   0.281784E-01   0.768432E-01   0.117015E+06   0.873143E-20
   LPB:    3  -0.587114730838166E+00   0.622278606589141E-03   0.331532E-01   0.288658E+00   0.304895E+05  -0.226884E-18
   LPB:    4  -0.587114277617233E+00   0.163254560442833E-02   0.348844E-01   0.410074E+00   0.244697E+04  -0.109584E-17
   LPB:    5  -0.587114087891354E+00   0.295345650179756E-02   0.272598E-01   0.535703E+00   0.276774E+03  -0.112886E-17
   LPB:    6  -0.587113973992192E+00   0.120510205801333E-02   0.186786E-01   0.876139E+00   0.205940E+03   0.910654E-18
   LPB:    7  -0.587113879279158E+00   0.520356524078616E-03   0.325930E-01   0.476551E+00   0.102164E+04   0.235931E-17
   LPB:    8  -0.587113825065560E+00   0.888540408168984E-03   0.345757E-01   0.539574E+00   0.478701E+03   0.140959E-17
   LPB:    9  -0.587113796428564E+00   0.767573894122316E-03   0.250107E-01   0.730239E+00   0.158240E+03   0.176118E-17
   LPB:   10  -0.587113773201729E+00   0.272181864214144E-03   0.287844E-01   0.704743E+00   0.368072E+03   0.100837E-16
   LPB:   11  -0.587113756175402E+00   0.106965203958644E-03   0.376821E-01   0.559954E+00   0.189510E+04   0.260484E-16
   LPB:   12  -0.587113745219136E+00   0.118987422667773E-03   0.386798E-01   0.626893E+00   0.310783E+04   0.337452E-16
   LPB:   13  -0.587113737976728E+00   0.128419449624398E-03   0.363947E-01   0.702533E+00   0.172958E+04   0.386337E-16
   LPB:   14  -0.587113733043496E+00   0.903980092210338E-04   0.338074E-01   0.733287E+00   0.140979E+04   0.417414E-16
   LPB:   15  -0.587113729291633E+00   0.592063260938935E-04   0.380752E-01   0.675283E+00   0.236559E+04   0.434020E-16
  Finished solving LPB equations
  A_corr:   -0.511194792192692     
 End minimization
 Ecorr=   1434.98531530131     
 A_corr= -0.511194792192692     
 Ecorr_band=  -1435.49651009350     
 End Solvation calculations
DAV:   1    -0.134822968615E+03   -0.94294E-05   -0.18525E-03  4518   0.945E-02    0.100E-02
 Begin Solvation calculations
  rms_SCF =   8.618772263633901E-004 tol =   8.618772263633901E-005
 Begin minimization
 Creating dielectric and ionic cavities
  area:      144.607117553524     
  volume:    667.942245748537     
  Acav:     7.591873671560023E-002
  Solving linear dielectric/ionic screening model
        iter                  A_solv                     rms
   LPB:       -0.587089484156463E+00   0.878294840445428E-02
   LPB:    0  -0.587089472089169E+00   0.850239185122503E-02   0.268891E-04   0.000000E+00   0.333802E+02   0.897562E-03
   LPB:    1  -0.587089164175537E+00   0.162710489813130E-02   0.103451E-01   0.000000E+00   0.785334E+02   0.393605E-19
   LPB:    2  -0.587089089491234E+00   0.243760353976322E-03   0.171795E-01   0.146058E+00   0.253716E+03   0.147831E-17
   LPB:    3  -0.587089076431735E+00   0.198730765392712E-03   0.264888E-01   0.113408E+00   0.813923E+03   0.178365E-17
   LPB:    4  -0.587089071482416E+00   0.221671931622822E-03   0.260416E-01   0.385491E+00   0.395164E+03   0.210333E-17
   LPB:    5  -0.587089068821472E+00   0.217449260241012E-03   0.269771E-01   0.518994E+00   0.201469E+03   0.198324E-17
   LPB:    6  -0.587089067034315E+00   0.135300488897112E-03   0.278104E-01   0.651501E+00   0.201339E+03   0.992314E-18
   LPB:    7  -0.587089065553174E+00   0.582398654777634E-04   0.346065E-01   0.666014E+00   0.469186E+03  -0.191936E-18
  Finished solving LPB equations
  A_corr:   -0.511170328837574     
 End minimization
 Ecorr=   1434.98962902860     
 A_corr= -0.511170328837574     
 Ecorr_band=  -1435.50079935744     
 End Solvation calculations
RMM:   2    -0.134822975553E+03   -0.69383E-05   -0.71998E-05  3078   0.202E-02
 Begin Solvation calculations
  rms_SCF =   8.618772263633901E-004 tol =   8.618772263633901E-005
 Begin minimization
 Creating dielectric and ionic cavities
  area:      144.605849927989     
  volume:    667.943125385376     
  Acav:     7.591807121219447E-002
  Solving linear dielectric/ionic screening model
        iter                  A_solv                     rms
   LPB:       -0.587059453765616E+00   0.154915978191639E-01
   LPB:    0  -0.587059447064081E+00   0.153977460843087E-01   0.200382E-04   0.000000E+00   0.333802E+02   0.668877E-03
   LPB:    1  -0.587058736240789E+00   0.140412807645336E-02   0.888478E-02   0.000000E+00   0.757637E+02   0.123363E-19
   LPB:    2  -0.587058674985413E+00   0.266429355618260E-03   0.153824E-01   0.497744E-01   0.180933E+03   0.251163E-17
   LPB:    3  -0.587058666590577E+00   0.191108711963544E-03   0.240555E-01   0.876348E-01   0.284199E+03   0.408909E-17
   LPB:    4  -0.587058663941240E+00   0.175026340951729E-03   0.258464E-01   0.293724E+00   0.203707E+03   0.390005E-17
   LPB:    5  -0.587058662547712E+00   0.133618004025703E-03   0.250318E-01   0.543107E+00   0.238286E+03   0.156093E-17
   LPB:    6  -0.587058661554730E+00   0.852313200157882E-04   0.302276E-01   0.590085E+00   0.194816E+03   0.878949E-18
  Finished solving LPB equations
  A_corr:   -0.511140590342535     
 End minimization
 Ecorr=   1434.99145132830     
 A_corr= -0.511140590342535     
 Ecorr_band=  -1435.50259191864     
 End Solvation calculations
  79 F= -.13482298E+03 E0= -.13481869E+03  d E =-.181637E-04
quench:  g(F)=  0.000E+00 g(S)=  0.000E+00 dE (1.order)= 0.000E+00
 bond charge predicted
       N       E                     dE             d eps       ncg     rms          rms(c)
 Begin Solvation calculations
  rms_SCF =   8.618772263633901E-004 tol =   8.618772263633901E-005
 Begin minimization
 Creating dielectric and ionic cavities
  area:      144.607308009831     
  volume:    667.939028289849     
  Acav:     7.591883670516114E-002
  Solving linear dielectric/ionic screening model
        iter                  A_solv                     rms
   LPB:       -0.587113477649349E+00   0.462783424182456E-03
   LPB:    0  -0.587113477646977E+00   0.466159651725137E-03  -0.376974E-06   0.000000E+00   0.333803E+02  -0.125835E-04
   LPB:    1  -0.587095135567730E+00   0.178915048121131E-03   0.158032E-01   0.000000E+00   0.638068E+06  -0.707215E-21
   LPB:    2  -0.587093207098458E+00   0.176594228392645E-03   0.270502E-01   0.614239E-01   0.153299E+06  -0.220447E-18
   LPB:    3  -0.587092600861675E+00   0.390588198551611E-03   0.325391E-01   0.261333E+00   0.429664E+05  -0.234969E-18
   LPB:    4  -0.587092340930638E+00   0.108536625132961E-02   0.351465E-01   0.396953E+00   0.363195E+04  -0.308074E-18
   LPB:    5  -0.587092229499388E+00   0.217253033579434E-02   0.288779E-01   0.521753E+00   0.318479E+03  -0.277573E-18
   LPB:    6  -0.587092168439062E+00   0.100004672935534E-02   0.181912E-01   0.869873E+00   0.192666E+03   0.702065E-18
   LPB:    7  -0.587092114595595E+00   0.229395797265358E-03   0.318788E-01   0.503192E+00   0.109362E+04   0.171224E-17
   LPB:    8  -0.587092081567675E+00   0.271913999925369E-03   0.383131E-01   0.510391E+00   0.248424E+04   0.217610E-17
   LPB:    9  -0.587092062783895E+00   0.520586107359285E-03   0.346557E-01   0.628745E+00   0.541855E+03   0.354629E-17
   LPB:   10  -0.587092051907542E+00   0.457382037067056E-03   0.257313E-01   0.779854E+00   0.172039E+03   0.558932E-17
   LPB:   11  -0.587092042829927E+00   0.197225168118935E-03   0.296949E-01   0.723217E+00   0.365480E+03   0.504434E-17
   LPB:   12  -0.587092036373860E+00   0.122767721487431E-03   0.366833E-01   0.575718E+00   0.821021E+03   0.354891E-17
   LPB:   13  -0.587092032021819E+00   0.108652162739425E-03   0.359011E-01   0.688788E+00   0.126814E+04   0.276208E-17
   LPB:   14  -0.587092028979349E+00   0.719595113142297E-04   0.342715E-01   0.732330E+00   0.120389E+04   0.257301E-17
  Finished solving LPB equations
  A_corr:   -0.511173192274188     
 End minimization
 Ecorr=   1434.98740317012     
 A_corr= -0.511173192274188     
 Ecorr_band=  -1435.49857636240     
 End Solvation calculations
DAV:   1    -0.134822989951E+03   -0.21336E-04   -0.13786E-03  4815   0.869E-02    0.151E-02
 Begin Solvation calculations
  rms_SCF =   8.618772263633901E-004 tol =   8.618772263633901E-005
 Begin minimization
 Creating dielectric and ionic cavities
  area:      144.606516919139     
  volume:    667.937419898717     
  Acav:     7.591842138254788E-002
  Solving linear dielectric/ionic screening model
        iter                  A_solv                     rms
   LPB:       -0.587142641005532E+00   0.402064674368907E-01
   LPB:    0  -0.587142629476273E+00   0.401547870981728E-01  -0.262827E-04   0.000000E+00   0.333804E+02  -0.877327E-03
   LPB:    1  -0.587137933548073E+00   0.394641837506259E-02   0.889807E-02   0.000000E+00   0.735448E+02   0.455733E-19
   LPB:    2  -0.587137467864737E+00   0.766505760808360E-03   0.163571E-01   0.539459E-01   0.149211E+03  -0.889182E-18
   LPB:    3  -0.587137398908735E+00   0.471861705570607E-03   0.237690E-01   0.101901E+00   0.259640E+03  -0.797658E-18
   LPB:    4  -0.587137377890508E+00   0.406009568658765E-03   0.268101E-01   0.270231E+00   0.269210E+03   0.711833E-18
   LPB:    5  -0.587137368821695E+00   0.346606424371534E-03   0.243798E-01   0.474485E+00   0.231629E+03  -0.578961E-18
   LPB:    6  -0.587137363635767E+00   0.217805998355978E-03   0.261618E-01   0.532892E+00   0.183131E+03  -0.281927E-17
   LPB:    7  -0.587137360286891E+00   0.108371070932979E-03   0.295796E-01   0.571146E+00   0.332728E+03  -0.538796E-17
   LPB:    8  -0.587137357978822E+00   0.436698138705844E-04   0.359701E-01   0.566762E+00   0.449213E+03  -0.593874E-17
  Finished solving LPB equations
  A_corr:   -0.511218936596274     
 End minimization
 Ecorr=   1434.99492479594     
 A_corr= -0.511218936596274     
 Ecorr_band=  -1435.50614373254     
 End Solvation calculations
RMM:   2    -0.134823035245E+03   -0.45294E-04   -0.93514E-05  3054   0.287E-02    0.931E-02
 Begin Solvation calculations
  rms_SCF =   8.618772263633901E-004 tol =   8.618772263633901E-005
 Begin minimization
 Creating dielectric and ionic cavities
  area:      144.606153050518     
  volume:    667.937587492683     
  Acav:     7.591823035152191E-002
  Solving linear dielectric/ionic screening model
        iter                  A_solv                     rms
   LPB:       -0.587107809792814E+00   0.235679957157484E-01
   LPB:    0  -0.587107805102117E+00   0.235109472373108E-01   0.167644E-04   0.000000E+00   0.333804E+02   0.559602E-03
   LPB:    1  -0.587106212613058E+00   0.216496827006625E-02   0.874814E-02   0.000000E+00   0.751519E+02   0.501494E-19
   LPB:    2  -0.587106086467565E+00   0.444816649775570E-03   0.158758E-01   0.436492E-01   0.143825E+03   0.572941E-18
   LPB:    3  -0.587106067833065E+00   0.302981350316026E-03   0.242573E-01   0.966806E-01   0.191900E+03  -0.131894E-17
   LPB:    4  -0.587106061073776E+00   0.290792929491878E-03   0.275533E-01   0.319338E+00   0.213034E+03  -0.447919E-17
   LPB:    5  -0.587106057669003E+00   0.189701508106606E-03   0.236761E-01   0.586208E+00   0.223973E+03  -0.110595E-16
   LPB:    6  -0.587106055703482E+00   0.106316818754284E-03   0.273372E-01   0.499972E+00   0.287511E+03  -0.127004E-16
   LPB:    7  -0.587106054363705E+00   0.559479693049183E-04   0.329852E-01   0.564923E+00   0.576822E+03  -0.151564E-16
  Finished solving LPB equations
  A_corr:   -0.511187824012183     
 End minimization
 Ecorr=   1434.99630981532     
 A_corr= -0.511187824012183     
 Ecorr_band=  -1435.50749763934     
 End Solvation calculations
RMM:   3    -0.134822996103E+03    0.39142E-04   -0.28877E-05  2473   0.179E-02    0.172E-02
 Begin Solvation calculations
  rms_SCF =   8.618772263633901E-004 tol =   8.618772263633901E-005
 Begin minimization
 Creating dielectric and ionic cavities
  area:      144.604854242843     
  volume:    667.937872621217     
  Acav:     7.591754847749260E-002
  Solving linear dielectric/ionic screening model
        iter                  A_solv                     rms
   LPB:       -0.587109394123376E+00   0.100509968012618E-01
   LPB:    0  -0.587109393813195E+00   0.100492878626738E-01  -0.431099E-05   0.000000E+00   0.333804E+02  -0.143902E-03
   LPB:    1  -0.587109081000409E+00   0.927514309574246E-03   0.891835E-02   0.000000E+00   0.778888E+02   0.811333E-20
   LPB:    2  -0.587109048641107E+00   0.180756255973474E-03   0.166194E-01   0.555117E-01   0.195644E+03  -0.221346E-18
   LPB:    3  -0.587109042818436E+00   0.891786238925456E-04   0.249094E-01   0.120053E+00   0.357456E+03  -0.219461E-18
   LPB:    4  -0.587109040655795E+00   0.725106421071035E-04   0.325314E-01   0.284396E+00   0.618805E+03  -0.778292E-18
  Finished solving LPB equations
  A_corr:   -0.511191492178303     
 End minimization
 Ecorr=   1434.99735341171     
 A_corr= -0.511191492178303     
 Ecorr_band=  -1435.50854490389     
 End Solvation calculations
RMM:   4    -0.134822994441E+03    0.16626E-05   -0.38166E-06  2204   0.797E-03
 Begin Solvation calculations
  rms_SCF =   8.618772263633901E-004 tol =   8.618772263633901E-005
 Begin minimization
 Creating dielectric and ionic cavities
  area:      144.604616710687     
  volume:    667.938122073765     
  Acav:     7.591742377311078E-002
  Solving linear dielectric/ionic screening model
        iter                  A_solv                     rms
   LPB:       -0.587109334934087E+00   0.666563963742822E-02
   LPB:    0  -0.587109334204634E+00   0.663246076902023E-02   0.661101E-05   0.000000E+00   0.333804E+02   0.220678E-03
   LPB:    1  -0.587109191153581E+00   0.822621146533420E-03   0.949224E-02   0.000000E+00   0.718232E+02   0.176282E-21
   LPB:    2  -0.587109168068247E+00   0.147034340212397E-03   0.169036E-01   0.906222E-01   0.179395E+03  -0.268166E-18
   LPB:    3  -0.587109164024029E+00   0.731664854526870E-04   0.241226E-01   0.122759E+00   0.603061E+03  -0.121308E-17
   LPB:    4  -0.587109162185881E+00   0.854790360058614E-04   0.324309E-01   0.338074E+00   0.666384E+03  -0.141460E-17
  Finished solving LPB equations
  A_corr:   -0.511191738412771     
 End minimization
 Ecorr=   1435.00240828488     
 A_corr= -0.511191738412771     
 Ecorr_band=  -1435.51360002329     
 End Solvation calculations
  80 F= -.13482299E+03 E0= -.13481871E+03  d E =-.188874E-04
quench:  g(F)=  0.000E+00 g(S)=  0.000E+00 dE (1.order)= 0.000E+00
 reached required accuracy - stopping structural energy minimisation
