 vasp.5.4.4.18Apr17-6-g9f103f2a35 (build Feb 06 2024 13:54:16) complex          
  
 POSCAR found type information on POSCAR  Pd N  O 
 03/POSCAR found :  3 types and      40 ions
 scaLAPACK will be used

 ----------------------------------------------------------------------------- 
|                                                                             |
|  ADVICE TO THIS USER RUNNING 'VASP/VAMP'   (HEAR YOUR MASTER'S VOICE ...):  |
|                                                                             |
|      You enforced a specific xc-type in the INCAR file,                     |
|      a different type was found on the POTCAR file                          |
|          I HOPE YOU KNOW, WHAT YOU ARE  DOING                               |
|                                                                             |
 ----------------------------------------------------------------------------- 

 LDA part: xc-table for Pade appr. of Perdew
 POSCAR found type information on POSCAR  Pd N  O 
 00/POSCAR found :  3 types and      40 ions
 POSCAR found type information on POSCAR  Pd N  O 
 06/POSCAR found :  3 types and      40 ions
 Jacobian:    21.0960049830057     
 POSCAR, INCAR and KPOINTS ok, starting setup
 FFT: planning ...
 WAVECAR not read
 entering main loop
       N       E                     dE             d eps       ncg     rms          rms(c)
DAV:   1     0.203206450357E+04    0.20321E+04   -0.13219E+05  2790   0.932E+02
DAV:   2    -0.433012011381E+02   -0.20754E+04   -0.19417E+04  3186   0.257E+02
DAV:   3    -0.185007753409E+03   -0.14171E+03   -0.12750E+03  3195   0.617E+01
DAV:   4    -0.190052790412E+03   -0.50450E+01   -0.48334E+01  3150   0.120E+01
DAV:   5    -0.190257961121E+03   -0.20517E+00   -0.20283E+00  3321   0.242E+00    0.353E+01
RMM:   6    -0.186477221293E+03    0.37807E+01   -0.30819E+01  2784   0.116E+01    0.266E+01
RMM:   7    -0.297633721419E+03   -0.11116E+03   -0.50920E+01  2815   0.990E+00    0.721E+01
RMM:   8    -0.205237475533E+03    0.92396E+02   -0.27089E+01  2775   0.821E+00    0.426E+01
RMM:   9    -0.184284727241E+03    0.20953E+02   -0.17151E+01  2778   0.760E+00    0.175E+01
RMM:  10    -0.186162662960E+03   -0.18779E+01   -0.11723E+01  2784   0.632E+00    0.200E+01
RMM:  11    -0.183072636489E+03    0.30900E+01   -0.43115E+00  2780   0.404E+00    0.114E+01
RMM:  12    -0.182199234580E+03    0.87340E+00   -0.21215E+00  2780   0.274E+00    0.737E+00
RMM:  13    -0.182025554283E+03    0.17368E+00   -0.78127E-01  2781   0.167E+00    0.650E+00
RMM:  14    -0.181777885700E+03    0.24767E+00   -0.32035E-01  2778   0.108E+00    0.394E+00
RMM:  15    -0.181727174270E+03    0.50711E-01   -0.11711E-01  2775   0.648E-01    0.326E+00
RMM:  16    -0.181677798418E+03    0.49376E-01   -0.69781E-02  2779   0.493E-01    0.218E+00
RMM:  17    -0.181667399360E+03    0.10399E-01   -0.21678E-02  2772   0.281E-01    0.166E+00
RMM:  18    -0.181679917271E+03   -0.12518E-01   -0.41702E-02  2780   0.368E-01    0.202E+00
RMM:  19    -0.181657205202E+03    0.22712E-01   -0.24059E-02  2781   0.311E-01    0.115E+00
RMM:  20    -0.181650454175E+03    0.67510E-02   -0.11470E-02  2779   0.204E-01    0.748E-01
RMM:  21    -0.181646513734E+03    0.39404E-02   -0.31242E-03  2741   0.109E-01    0.347E-01
RMM:  22    -0.181646046919E+03    0.46682E-03   -0.17307E-03  2750   0.788E-02    0.354E-01
RMM:  23    -0.181644988756E+03    0.10582E-02   -0.12027E-03  2730   0.658E-02    0.240E-01
RMM:  24    -0.181644498660E+03    0.49010E-03   -0.44254E-04  2057   0.405E-02    0.173E-01
RMM:  25    -0.181644338440E+03    0.16022E-03   -0.24747E-04  1608   0.333E-02    0.150E-01
RMM:  26    -0.181644618812E+03   -0.28037E-03   -0.26253E-04  1711   0.295E-02    0.243E-01
RMM:  27    -0.181644640597E+03   -0.21785E-04   -0.17391E-04  1593   0.248E-02
   1 F= -.18164464E+03 E0= -.18164002E+03  d E =-.181645E+03
quench:  g(F)=  0.000E+00 g(S)=  0.000E+00 dE (1.order)= 0.000E+00
 bond charge predicted
       N       E                     dE             d eps       ncg     rms          rms(c)
DAV:   1    -0.181655320359E+03   -0.10702E-01   -0.16438E-01  2865   0.685E-01    0.160E-01
RMM:   2    -0.181660635265E+03   -0.53149E-02   -0.85296E-03  2777   0.149E-01    0.817E-01
RMM:   3    -0.181658441090E+03    0.21942E-02   -0.10594E-03  2729   0.583E-02    0.619E-01
RMM:   4    -0.181656347712E+03    0.20934E-02   -0.82203E-04  2709   0.613E-02    0.162E-01
RMM:   5    -0.181656781626E+03   -0.43391E-03   -0.41330E-04  1859   0.413E-02    0.232E-01
RMM:   6    -0.181656816175E+03   -0.34550E-04   -0.23302E-04  1580   0.334E-02
   2 F= -.18165682E+03 E0= -.18165223E+03  d E =-.121756E-01
quench:  g(F)=  0.000E+00 g(S)=  0.000E+00 dE (1.order)= 0.000E+00
 bond charge predicted
       N       E                     dE             d eps       ncg     rms          rms(c)
DAV:   1    -0.181670286225E+03   -0.13505E-01   -0.51903E-01  2814   0.130E+00    0.322E-01
RMM:   2    -0.181827396879E+03   -0.15711E+00   -0.36884E-02  2782   0.323E-01    0.489E+00
RMM:   3    -0.181673842708E+03    0.15355E+00   -0.14713E-02  2788   0.228E-01    0.733E-01
RMM:   4    -0.181672609917E+03    0.12328E-02   -0.43677E-03  2785   0.162E-01    0.413E-01
RMM:   5    -0.181671788973E+03    0.82094E-03   -0.12028E-03  2764   0.683E-02    0.236E-01
RMM:   6    -0.181671854498E+03   -0.65525E-04   -0.72486E-04  2721   0.531E-02
   3 F= -.18167185E+03 E0= -.18166701E+03  d E =-.150383E-01
quench:  g(F)=  0.000E+00 g(S)=  0.000E+00 dE (1.order)= 0.000E+00
 bond charge predicted
       N       E                     dE             d eps       ncg     rms          rms(c)
DAV:   1    -0.181685247286E+03   -0.13458E-01   -0.78019E-01  2784   0.175E+00    0.306E-01
RMM:   2    -0.181728324933E+03   -0.43078E-01   -0.30535E-02  2782   0.310E-01    0.253E+00
RMM:   3    -0.181691513254E+03    0.36812E-01   -0.57879E-03  2788   0.141E-01    0.943E-01
RMM:   4    -0.181687008779E+03    0.45045E-02   -0.39191E-03  2757   0.136E-01    0.303E-01
RMM:   5    -0.181687201506E+03   -0.19273E-03   -0.12397E-03  2768   0.687E-02    0.277E-01
RMM:   6    -0.181686931716E+03    0.26979E-03   -0.60175E-04  2559   0.490E-02    0.164E-01
RMM:   7    -0.181687123984E+03   -0.19227E-03   -0.27019E-04  1681   0.330E-02    0.191E-01
RMM:   8    -0.181687058940E+03    0.65044E-04   -0.19168E-04  1562   0.305E-02
   4 F= -.18168706E+03 E0= -.18168219E+03  d E =-.152044E-01
quench:  g(F)=  0.000E+00 g(S)=  0.000E+00 dE (1.order)= 0.000E+00
 bond charge predicted
       N       E                     dE             d eps       ncg     rms          rms(c)
DAV:   1    -0.181701988728E+03   -0.14865E-01   -0.11289E+00  2784   0.212E+00    0.301E-01
RMM:   2    -0.181713795646E+03   -0.11807E-01   -0.33208E-02  2790   0.296E-01    0.121E+00
RMM:   3    -0.181708088502E+03    0.57071E-02   -0.27773E-03  2786   0.952E-02    0.836E-01
RMM:   4    -0.181705687652E+03    0.24009E-02   -0.26365E-03  2770   0.105E-01    0.468E-01
RMM:   5    -0.181704700644E+03    0.98701E-03   -0.11942E-03  2763   0.697E-02    0.247E-01
RMM:   6    -0.181704511389E+03    0.18925E-03   -0.51588E-04  2303   0.466E-02    0.128E-01
RMM:   7    -0.181704715437E+03   -0.20405E-03   -0.26207E-04  1635   0.336E-02    0.150E-01
RMM:   8    -0.181704678721E+03    0.36716E-04   -0.15738E-04  1522   0.285E-02
   5 F= -.18170468E+03 E0= -.18169967E+03  d E =-.176198E-01
quench:  g(F)=  0.000E+00 g(S)=  0.000E+00 dE (1.order)= 0.000E+00
 bond charge predicted
       N       E                     dE             d eps       ncg     rms          rms(c)
DAV:   1    -0.181720895833E+03   -0.16180E-01   -0.16027E+00  2784   0.252E+00    0.353E-01
RMM:   2    -0.181727436718E+03   -0.65409E-02   -0.45764E-02  2788   0.348E-01    0.693E-01
RMM:   3    -0.181740124394E+03   -0.12688E-01   -0.39587E-03  2789   0.108E-01    0.161E+00
RMM:   4    -0.181725148213E+03    0.14976E-01   -0.35097E-03  2770   0.117E-01    0.518E-01
RMM:   5    -0.181724593828E+03    0.55438E-03   -0.18689E-03  2773   0.923E-02    0.282E-01
RMM:   6    -0.181724250967E+03    0.34286E-03   -0.69480E-04  2612   0.528E-02    0.144E-01
RMM:   7    -0.181724526926E+03   -0.27596E-03   -0.35585E-04  1887   0.378E-02    0.189E-01
RMM:   8    -0.181724426217E+03    0.10071E-03   -0.20716E-04  1569   0.323E-02    0.880E-02
RMM:   9    -0.181724424657E+03    0.15601E-05   -0.87391E-05  1459   0.206E-02
   6 F= -.18172442E+03 E0= -.18171927E+03  d E =-.197459E-01
quench:  g(F)=  0.000E+00 g(S)=  0.000E+00 dE (1.order)= 0.000E+00
 bond charge predicted
       N       E                     dE             d eps       ncg     rms          rms(c)
DAV:   1    -0.181740970926E+03   -0.16545E-01   -0.21196E+00  2772   0.289E+00    0.409E-01
RMM:   2    -0.181747413069E+03   -0.64421E-02   -0.61807E-02  2793   0.402E-01    0.534E-01
RMM:   3    -0.181765748489E+03   -0.18335E-01   -0.62788E-03  2797   0.141E-01    0.183E+00
RMM:   4    -0.181749531329E+03    0.16217E-01   -0.37842E-03  2778   0.115E-01    0.896E-01
RMM:   5    -0.181745877177E+03    0.36542E-02   -0.26577E-03  2775   0.112E-01    0.343E-01
RMM:   6    -0.181745379748E+03    0.49743E-03   -0.99702E-04  2730   0.642E-02    0.161E-01
RMM:   7    -0.181745742127E+03   -0.36238E-03   -0.52260E-04  2319   0.455E-02    0.181E-01
RMM:   8    -0.181745661293E+03    0.80833E-04   -0.27051E-04  1635   0.348E-02
   7 F= -.18174566E+03 E0= -.18174033E+03  d E =-.212366E-01
quench:  g(F)=  0.000E+00 g(S)=  0.000E+00 dE (1.order)= 0.000E+00
 bond charge predicted
       N       E                     dE             d eps       ncg     rms          rms(c)
DAV:   1    -0.181761633107E+03   -0.15891E-01   -0.26538E+00  2772   0.322E+00    0.460E-01
RMM:   2    -0.181776093694E+03   -0.14461E-01   -0.77003E-02  2797   0.452E-01    0.118E+00
RMM:   3    -0.181780616936E+03   -0.45232E-02   -0.54773E-03  2800   0.129E-01    0.155E+00
RMM:   4    -0.181769463418E+03    0.11154E-01   -0.64607E-03  2778   0.158E-01    0.715E-01
RMM:   5    -0.181767538457E+03    0.19250E-02   -0.29838E-03  2781   0.114E-01    0.357E-01
RMM:   6    -0.181767020405E+03    0.51805E-03   -0.12161E-03  2747   0.691E-02    0.181E-01
RMM:   7    -0.181767625429E+03   -0.60502E-03   -0.66438E-04  2572   0.499E-02    0.264E-01
RMM:   8    -0.181767271784E+03    0.35365E-03   -0.37056E-04  1900   0.401E-02    0.103E-01
RMM:   9    -0.181767290378E+03   -0.18595E-04   -0.16118E-04  1517   0.276E-02
   8 F= -.18176729E+03 E0= -.18176183E+03  d E =-.216291E-01
quench:  g(F)=  0.000E+00 g(S)=  0.000E+00 dE (1.order)= 0.000E+00
 bond charge predicted
       N       E                     dE             d eps       ncg     rms          rms(c)
DAV:   1    -0.181780968990E+03   -0.13697E-01   -0.30435E+00  2772   0.344E+00    0.502E-01
RMM:   2    -0.181792817609E+03   -0.11849E-01   -0.92754E-02  2792   0.492E-01    0.886E-01
RMM:   3    -0.181822104413E+03   -0.29287E-01   -0.83210E-03  2799   0.155E-01    0.239E+00
RMM:   4    -0.181790552112E+03    0.31552E-01   -0.74292E-03  2779   0.167E-01    0.832E-01
RMM:   5    -0.181788121305E+03    0.24308E-02   -0.39069E-03  2782   0.135E-01    0.404E-01
RMM:   6    -0.181787506639E+03    0.61467E-03   -0.15279E-03  2756   0.782E-02    0.234E-01
RMM:   7    -0.181787917465E+03   -0.41083E-03   -0.86014E-04  2724   0.578E-02    0.227E-01
RMM:   8    -0.181787742554E+03    0.17491E-03   -0.43471E-04  2125   0.419E-02    0.123E-01
RMM:   9    -0.181787756330E+03   -0.13776E-04   -0.20888E-04  1562   0.302E-02
   9 F= -.18178776E+03 E0= -.18178212E+03  d E =-.204660E-01
quench:  g(F)=  0.000E+00 g(S)=  0.000E+00 dE (1.order)= 0.000E+00
 bond charge predicted
       N       E                     dE             d eps       ncg     rms          rms(c)
DAV:   1    -0.181796102132E+03   -0.83596E-02   -0.26630E+00  2772   0.314E+00    0.463E-01
RMM:   2    -0.181808854467E+03   -0.12752E-01   -0.85821E-02  2799   0.467E-01    0.105E+00
RMM:   3    -0.181815753076E+03   -0.68986E-02   -0.55237E-03  2804   0.128E-01    0.158E+00
RMM:   4    -0.181803980626E+03    0.11772E-01   -0.62051E-03  2780   0.155E-01    0.736E-01
RMM:   5    -0.181801674351E+03    0.23063E-02   -0.32035E-03  2782   0.119E-01    0.344E-01
RMM:   6    -0.181801834660E+03   -0.16031E-03   -0.15660E-03  2769   0.782E-02    0.301E-01
RMM:   7    -0.181801817389E+03    0.17271E-04   -0.96987E-04  2745   0.610E-02
  10 F= -.18180182E+03 E0= -.18179613E+03  d E =-.140611E-01
quench:  g(F)=  0.000E+00 g(S)=  0.000E+00 dE (1.order)= 0.000E+00
 bond charge predicted
       N       E                     dE             d eps       ncg     rms          rms(c)
DAV:   1    -0.181807804910E+03   -0.59702E-02   -0.46235E-01  2832   0.119E+00    0.268E-01
RMM:   2    -0.181812034282E+03   -0.42294E-02   -0.24322E-02  2799   0.246E-01    0.624E-01
RMM:   3    -0.181815237910E+03   -0.32036E-02   -0.32449E-03  2782   0.105E-01    0.102E+00
RMM:   4    -0.181810566829E+03    0.46711E-02   -0.13873E-03  2744   0.702E-02    0.549E-01
RMM:   5    -0.181809170773E+03    0.13961E-02   -0.10578E-03  2749   0.686E-02    0.207E-01
RMM:   6    -0.181809115319E+03    0.55455E-04   -0.54550E-04  2369   0.461E-02
  11 F= -.18180912E+03 E0= -.18180317E+03  d E =-.729793E-02
quench:  g(F)=  0.000E+00 g(S)=  0.000E+00 dE (1.order)= 0.000E+00
 bond charge predicted
       N       E                     dE             d eps       ncg     rms          rms(c)
DAV:   1    -0.181814162234E+03   -0.49915E-02   -0.29073E-01  2772   0.108E+00    0.253E-01
RMM:   2    -0.181843708045E+03   -0.29546E-01   -0.16640E-02  2781   0.242E-01    0.208E+00
RMM:   3    -0.181823081122E+03    0.20627E-01   -0.47509E-03  2783   0.129E-01    0.122E+00
RMM:   4    -0.181814325880E+03    0.87552E-02   -0.33278E-03  2753   0.125E-01    0.253E-01
RMM:   5    -0.181814866987E+03   -0.54111E-03   -0.84158E-04  2698   0.612E-02    0.240E-01
RMM:   6    -0.181814525960E+03    0.34103E-03   -0.30723E-04  1736   0.365E-02    0.110E-01
RMM:   7    -0.181814532620E+03   -0.66595E-05   -0.13840E-04  1522   0.257E-02
  12 F= -.18181453E+03 E0= -.18180862E+03  d E =-.541730E-02
quench:  g(F)=  0.000E+00 g(S)=  0.000E+00 dE (1.order)= 0.000E+00
 bond charge predicted
       N       E                     dE             d eps       ncg     rms          rms(c)
DAV:   1    -0.181819765211E+03   -0.52393E-02   -0.43257E-01  2772   0.130E+00    0.196E-01
RMM:   2    -0.181822451447E+03   -0.26862E-02   -0.12908E-02  2803   0.188E-01    0.521E-01
RMM:   3    -0.181824303138E+03   -0.18517E-02   -0.11692E-03  2739   0.590E-02    0.793E-01
RMM:   4    -0.181820755142E+03    0.35480E-02   -0.11757E-03  2731   0.690E-02    0.277E-01
RMM:   5    -0.181820705298E+03    0.49844E-04   -0.56305E-04  2485   0.504E-02
  13 F= -.18182071E+03 E0= -.18181489E+03  d E =-.617268E-02
quench:  g(F)=  0.000E+00 g(S)=  0.000E+00 dE (1.order)= 0.000E+00
 bond charge predicted
       N       E                     dE             d eps       ncg     rms          rms(c)
DAV:   1    -0.181825878466E+03   -0.51233E-02   -0.58578E-01  2784   0.152E+00    0.255E-01
RMM:   2    -0.181830684177E+03   -0.48057E-02   -0.18593E-02  2795   0.234E-01    0.728E-01
RMM:   3    -0.181830616866E+03    0.67310E-04   -0.25185E-03  2797   0.944E-02    0.853E-01
RMM:   4    -0.181828260651E+03    0.23562E-02   -0.11664E-03  2711   0.664E-02    0.533E-01
RMM:   5    -0.181827110786E+03    0.11499E-02   -0.84588E-04  2686   0.627E-02    0.210E-01
RMM:   6    -0.181827020654E+03    0.90133E-04   -0.43732E-04  2135   0.437E-02
  14 F= -.18182702E+03 E0= -.18182104E+03  d E =-.631536E-02
quench:  g(F)=  0.000E+00 g(S)=  0.000E+00 dE (1.order)= 0.000E+00
 bond charge predicted
       N       E                     dE             d eps       ncg     rms          rms(c)
DAV:   1    -0.181832186104E+03   -0.50753E-02   -0.73533E-01  2772   0.170E+00    0.277E-01
RMM:   2    -0.181840174696E+03   -0.79886E-02   -0.23257E-02  2798   0.263E-01    0.994E-01
RMM:   3    -0.181839628850E+03    0.54585E-03   -0.25012E-03  2802   0.892E-02    0.104E+00
RMM:   4    -0.181833859417E+03    0.57694E-02   -0.25132E-03  2738   0.100E-01    0.391E-01
RMM:   5    -0.181833635834E+03    0.22358E-03   -0.79751E-04  2754   0.624E-02    0.165E-01
RMM:   6    -0.181833609228E+03    0.26606E-04   -0.34399E-04  1893   0.375E-02
  15 F= -.18183361E+03 E0= -.18182747E+03  d E =-.658857E-02
quench:  g(F)=  0.000E+00 g(S)=  0.000E+00 dE (1.order)= 0.000E+00
 bond charge predicted
       N       E                     dE             d eps       ncg     rms          rms(c)
DAV:   1    -0.181838471117E+03   -0.48353E-02   -0.85829E-01  2790   0.184E+00    0.315E-01
RMM:   2    -0.181849633957E+03   -0.11163E-01   -0.29388E-02  2791   0.298E-01    0.116E+00
RMM:   3    -0.181849531649E+03    0.10231E-03   -0.35229E-03  2804   0.106E-01    0.129E+00
RMM:   4    -0.181840687001E+03    0.88446E-02   -0.33810E-03  2759   0.117E-01    0.488E-01
RMM:   5    -0.181840426462E+03    0.26054E-03   -0.16022E-03  2766   0.836E-02    0.308E-01
RMM:   6    -0.181840118404E+03    0.30806E-03   -0.79002E-04  2717   0.568E-02    0.183E-01
RMM:   7    -0.181840128619E+03   -0.10215E-04   -0.36562E-04  1941   0.386E-02
  16 F= -.18184013E+03 E0= -.18183399E+03  d E =-.651939E-02
quench:  g(F)=  0.000E+00 g(S)=  0.000E+00 dE (1.order)= 0.000E+00
 bond charge predicted
       N       E                     dE             d eps       ncg     rms          rms(c)
DAV:   1    -0.181844231082E+03   -0.41127E-02   -0.92359E-01  2790   0.189E+00    0.297E-01
RMM:   2    -0.181848156501E+03   -0.39254E-02   -0.28995E-02  2801   0.289E-01    0.533E-01
RMM:   3    -0.181846253079E+03    0.19034E-02   -0.38104E-03  2785   0.117E-01    0.355E-01
RMM:   4    -0.181856994314E+03   -0.10741E-01   -0.16660E-03  2738   0.700E-02    0.133E+00
RMM:   5    -0.181845833666E+03    0.11161E-01   -0.13744E-03  2762   0.742E-02    0.309E-01
RMM:   6    -0.181845860366E+03   -0.26700E-04   -0.78953E-04  2722   0.625E-02
  17 F= -.18184586E+03 E0= -.18183966E+03  d E =-.573175E-02
quench:  g(F)=  0.000E+00 g(S)=  0.000E+00 dE (1.order)= 0.000E+00
 bond charge predicted
       N       E                     dE             d eps       ncg     rms          rms(c)
DAV:   1    -0.181847801099E+03   -0.19674E-02   -0.37904E-01  2808   0.110E+00    0.280E-01
RMM:   2    -0.181860304755E+03   -0.12504E-01   -0.22652E-02  2792   0.261E-01    0.127E+00
RMM:   3    -0.181860734112E+03   -0.42936E-03   -0.45290E-03  2784   0.126E-01    0.143E+00
RMM:   4    -0.181848900767E+03    0.11833E-01   -0.24734E-03  2754   0.104E-01    0.395E-01
RMM:   5    -0.181848835109E+03    0.65658E-04   -0.12225E-03  2762   0.755E-02    0.212E-01
RMM:   6    -0.181848709283E+03    0.12583E-03   -0.57084E-04  2446   0.471E-02    0.136E-01
RMM:   7    -0.181848838103E+03   -0.12882E-03   -0.34852E-04  1894   0.376E-02    0.153E-01
RMM:   8    -0.181848716707E+03    0.12140E-03   -0.18541E-04  1561   0.299E-02    0.754E-02
RMM:   9    -0.181848696784E+03    0.19923E-04   -0.73853E-05  1450   0.182E-02
  18 F= -.18184870E+03 E0= -.18184247E+03  d E =-.283642E-02
quench:  g(F)=  0.000E+00 g(S)=  0.000E+00 dE (1.order)= 0.000E+00
 bond charge predicted
       N       E                     dE             d eps       ncg     rms          rms(c)
DAV:   1    -0.181849409410E+03   -0.69270E-03   -0.91041E-03  2880   0.162E-01    0.521E-02
RMM:   2    -0.181852589217E+03   -0.31798E-02   -0.89255E-04  2544   0.527E-02    0.694E-01
RMM:   3    -0.181849374844E+03    0.32144E-02   -0.30117E-04  1789   0.353E-02    0.146E-01
RMM:   4    -0.181849428819E+03   -0.53975E-04   -0.16043E-04  1550   0.315E-02
  19 F= -.18184943E+03 E0= -.18184321E+03  d E =-.732035E-03
quench:  g(F)=  0.000E+00 g(S)=  0.000E+00 dE (1.order)= 0.000E+00
 bond charge predicted
       N       E                     dE             d eps       ncg     rms          rms(c)
DAV:   1    -0.181850389058E+03   -0.10142E-02   -0.29693E-02  2790   0.303E-01    0.704E-02
RMM:   2    -0.181851388478E+03   -0.99942E-03   -0.13967E-03  2429   0.628E-02    0.389E-01
RMM:   3    -0.181850734594E+03    0.65388E-03   -0.19578E-04  1567   0.281E-02    0.245E-01
RMM:   4    -0.181850429724E+03    0.30487E-03   -0.16337E-04  1567   0.294E-02    0.708E-02
RMM:   5    -0.181850453986E+03   -0.24262E-04   -0.81448E-05  1454   0.194E-02
  20 F= -.18185045E+03 E0= -.18184418E+03  d E =-.102517E-02
quench:  g(F)=  0.000E+00 g(S)=  0.000E+00 dE (1.order)= 0.000E+00
 bond charge predicted
       N       E                     dE             d eps       ncg     rms          rms(c)
DAV:   1    -0.181851407873E+03   -0.97815E-03   -0.40786E-02  2772   0.396E-01    0.759E-02
RMM:   2    -0.181852968320E+03   -0.15604E-02   -0.16022E-03  2668   0.710E-02    0.476E-01
RMM:   3    -0.181851911909E+03    0.10564E-02   -0.27322E-04  1693   0.319E-02    0.304E-01
RMM:   4    -0.181851409429E+03    0.50248E-03   -0.20231E-04  1574   0.329E-02    0.850E-02
RMM:   5    -0.181851486570E+03   -0.77141E-04   -0.86163E-05  1501   0.208E-02
  21 F= -.18185149E+03 E0= -.18184521E+03  d E =-.103258E-02
quench:  g(F)=  0.000E+00 g(S)=  0.000E+00 dE (1.order)= 0.000E+00
 bond charge predicted
       N       E                     dE             d eps       ncg     rms          rms(c)
DAV:   1    -0.181852529333E+03   -0.11199E-02   -0.56253E-02  2808   0.470E-01    0.807E-02
RMM:   2    -0.181853190801E+03   -0.66147E-03   -0.17799E-03  2567   0.732E-02    0.277E-01
RMM:   3    -0.181853074737E+03    0.11606E-03   -0.17876E-04  1567   0.255E-02    0.295E-01
RMM:   4    -0.181852645984E+03    0.42875E-03   -0.19572E-04  1576   0.300E-02    0.113E-01
RMM:   5    -0.181852679403E+03   -0.33419E-04   -0.95175E-05  1518   0.226E-02
  22 F= -.18185268E+03 E0= -.18184632E+03  d E =-.119283E-02
quench:  g(F)=  0.000E+00 g(S)=  0.000E+00 dE (1.order)= 0.000E+00
 bond charge predicted
       N       E                     dE             d eps       ncg     rms          rms(c)
DAV:   1    -0.181853764873E+03   -0.11189E-02   -0.80491E-02  2772   0.560E-01    0.990E-02
RMM:   2    -0.181854250836E+03   -0.48596E-03   -0.25932E-03  2726   0.874E-02    0.212E-01
RMM:   3    -0.181854828633E+03   -0.57780E-03   -0.36065E-04  1889   0.361E-02    0.393E-01
RMM:   4    -0.181853984288E+03    0.84435E-03   -0.16110E-04  1561   0.264E-02    0.166E-01
RMM:   5    -0.181853977157E+03    0.71304E-05   -0.15288E-04  1552   0.280E-02
  23 F= -.18185398E+03 E0= -.18184763E+03  d E =-.129775E-02
quench:  g(F)=  0.000E+00 g(S)=  0.000E+00 dE (1.order)= 0.000E+00
 bond charge predicted
       N       E                     dE             d eps       ncg     rms          rms(c)
DAV:   1    -0.181855065697E+03   -0.10814E-02   -0.10786E-01  2784   0.649E-01    0.114E-01
RMM:   2    -0.181855699082E+03   -0.63339E-03   -0.34102E-03  2786   0.101E-01    0.257E-01
RMM:   3    -0.181856351265E+03   -0.65218E-03   -0.48775E-04  2164   0.423E-02    0.437E-01
RMM:   4    -0.181855312181E+03    0.10391E-02   -0.22342E-04  1609   0.314E-02    0.174E-01
RMM:   5    -0.181855359757E+03   -0.47576E-04   -0.18441E-04  1560   0.308E-02
  24 F= -.18185536E+03 E0= -.18184894E+03  d E =-.138260E-02
quench:  g(F)=  0.000E+00 g(S)=  0.000E+00 dE (1.order)= 0.000E+00
 bond charge predicted
       N       E                     dE             d eps       ncg     rms          rms(c)
DAV:   1    -0.181856426687E+03   -0.11145E-02   -0.13444E-01  2868   0.723E-01    0.131E-01
RMM:   2    -0.181857386146E+03   -0.95946E-03   -0.44448E-03  2791   0.116E-01    0.312E-01
RMM:   3    -0.181858667459E+03   -0.12813E-02   -0.66029E-04  2493   0.466E-02    0.579E-01
RMM:   4    -0.181856687574E+03    0.19799E-02   -0.33035E-04  1836   0.374E-02    0.193E-01
RMM:   5    -0.181856781477E+03   -0.93904E-04   -0.28152E-04  1686   0.375E-02
  25 F= -.18185678E+03 E0= -.18185037E+03  d E =-.142172E-02
quench:  g(F)=  0.000E+00 g(S)=  0.000E+00 dE (1.order)= 0.000E+00
 bond charge predicted
       N       E                     dE             d eps       ncg     rms          rms(c)
DAV:   1    -0.181857877076E+03   -0.11895E-02   -0.16292E-01  2784   0.797E-01    0.144E-01
RMM:   2    -0.181858926662E+03   -0.10496E-02   -0.53333E-03  2801   0.128E-01    0.321E-01
RMM:   3    -0.181858209318E+03    0.71734E-03   -0.89428E-04  2750   0.580E-02    0.181E-01
RMM:   4    -0.181860543207E+03   -0.23339E-02   -0.36404E-04  1948   0.347E-02    0.614E-01
RMM:   5    -0.181858275303E+03    0.22679E-02   -0.33975E-04  1878   0.382E-02    0.187E-01
RMM:   6    -0.181858190889E+03    0.84414E-04   -0.19983E-04  1574   0.335E-02
  26 F= -.18185819E+03 E0= -.18185190E+03  d E =-.140941E-02
quench:  g(F)=  0.000E+00 g(S)=  0.000E+00 dE (1.order)= 0.000E+00
 bond charge predicted
       N       E                     dE             d eps       ncg     rms          rms(c)
DAV:   1    -0.181859298448E+03   -0.10231E-02   -0.17078E-01  2850   0.799E-01    0.141E-01
RMM:   2    -0.181860815233E+03   -0.15168E-02   -0.56324E-03  2792   0.125E-01    0.427E-01
RMM:   3    -0.181861034004E+03   -0.21877E-03   -0.56811E-04  2317   0.426E-02    0.509E-01
RMM:   4    -0.181859861332E+03    0.11727E-02   -0.58450E-04  2435   0.485E-02    0.240E-01
RMM:   5    -0.181859648596E+03    0.21274E-03   -0.29154E-04  1656   0.374E-02    0.114E-01
RMM:   6    -0.181859635404E+03    0.13193E-04   -0.14946E-04  1531   0.275E-02
  27 F= -.18185964E+03 E0= -.18185326E+03  d E =-.144451E-02
quench:  g(F)=  0.000E+00 g(S)=  0.000E+00 dE (1.order)= 0.000E+00
 bond charge predicted
       N       E                     dE             d eps       ncg     rms          rms(c)
DAV:   1    -0.181860241595E+03   -0.59300E-03   -0.12476E-01  2832   0.664E-01    0.124E-01
RMM:   2    -0.181861360280E+03   -0.11187E-02   -0.47590E-03  2799   0.121E-01    0.340E-01
RMM:   3    -0.181862228435E+03   -0.86816E-03   -0.71187E-04  2648   0.484E-02    0.541E-01
RMM:   4    -0.181860552524E+03    0.16759E-02   -0.35337E-04  1897   0.378E-02    0.210E-01
RMM:   5    -0.181860510872E+03    0.41652E-04   -0.25719E-04  1605   0.366E-02
  28 F= -.18186051E+03 E0= -.18185404E+03  d E =-.875468E-03
quench:  g(F)=  0.000E+00 g(S)=  0.000E+00 dE (1.order)= 0.000E+00
 bond charge predicted
       N       E                     dE             d eps       ncg     rms          rms(c)
DAV:   1    -0.181860797202E+03   -0.24468E-03   -0.91168E-03  2922   0.184E-01    0.101E-01
RMM:   2    -0.181863439000E+03   -0.26418E-02   -0.20778E-03  2772   0.895E-02    0.603E-01
RMM:   3    -0.181862235821E+03    0.12032E-02   -0.10089E-03  2707   0.613E-02    0.527E-01
RMM:   4    -0.181860679770E+03    0.15561E-02   -0.22188E-04  1628   0.346E-02    0.605E-02
RMM:   5    -0.181860820067E+03   -0.14030E-03   -0.91082E-05  1524   0.229E-02    0.563E-02
RMM:   6    -0.181860814839E+03    0.52285E-05   -0.30239E-05  1402   0.118E-02
  29 F= -.18186081E+03 E0= -.18185444E+03  d E =-.303967E-03
quench:  g(F)=  0.000E+00 g(S)=  0.000E+00 dE (1.order)= 0.000E+00
 bond charge predicted
       N       E                     dE             d eps       ncg     rms          rms(c)
DAV:   1    -0.181861052760E+03   -0.23269E-03   -0.13083E-02  2772   0.214E-01    0.482E-02
RMM:   2    -0.181862095241E+03   -0.10425E-02   -0.60263E-04  1864   0.421E-02    0.400E-01
RMM:   3    -0.181861095249E+03    0.99999E-03   -0.12665E-04  1546   0.245E-02    0.113E-01
RMM:   4    -0.181861107814E+03   -0.12565E-04   -0.81591E-05  1523   0.215E-02
  30 F= -.18186111E+03 E0= -.18185469E+03  d E =-.292976E-03
quench:  g(F)=  0.000E+00 g(S)=  0.000E+00 dE (1.order)= 0.000E+00
 bond charge predicted
       N       E                     dE             d eps       ncg     rms          rms(c)
DAV:   1    -0.181861271723E+03   -0.17647E-03   -0.16588E-02  2802   0.254E-01    0.561E-02
RMM:   2    -0.181862288938E+03   -0.10172E-02   -0.69344E-04  2272   0.500E-02    0.395E-01
RMM:   3    -0.181861574045E+03    0.71489E-03   -0.18036E-04  1558   0.278E-02    0.239E-01
RMM:   4    -0.181861262612E+03    0.31143E-03   -0.12241E-04  1542   0.260E-02    0.520E-02
RMM:   5    -0.181861315112E+03   -0.52500E-04   -0.54797E-05  1465   0.157E-02
  31 F= -.18186132E+03 E0= -.18185492E+03  d E =-.207298E-03
quench:  g(F)=  0.000E+00 g(S)=  0.000E+00 dE (1.order)= 0.000E+00
 bond charge predicted
       N       E                     dE             d eps       ncg     rms          rms(c)
DAV:   1    -0.181861430846E+03   -0.16823E-03   -0.22970E-02  2784   0.297E-01    0.548E-02
RMM:   2    -0.181861588649E+03   -0.15780E-03   -0.69225E-04  1927   0.480E-02    0.129E-01
RMM:   3    -0.181861678260E+03   -0.89611E-04   -0.13653E-04  1505   0.252E-02
  32 F= -.18186168E+03 E0= -.18185541E+03  d E =-.363148E-03
quench:  g(F)=  0.000E+00 g(S)=  0.000E+00 dE (1.order)= 0.000E+00
 bond charge predicted
       N       E                     dE             d eps       ncg     rms          rms(c)
DAV:   1    -0.181861477471E+03    0.11118E-03   -0.30817E-02  2772   0.353E-01    0.101E-01
RMM:   2    -0.181876560441E+03   -0.15083E-01   -0.25657E-03  2782   0.949E-02    0.154E+00
RMM:   3    -0.181861176892E+03    0.15384E-01   -0.14436E-03  2719   0.758E-02    0.258E-01
RMM:   4    -0.181861510377E+03   -0.33349E-03   -0.49249E-04  2155   0.572E-02    0.717E-02
RMM:   5    -0.181861622959E+03   -0.11258E-03   -0.98841E-05  1517   0.207E-02    0.112E-01
RMM:   6    -0.181861532294E+03    0.90665E-04   -0.54381E-05  1466   0.170E-02
  33 F= -.18186153E+03 E0= -.18185517E+03  d E =0.145966E-03
quench:  g(F)=  0.000E+00 g(S)=  0.000E+00 dE (1.order)= 0.000E+00
 bond charge predicted
       N       E                     dE             d eps       ncg     rms          rms(c)
DAV:   1    -0.181861486518E+03    0.13644E-03   -0.37496E-02  2796   0.377E-01    0.722E-02
RMM:   2    -0.181862335633E+03   -0.84911E-03   -0.12407E-03  2537   0.632E-02    0.350E-01
RMM:   3    -0.181862072830E+03    0.26280E-03   -0.21454E-04  1596   0.292E-02    0.314E-01
RMM:   4    -0.181861513458E+03    0.55937E-03   -0.16840E-04  1572   0.294E-02    0.715E-02
RMM:   5    -0.181861596557E+03   -0.83099E-04   -0.77338E-05  1485   0.193E-02
  34 F= -.18186160E+03 E0= -.18185528E+03  d E =-.642631E-04
quench:  g(F)=  0.000E+00 g(S)=  0.000E+00 dE (1.order)= 0.000E+00
 bond charge predicted
       N       E                     dE             d eps       ncg     rms          rms(c)
DAV:   1    -0.181861388773E+03    0.12469E-03   -0.47265E-02  2772   0.426E-01    0.770E-02
RMM:   2    -0.181863028111E+03   -0.16393E-02   -0.14291E-03  2474   0.651E-02    0.487E-01
RMM:   3    -0.181861500559E+03    0.15276E-02   -0.21305E-04  1575   0.300E-02    0.167E-01
RMM:   4    -0.181861524146E+03   -0.23588E-04   -0.18199E-04  1572   0.310E-02
  35 F= -.18186152E+03 E0= -.18185505E+03  d E =0.724108E-04
quench:  g(F)=  0.000E+00 g(S)=  0.000E+00 dE (1.order)= 0.000E+00
 bond charge predicted
       N       E                     dE             d eps       ncg     rms          rms(c)
DAV:   1    -0.181861286293E+03    0.21427E-03   -0.57226E-02  2772   0.469E-01    0.105E-01
RMM:   2    -0.181862400247E+03   -0.11140E-02   -0.22293E-03  2773   0.872E-02    0.374E-01
RMM:   3    -0.181861799077E+03    0.60117E-03   -0.58037E-04  2427   0.469E-02    0.317E-01
RMM:   4    -0.181861451978E+03    0.34710E-03   -0.13598E-04  1555   0.255E-02    0.168E-01
RMM:   5    -0.181861416216E+03    0.35762E-04   -0.15570E-04  1538   0.269E-02
  36 F= -.18186142E+03 E0= -.18185505E+03  d E =0.107931E-03
quench:  g(F)=  0.000E+00 g(S)=  0.000E+00 dE (1.order)= 0.000E+00
 bond charge predicted
       N       E                     dE             d eps       ncg     rms          rms(c)
DAV:   1    -0.181861181879E+03    0.27010E-03   -0.68643E-02  2772   0.515E-01    0.952E-02
RMM:   2    -0.181861593220E+03   -0.41134E-03   -0.20364E-03  2706   0.795E-02    0.198E-01
RMM:   3    -0.181862269892E+03   -0.67667E-03   -0.33688E-04  1809   0.347E-02    0.403E-01
RMM:   4    -0.181861324872E+03    0.94502E-03   -0.17313E-04  1560   0.273E-02    0.150E-01
RMM:   5    -0.181861339550E+03   -0.14678E-04   -0.13229E-04  1547   0.268E-02
  37 F= -.18186134E+03 E0= -.18185490E+03  d E =0.766658E-04
quench:  g(F)=  0.000E+00 g(S)=  0.000E+00 dE (1.order)= 0.000E+00
 bond charge predicted
       N       E                     dE             d eps       ncg     rms          rms(c)
DAV:   1    -0.181861213100E+03    0.11177E-03   -0.71167E-02  2772   0.512E-01    0.109E-01
RMM:   2    -0.181862352378E+03   -0.11393E-02   -0.26801E-03  2755   0.910E-02    0.382E-01
RMM:   3    -0.181862648300E+03   -0.29592E-03   -0.51530E-04  2234   0.423E-02    0.490E-01
RMM:   4    -0.181861296983E+03    0.13513E-02   -0.25405E-04  1678   0.341E-02    0.149E-01
RMM:   5    -0.181861358688E+03   -0.61705E-04   -0.17467E-04  1573   0.301E-02
  38 F= -.18186136E+03 E0= -.18185499E+03  d E =-.191377E-04
quench:  g(F)=  0.000E+00 g(S)=  0.000E+00 dE (1.order)= 0.000E+00
 bond charge predicted
       N       E                     dE             d eps       ncg     rms          rms(c)
DAV:   1    -0.181861282776E+03    0.14206E-04   -0.58971E-02  2772   0.468E-01    0.917E-02
RMM:   2    -0.181862163076E+03   -0.88030E-03   -0.21309E-03  2759   0.834E-02    0.314E-01
RMM:   3    -0.181862437785E+03   -0.27471E-03   -0.33270E-04  1829   0.335E-02    0.431E-01
RMM:   4    -0.181861321415E+03    0.11164E-02   -0.24169E-04  1636   0.334E-02    0.102E-01
RMM:   5    -0.181861496164E+03   -0.17475E-03   -0.13826E-04  1543   0.272E-02    0.121E-01
RMM:   6    -0.181861402743E+03    0.93421E-04   -0.68083E-05  1463   0.190E-02
  39 F= -.18186140E+03 E0= -.18185505E+03  d E =-.440556E-04
quench:  g(F)=  0.000E+00 g(S)=  0.000E+00 dE (1.order)= 0.000E+00
 bond charge predicted
       N       E                     dE             d eps       ncg     rms          rms(c)
DAV:   1    -0.181861501656E+03   -0.54917E-05   -0.39493E-03  2862   0.109E-01    0.485E-02
RMM:   2    -0.181861882056E+03   -0.38040E-03   -0.51129E-04  2077   0.446E-02    0.221E-01
RMM:   3    -0.181861931914E+03   -0.49859E-04   -0.19055E-04  1548   0.288E-02
  40 F= -.18186193E+03 E0= -.18185573E+03  d E =-.529171E-03
quench:  g(F)=  0.000E+00 g(S)=  0.000E+00 dE (1.order)= 0.000E+00
 bond charge predicted
       N       E                     dE             d eps       ncg     rms          rms(c)
DAV:   1    -0.181861446810E+03    0.43525E-03   -0.62138E-03  2772   0.179E-01    0.543E-02
RMM:   2    -0.181864211923E+03   -0.27651E-02   -0.61985E-04  2425   0.517E-02    0.656E-01
RMM:   3    -0.181861484408E+03    0.27275E-02   -0.29717E-04  1772   0.351E-02    0.191E-01
RMM:   4    -0.181861472196E+03    0.12213E-04   -0.14340E-04  1555   0.305E-02
  41 F= -.18186147E+03 E0= -.18185505E+03  d E =0.459719E-03
quench:  g(F)=  0.000E+00 g(S)=  0.000E+00 dE (1.order)= 0.000E+00
 bond charge predicted
       N       E                     dE             d eps       ncg     rms          rms(c)
DAV:   1    -0.181861410018E+03    0.74390E-04   -0.63098E-03  2772   0.160E-01    0.516E-02
RMM:   2    -0.181861772751E+03   -0.36273E-03   -0.48818E-04  2152   0.452E-02    0.218E-01
RMM:   3    -0.181861366134E+03    0.40662E-03   -0.20272E-04  1545   0.310E-02    0.509E-02
RMM:   4    -0.181861414999E+03   -0.48865E-04   -0.46815E-05  1451   0.148E-02
  42 F= -.18186141E+03 E0= -.18185505E+03  d E =0.571972E-04
quench:  g(F)=  0.000E+00 g(S)=  0.000E+00 dE (1.order)= 0.000E+00
 bond charge predicted
       N       E                     dE             d eps       ncg     rms          rms(c)
DAV:   1    -0.181861278759E+03    0.87375E-04   -0.90700E-03  2772   0.192E-01    0.997E-02
RMM:   2    -0.181893916915E+03   -0.32638E-01   -0.33392E-03  2763   0.975E-02    0.226E+00
RMM:   3    -0.181860189761E+03    0.33727E-01   -0.27162E-03  2736   0.104E-01    0.134E-01
RMM:   4    -0.181861288304E+03   -0.10985E-02   -0.52914E-04  2145   0.665E-02    0.103E-01
RMM:   5    -0.181861256041E+03    0.32263E-04   -0.64571E-05  1501   0.175E-02
  43 F= -.18186126E+03 E0= -.18185499E+03  d E =0.158958E-03
quench:  g(F)=  0.000E+00 g(S)=  0.000E+00 dE (1.order)= 0.000E+00
 bond charge predicted
       N       E                     dE             d eps       ncg     rms          rms(c)
DAV:   1    -0.181860968713E+03    0.31959E-03   -0.12478E-02  2796   0.223E-01    0.563E-02
RMM:   2    -0.181865415202E+03   -0.44465E-02   -0.84473E-04  2590   0.509E-02    0.840E-01
RMM:   3    -0.181860723389E+03    0.46918E-02   -0.41530E-04  2047   0.430E-02    0.115E-01
RMM:   4    -0.181860997999E+03   -0.27461E-03   -0.16381E-04  1582   0.341E-02    0.472E-02
RMM:   5    -0.181861014628E+03   -0.16629E-04   -0.33955E-05  1427   0.124E-02
  44 F= -.18186101E+03 E0= -.18185463E+03  d E =0.241413E-03
quench:  g(F)=  0.000E+00 g(S)=  0.000E+00 dE (1.order)= 0.000E+00
 bond charge predicted
       N       E                     dE             d eps       ncg     rms          rms(c)
DAV:   1    -0.181860662125E+03    0.33587E-03   -0.16358E-02  2772   0.252E-01    0.490E-02
RMM:   2    -0.181860950608E+03   -0.28848E-03   -0.49693E-04  1768   0.398E-02    0.199E-01
RMM:   3    -0.181860880794E+03    0.69814E-04   -0.83488E-05  1481   0.188E-02
  45 F= -.18186088E+03 E0= -.18185460E+03  d E =0.133834E-03
quench:  g(F)=  0.000E+00 g(S)=  0.000E+00 dE (1.order)= 0.000E+00
 bond charge predicted
       N       E                     dE             d eps       ncg     rms          rms(c)
DAV:   1    -0.181860208734E+03    0.74187E-03   -0.21589E-02  2772   0.304E-01    0.810E-02
RMM:   2    -0.181862505795E+03   -0.22971E-02   -0.12493E-03  2747   0.708E-02    0.583E-01
RMM:   3    -0.181861137118E+03    0.13687E-02   -0.44788E-04  2132   0.404E-02    0.422E-01
RMM:   4    -0.181860174898E+03    0.96222E-03   -0.27065E-04  1704   0.382E-02    0.557E-02
RMM:   5    -0.181860302028E+03   -0.12713E-03   -0.95963E-05  1506   0.215E-02    0.892E-02
RMM:   6    -0.181860258512E+03    0.43515E-04   -0.40328E-05  1431   0.148E-02
  46 F= -.18186026E+03 E0= -.18185392E+03  d E =0.622281E-03
quench:  g(F)=  0.000E+00 g(S)=  0.000E+00 dE (1.order)= 0.000E+00
 bond charge predicted
       N       E                     dE             d eps       ncg     rms          rms(c)
DAV:   1    -0.181859849175E+03    0.45285E-03   -0.24544E-02  2772   0.306E-01    0.609E-02
RMM:   2    -0.181860099784E+03   -0.25061E-03   -0.82756E-04  2126   0.522E-02    0.177E-01
RMM:   3    -0.181859905196E+03    0.19459E-03   -0.18634E-04  1556   0.297E-02    0.983E-02
RMM:   4    -0.181860034153E+03   -0.12896E-03   -0.50243E-05  1477   0.140E-02    0.172E-01
RMM:   5    -0.181859881747E+03    0.15241E-03   -0.42385E-05  1453   0.144E-02    0.567E-02
RMM:   6    -0.181859875092E+03    0.66548E-05   -0.22987E-05  1423   0.113E-02
  47 F= -.18185988E+03 E0= -.18185352E+03  d E =0.383421E-03
quench:  g(F)=  0.000E+00 g(S)=  0.000E+00 dE (1.order)= 0.000E+00
 bond charge predicted
       N       E                     dE             d eps       ncg     rms          rms(c)
DAV:   1    -0.181859486983E+03    0.39476E-03   -0.30452E-02  2772   0.340E-01    0.667E-02
RMM:   2    -0.181859942463E+03   -0.45548E-03   -0.10458E-03  2391   0.578E-02    0.241E-01
RMM:   3    -0.181860019850E+03   -0.77387E-04   -0.21065E-04  1567   0.296E-02
  48 F= -.18186002E+03 E0= -.18185346E+03  d E =-.144758E-03
quench:  g(F)=  0.000E+00 g(S)=  0.000E+00 dE (1.order)= 0.000E+00
 bond charge predicted
       N       E                     dE             d eps       ncg     rms          rms(c)
DAV:   1    -0.181859146892E+03    0.79557E-03   -0.35096E-02  2772   0.388E-01    0.110E-01
RMM:   2    -0.181873661489E+03   -0.14515E-01   -0.28142E-03  2775   0.103E-01    0.152E+00
RMM:   3    -0.181859184112E+03    0.14477E-01   -0.14974E-03  2717   0.759E-02    0.357E-01
RMM:   4    -0.181859107580E+03    0.76532E-04   -0.55193E-04  2274   0.593E-02
  49 F= -.18185911E+03 E0= -.18185286E+03  d E =0.912270E-03
quench:  g(F)=  0.000E+00 g(S)=  0.000E+00 dE (1.order)= 0.000E+00
 bond charge predicted
       N       E                     dE             d eps       ncg     rms          rms(c)
DAV:   1    -0.181858991497E+03    0.19262E-03   -0.31574E-02  2772   0.352E-01    0.116E-01
RMM:   2    -0.181863810422E+03   -0.48189E-02   -0.28123E-03  2786   0.102E-01    0.834E-01
RMM:   3    -0.181861655727E+03    0.21547E-02   -0.10232E-03  2699   0.577E-02    0.679E-01
RMM:   4    -0.181858775103E+03    0.28806E-02   -0.70848E-04  2643   0.570E-02    0.677E-02
RMM:   5    -0.181859066582E+03   -0.29148E-03   -0.13473E-04  1552   0.281E-02    0.100E-01
RMM:   6    -0.181859017508E+03    0.49074E-04   -0.55149E-05  1432   0.168E-02
  50 F= -.18185902E+03 E0= -.18185267E+03  d E =0.900714E-04
quench:  g(F)=  0.000E+00 g(S)=  0.000E+00 dE (1.order)= 0.000E+00
 bond charge predicted
       N       E                     dE             d eps       ncg     rms          rms(c)
DAV:   1    -0.181858861465E+03    0.20512E-03   -0.15984E-02  2772   0.225E-01    0.576E-02
RMM:   2    -0.181859300721E+03   -0.43926E-03   -0.79155E-04  1969   0.483E-02    0.246E-01
RMM:   3    -0.181859215049E+03    0.85672E-04   -0.13130E-04  1536   0.235E-02
  51 F= -.18185922E+03 E0= -.18185269E+03  d E =-.197541E-03
quench:  g(F)=  0.000E+00 g(S)=  0.000E+00 dE (1.order)= 0.000E+00
 bond charge predicted
       N       E                     dE             d eps       ncg     rms          rms(c)
DAV:   1    -0.181858852129E+03    0.44859E-03   -0.34071E-03  2772   0.151E-01    0.766E-02
RMM:   2    -0.181862963969E+03   -0.41118E-02   -0.11562E-03  2720   0.674E-02    0.796E-01
RMM:   3    -0.181859779193E+03    0.31848E-02   -0.65706E-04  2480   0.490E-02    0.454E-01
RMM:   4    -0.181858708313E+03    0.10709E-02   -0.34457E-04  1902   0.436E-02    0.339E-02
RMM:   5    -0.181858862347E+03   -0.15403E-03   -0.57980E-05  1520   0.188E-02    0.411E-02
RMM:   6    -0.181858864088E+03   -0.17409E-05   -0.16732E-05  1417   0.892E-03
  52 F= -.18185886E+03 E0= -.18185255E+03  d E =0.350961E-03
quench:  g(F)=  0.000E+00 g(S)=  0.000E+00 dE (1.order)= 0.000E+00
 bond charge predicted
       N       E                     dE             d eps       ncg     rms          rms(c)
DAV:   1    -0.181858738590E+03    0.12376E-03   -0.27110E-03  2772   0.103E-01    0.277E-02
RMM:   2    -0.181858833967E+03   -0.95377E-04   -0.13931E-04  1480   0.244E-02
  53 F= -.18185883E+03 E0= -.18185254E+03  d E =0.301210E-04
quench:  g(F)=  0.000E+00 g(S)=  0.000E+00 dE (1.order)= 0.000E+00
 bond charge predicted
       N       E                     dE             d eps       ncg     rms          rms(c)
DAV:   1    -0.181858639579E+03    0.99012E-04   -0.45025E-03  2784   0.157E-01    0.156E-01
RMM:   2    -0.181948846393E+03   -0.90207E-01   -0.86878E-03  2766   0.152E-01    0.373E+00
RMM:   3    -0.181857043450E+03    0.91803E-01   -0.74248E-03  2759   0.169E-01    0.206E-01
RMM:   4    -0.181858578614E+03   -0.15352E-02   -0.14143E-03  2749   0.105E-01    0.131E-01
RMM:   5    -0.181858530094E+03    0.48520E-04   -0.12578E-04  1556   0.241E-02
  54 F= -.18185853E+03 E0= -.18185223E+03  d E =0.303873E-03
quench:  g(F)=  0.000E+00 g(S)=  0.000E+00 dE (1.order)= 0.000E+00
 bond charge predicted
       N       E                     dE             d eps       ncg     rms          rms(c)
DAV:   1    -0.181858226346E+03    0.35227E-03   -0.60784E-03  2823   0.165E-01    0.710E-02
RMM:   2    -0.181869328566E+03   -0.11102E-01   -0.14797E-03  2733   0.665E-02    0.133E+00
RMM:   3    -0.181857858025E+03    0.11471E-01   -0.99006E-04  2670   0.638E-02    0.209E-01
RMM:   4    -0.181858181791E+03   -0.32377E-03   -0.29476E-04  1792   0.457E-02    0.444E-02
RMM:   5    -0.181858262912E+03   -0.81120E-04   -0.50606E-05  1491   0.160E-02
  55 F= -.18185826E+03 E0= -.18185199E+03  d E =0.267182E-03
quench:  g(F)=  0.000E+00 g(S)=  0.000E+00 dE (1.order)= 0.000E+00
 bond charge predicted
       N       E                     dE             d eps       ncg     rms          rms(c)
DAV:   1    -0.181857877589E+03    0.30420E-03   -0.85424E-03  2790   0.186E-01    0.346E-02
RMM:   2    -0.181857982045E+03   -0.10446E-03   -0.23954E-04  1569   0.278E-02    0.115E-01
RMM:   3    -0.181857964700E+03    0.17346E-04   -0.35399E-05  1461   0.122E-02
  56 F= -.18185796E+03 E0= -.18185177E+03  d E =0.298212E-03
quench:  g(F)=  0.000E+00 g(S)=  0.000E+00 dE (1.order)= 0.000E+00
 bond charge predicted
       N       E                     dE             d eps       ncg     rms          rms(c)
DAV:   1    -0.181857412604E+03    0.56944E-03   -0.11435E-02  2772   0.219E-01    0.596E-02
RMM:   2    -0.181857910537E+03   -0.49793E-03   -0.68375E-04  2438   0.516E-02    0.246E-01
RMM:   3    -0.181858000724E+03   -0.90186E-04   -0.22086E-04  1566   0.295E-02
  57 F= -.18185800E+03 E0= -.18185196E+03  d E =-.360243E-04
quench:  g(F)=  0.000E+00 g(S)=  0.000E+00 dE (1.order)= 0.000E+00
 bond charge predicted
       N       E                     dE             d eps       ncg     rms          rms(c)
DAV:   1    -0.181856855571E+03    0.10550E-02   -0.15693E-02  2784   0.281E-01    0.747E-02
RMM:   2    -0.181864439207E+03   -0.75836E-02   -0.12629E-03  2741   0.719E-02    0.109E+00
RMM:   3    -0.181856579752E+03    0.78595E-02   -0.72692E-04  2551   0.535E-02    0.166E-01
RMM:   4    -0.181856953626E+03   -0.37387E-03   -0.22142E-04  1639   0.402E-02    0.665E-02
RMM:   5    -0.181856994539E+03   -0.40914E-04   -0.51144E-05  1466   0.155E-02
  58 F= -.18185699E+03 E0= -.18185082E+03  d E =0.100618E-02
quench:  g(F)=  0.000E+00 g(S)=  0.000E+00 dE (1.order)= 0.000E+00
 bond charge predicted
       N       E                     dE             d eps       ncg     rms          rms(c)
DAV:   1    -0.181856514757E+03    0.43887E-03   -0.16173E-02  2814   0.255E-01    0.544E-02
RMM:   2    -0.181857944661E+03   -0.14299E-02   -0.61575E-04  1979   0.449E-02    0.468E-01
RMM:   3    -0.181856535148E+03    0.14095E-02   -0.16797E-04  1553   0.282E-02    0.136E-01
RMM:   4    -0.181856543023E+03   -0.78751E-05   -0.10684E-04  1544   0.249E-02
  59 F= -.18185654E+03 E0= -.18185027E+03  d E =0.451516E-03
quench:  g(F)=  0.000E+00 g(S)=  0.000E+00 dE (1.order)= 0.000E+00
 bond charge predicted
       N       E                     dE             d eps       ncg     rms          rms(c)
DAV:   1    -0.181856078827E+03    0.45632E-03   -0.19551E-02  2772   0.279E-01    0.713E-02
RMM:   2    -0.181856864399E+03   -0.78557E-03   -0.98488E-04  2641   0.597E-02    0.314E-01
RMM:   3    -0.181856309309E+03    0.55509E-03   -0.33405E-04  1844   0.370E-02    0.232E-01
RMM:   4    -0.181856087819E+03    0.22149E-03   -0.76559E-05  1531   0.197E-02    0.847E-02
RMM:   5    -0.181856112398E+03   -0.24580E-04   -0.62354E-05  1467   0.172E-02
  60 F= -.18185611E+03 E0= -.18184989E+03  d E =0.430625E-03
quench:  g(F)=  0.000E+00 g(S)=  0.000E+00 dE (1.order)= 0.000E+00
 bond charge predicted
       N       E                     dE             d eps       ncg     rms          rms(c)
DAV:   1    -0.181855645618E+03    0.44220E-03   -0.21581E-02  2772   0.290E-01    0.628E-02
RMM:   2    -0.181855895288E+03   -0.24967E-03   -0.79714E-04  2154   0.519E-02    0.177E-01
RMM:   3    -0.181855729478E+03    0.16581E-03   -0.19695E-04  1560   0.303E-02    0.111E-01
RMM:   4    -0.181855856759E+03   -0.12728E-03   -0.53070E-05  1477   0.142E-02    0.179E-01
RMM:   5    -0.181855672091E+03    0.18467E-03   -0.52353E-05  1468   0.159E-02    0.553E-02
RMM:   6    -0.181855686384E+03   -0.14293E-04   -0.30094E-05  1427   0.126E-02
  61 F= -.18185569E+03 E0= -.18184952E+03  d E =0.426014E-03
quench:  g(F)=  0.000E+00 g(S)=  0.000E+00 dE (1.order)= 0.000E+00
 bond charge predicted
       N       E                     dE             d eps       ncg     rms          rms(c)
DAV:   1    -0.181855227942E+03    0.44415E-03   -0.24416E-02  2772   0.306E-01    0.546E-02
RMM:   2    -0.181855358024E+03   -0.13008E-03   -0.66528E-04  1862   0.453E-02    0.115E-01
RMM:   3    -0.181855396117E+03   -0.38093E-04   -0.11294E-04  1508   0.230E-02
  62 F= -.18185540E+03 E0= -.18184925E+03  d E =0.290268E-03
quench:  g(F)=  0.000E+00 g(S)=  0.000E+00 dE (1.order)= 0.000E+00
 bond charge predicted
       N       E                     dE             d eps       ncg     rms          rms(c)
DAV:   1    -0.181854930342E+03    0.42768E-03   -0.13914E-02  2784   0.236E-01    0.140E-01
RMM:   2    -0.181905757308E+03   -0.50827E-01   -0.58076E-03  2772   0.133E-01    0.281E+00
RMM:   3    -0.181854198007E+03    0.51559E-01   -0.44686E-03  2754   0.131E-01    0.342E-01
RMM:   4    -0.181854832720E+03   -0.63471E-03   -0.10682E-03  2723   0.881E-02    0.836E-02
RMM:   5    -0.181854984178E+03   -0.15146E-03   -0.12952E-04  1550   0.250E-02    0.113E-01
RMM:   6    -0.181854895978E+03    0.88200E-04   -0.66824E-05  1483   0.190E-02
  63 F= -.18185490E+03 E0= -.18184874E+03  d E =0.500138E-03
quench:  g(F)=  0.000E+00 g(S)=  0.000E+00 dE (1.order)= 0.000E+00
 bond charge predicted
       N       E                     dE             d eps       ncg     rms          rms(c)
DAV:   1    -0.181854834459E+03    0.14972E-03   -0.18485E-03  2868   0.846E-02    0.398E-02
RMM:   2    -0.181855119695E+03   -0.28524E-03   -0.28771E-04  1685   0.354E-02    0.189E-01
RMM:   3    -0.181855044674E+03    0.75022E-04   -0.15014E-04  1523   0.270E-02
  64 F= -.18185504E+03 E0= -.18184874E+03  d E =-.148695E-03
quench:  g(F)=  0.000E+00 g(S)=  0.000E+00 dE (1.order)= 0.000E+00
 bond charge predicted
       N       E                     dE             d eps       ncg     rms          rms(c)
DAV:   1    -0.181854635665E+03    0.48403E-03   -0.30176E-03  2772   0.130E-01    0.380E-02
RMM:   2    -0.181856055194E+03   -0.14195E-02   -0.29615E-04  1699   0.371E-02    0.471E-01
RMM:   3    -0.181854676704E+03    0.13785E-02   -0.16434E-04  1554   0.280E-02    0.154E-01
RMM:   4    -0.181854625138E+03    0.51565E-04   -0.73005E-05  1520   0.216E-02
  65 F= -.18185463E+03 E0= -.18184848E+03  d E =0.419536E-03
quench:  g(F)=  0.000E+00 g(S)=  0.000E+00 dE (1.order)= 0.000E+00
 bond charge predicted
       N       E                     dE             d eps       ncg     rms          rms(c)
DAV:   1    -0.181854344464E+03    0.33224E-03   -0.35706E-03  2790   0.122E-01    0.334E-02
RMM:   2    -0.181854440245E+03   -0.95781E-04   -0.19886E-04  1550   0.292E-02
  66 F= -.18185444E+03 E0= -.18184829E+03  d E =0.184893E-03
quench:  g(F)=  0.000E+00 g(S)=  0.000E+00 dE (1.order)= 0.000E+00
 bond charge predicted
       N       E                     dE             d eps       ncg     rms          rms(c)
DAV:   1    -0.181854008530E+03    0.33593E-03   -0.55013E-03  2844   0.169E-01    0.113E-01
RMM:   2    -0.181901041042E+03   -0.47033E-01   -0.46135E-03  2769   0.112E-01    0.271E+00
RMM:   3    -0.181852745775E+03    0.48295E-01   -0.38169E-03  2739   0.122E-01    0.173E-01
RMM:   4    -0.181854002212E+03   -0.12564E-02   -0.76680E-04  2563   0.779E-02    0.119E-01
RMM:   5    -0.181853977654E+03    0.24557E-04   -0.83017E-05  1526   0.205E-02
  67 F= -.18185398E+03 E0= -.18184781E+03  d E =0.462591E-03
quench:  g(F)=  0.000E+00 g(S)=  0.000E+00 dE (1.order)= 0.000E+00
 bond charge predicted
       N       E                     dE             d eps       ncg     rms          rms(c)
DAV:   1    -0.181853551614E+03    0.45060E-03   -0.71148E-03  2790   0.174E-01    0.496E-02
RMM:   2    -0.181857199169E+03   -0.36476E-02   -0.63925E-04  2430   0.455E-02    0.755E-01
RMM:   3    -0.181853421122E+03    0.37780E-02   -0.34148E-04  1885   0.383E-02    0.133E-01
RMM:   4    -0.181853554598E+03   -0.13348E-03   -0.13230E-04  1562   0.300E-02    0.329E-02
RMM:   5    -0.181853563647E+03   -0.90493E-05   -0.23468E-05  1413   0.102E-02
  68 F= -.18185356E+03 E0= -.18184742E+03  d E =0.414007E-03
quench:  g(F)=  0.000E+00 g(S)=  0.000E+00 dE (1.order)= 0.000E+00
 bond charge predicted
       N       E                     dE             d eps       ncg     rms          rms(c)
DAV:   1    -0.181853105650E+03    0.44895E-03   -0.88627E-03  2772   0.188E-01    0.373E-02
RMM:   2    -0.181853445618E+03   -0.33997E-03   -0.29642E-04  1635   0.314E-02    0.220E-01
RMM:   3    -0.181853160557E+03    0.28506E-03   -0.61009E-05  1478   0.166E-02    0.114E-01
RMM:   4    -0.181853113915E+03    0.46642E-04   -0.42797E-05  1477   0.149E-02
  69 F= -.18185311E+03 E0= -.18184703E+03  d E =0.449732E-03
quench:  g(F)=  0.000E+00 g(S)=  0.000E+00 dE (1.order)= 0.000E+00
 bond charge predicted
       N       E                     dE             d eps       ncg     rms          rms(c)
DAV:   1    -0.181852608473E+03    0.55208E-03   -0.11338E-02  2808   0.215E-01    0.529E-02
RMM:   2    -0.181853024898E+03   -0.41642E-03   -0.55404E-04  2091   0.457E-02    0.233E-01
RMM:   3    -0.181853033812E+03   -0.89139E-05   -0.18058E-04  1546   0.282E-02
  70 F= -.18185303E+03 E0= -.18184675E+03  d E =0.801026E-04
quench:  g(F)=  0.000E+00 g(S)=  0.000E+00 dE (1.order)= 0.000E+00
 bond charge predicted
       N       E                     dE             d eps       ncg     rms          rms(c)
DAV:   1    -0.181852138360E+03    0.88654E-03   -0.12430E-02  2862   0.244E-01    0.661E-02
RMM:   2    -0.181855893510E+03   -0.37551E-02   -0.95167E-04  2698   0.637E-02    0.744E-01
RMM:   3    -0.181852351993E+03    0.35415E-02   -0.42660E-04  2086   0.409E-02    0.266E-01
RMM:   4    -0.181852136186E+03    0.21581E-03   -0.19869E-04  1591   0.353E-02    0.414E-02
RMM:   5    -0.181852221777E+03   -0.85591E-04   -0.50061E-05  1463   0.164E-02
  71 F= -.18185222E+03 E0= -.18184610E+03  d E =0.812035E-03
quench:  g(F)=  0.000E+00 g(S)=  0.000E+00 dE (1.order)= 0.000E+00
 bond charge predicted
       N       E                     dE             d eps       ncg     rms          rms(c)
DAV:   1    -0.181851770403E+03    0.36578E-03   -0.11894E-02  2772   0.216E-01    0.456E-02
RMM:   2    -0.181852319738E+03   -0.54933E-03   -0.41433E-04  1741   0.387E-02    0.294E-01
RMM:   3    -0.181851900306E+03    0.41943E-03   -0.10764E-04  1516   0.224E-02    0.167E-01
RMM:   4    -0.181851783871E+03    0.11644E-03   -0.74374E-05  1505   0.201E-02    0.375E-02
RMM:   5    -0.181851810752E+03   -0.26881E-04   -0.25301E-05  1407   0.111E-02
  72 F= -.18185181E+03 E0= -.18184569E+03  d E =0.411025E-03
quench:  g(F)=  0.000E+00 g(S)=  0.000E+00 dE (1.order)= 0.000E+00
 bond charge predicted
       N       E                     dE             d eps       ncg     rms          rms(c)
DAV:   1    -0.181851370036E+03    0.41384E-03   -0.98341E-03  2772   0.191E-01    0.416E-02
RMM:   2    -0.181851519647E+03   -0.14961E-03   -0.37817E-04  1695   0.343E-02    0.140E-01
RMM:   3    -0.181851555558E+03   -0.35910E-04   -0.68998E-05  1479   0.179E-02
  73 F= -.18185156E+03 E0= -.18184556E+03  d E =0.255194E-03
quench:  g(F)=  0.000E+00 g(S)=  0.000E+00 dE (1.order)= 0.000E+00
 bond charge predicted
       N       E                     dE             d eps       ncg     rms          rms(c)
DAV:   1    -0.181851155678E+03    0.36397E-03   -0.54877E-03  2862   0.165E-01    0.792E-02
RMM:   2    -0.181865016731E+03   -0.13861E-01   -0.18032E-03  2761   0.775E-02    0.146E+00
RMM:   3    -0.181851016683E+03    0.14000E-01   -0.13047E-03  2690   0.713E-02    0.271E-01
RMM:   4    -0.181851092797E+03   -0.76114E-04   -0.36015E-04  1915   0.515E-02
  74 F= -.18185109E+03 E0= -.18184505E+03  d E =0.462761E-03
quench:  g(F)=  0.000E+00 g(S)=  0.000E+00 dE (1.order)= 0.000E+00
 bond charge predicted
       N       E                     dE             d eps       ncg     rms          rms(c)
DAV:   1    -0.181851036582E+03   -0.19900E-04   -0.12603E-03  2844   0.750E-02    0.430E-02
RMM:   2    -0.181851639632E+03   -0.60305E-03   -0.36684E-04  1889   0.388E-02    0.279E-01
RMM:   3    -0.181851492955E+03    0.14668E-03   -0.14732E-04  1540   0.244E-02    0.281E-01
RMM:   4    -0.181850987368E+03    0.50559E-03   -0.96619E-05  1533   0.221E-02    0.274E-02
RMM:   5    -0.181851037773E+03   -0.50405E-04   -0.24692E-05  1443   0.122E-02
  75 F= -.18185104E+03 E0= -.18184501E+03  d E =0.550237E-04
quench:  g(F)=  0.000E+00 g(S)=  0.000E+00 dE (1.order)= 0.000E+00
 bond charge predicted
       N       E                     dE             d eps       ncg     rms          rms(c)
DAV:   1    -0.181850856108E+03    0.13126E-03   -0.17415E-03  2772   0.848E-02    0.224E-02
RMM:   2    -0.181850914085E+03   -0.57977E-04   -0.82510E-05  1453   0.189E-02
  76 F= -.18185091E+03 E0= -.18184494E+03  d E =0.123688E-03
quench:  g(F)=  0.000E+00 g(S)=  0.000E+00 dE (1.order)= 0.000E+00
 bond charge predicted
       N       E                     dE             d eps       ncg     rms          rms(c)
DAV:   1    -0.181850611005E+03    0.24510E-03   -0.26806E-03  2790   0.115E-01    0.342E-02
RMM:   2    -0.181852527059E+03   -0.19161E-02   -0.28036E-04  1678   0.328E-02    0.542E-01
RMM:   3    -0.181850527179E+03    0.19999E-02   -0.17771E-04  1557   0.299E-02    0.101E-01
RMM:   4    -0.181850611336E+03   -0.84157E-04   -0.65420E-05  1520   0.213E-02
  77 F= -.18185061E+03 E0= -.18184454E+03  d E =0.302749E-03
quench:  g(F)=  0.000E+00 g(S)=  0.000E+00 dE (1.order)= 0.000E+00
 bond charge predicted
       N       E                     dE             d eps       ncg     rms          rms(c)
DAV:   1    -0.181850393258E+03    0.13392E-03   -0.35400E-03  2772   0.120E-01    0.334E-02
RMM:   2    -0.181850860017E+03   -0.46676E-03   -0.21493E-04  1554   0.300E-02    0.262E-01
RMM:   3    -0.181850455956E+03    0.40406E-03   -0.73322E-05  1488   0.184E-02    0.125E-01
RMM:   4    -0.181850382743E+03    0.73213E-04   -0.50705E-05  1475   0.164E-02
  78 F= -.18185038E+03 E0= -.18184437E+03  d E =0.228592E-03
quench:  g(F)=  0.000E+00 g(S)=  0.000E+00 dE (1.order)= 0.000E+00
 bond charge predicted
       N       E                     dE             d eps       ncg     rms          rms(c)
DAV:   1    -0.181850114683E+03    0.34127E-03   -0.45504E-03  2808   0.136E-01    0.365E-02
RMM:   2    -0.181850315366E+03   -0.20068E-03   -0.22628E-04  1585   0.313E-02    0.159E-01
RMM:   3    -0.181850103464E+03    0.21190E-03   -0.98130E-05  1503   0.231E-02    0.605E-02
RMM:   4    -0.181850153721E+03   -0.50257E-04   -0.16765E-05  1407   0.937E-03
  79 F= -.18185015E+03 E0= -.18184413E+03  d E =0.229023E-03
quench:  g(F)=  0.000E+00 g(S)=  0.000E+00 dE (1.order)= 0.000E+00
 bond charge predicted
       N       E                     dE             d eps       ncg     rms          rms(c)
DAV:   1    -0.181849833251E+03    0.27021E-03   -0.56699E-03  2772   0.152E-01    0.380E-02
RMM:   2    -0.181850061056E+03   -0.22781E-03   -0.25040E-04  1592   0.329E-02    0.181E-01
RMM:   3    -0.181850073125E+03   -0.12069E-04   -0.78717E-05  1480   0.189E-02
  80 F= -.18185007E+03 E0= -.18184388E+03  d E =0.805955E-04
quench:  g(F)=  0.000E+00 g(S)=  0.000E+00 dE (1.order)= 0.000E+00
 bond charge predicted
       N       E                     dE             d eps       ncg     rms          rms(c)
DAV:   1    -0.181849607419E+03    0.45364E-03   -0.61229E-03  2772   0.170E-01    0.439E-02
RMM:   2    -0.181849944671E+03   -0.33725E-03   -0.33516E-04  1710   0.396E-02    0.207E-01
RMM:   3    -0.181849673925E+03    0.27075E-03   -0.13408E-04  1522   0.263E-02    0.136E-01
RMM:   4    -0.181849635156E+03    0.38769E-04   -0.32279E-05  1462   0.128E-02
  81 F= -.18184964E+03 E0= -.18184367E+03  d E =0.437969E-03
quench:  g(F)=  0.000E+00 g(S)=  0.000E+00 dE (1.order)= 0.000E+00
 bond charge predicted
       N       E                     dE             d eps       ncg     rms          rms(c)
DAV:   1    -0.181849419716E+03    0.25421E-03   -0.46593E-03  2772   0.139E-01    0.473E-02
RMM:   2    -0.181849766031E+03   -0.34632E-03   -0.40314E-04  1937   0.413E-02    0.217E-01
RMM:   3    -0.181849773610E+03   -0.75793E-05   -0.17988E-04  1547   0.291E-02
  82 F= -.18184977E+03 E0= -.18184359E+03  d E =-.138454E-03
quench:  g(F)=  0.000E+00 g(S)=  0.000E+00 dE (1.order)= 0.000E+00
 bond charge predicted
       N       E                     dE             d eps       ncg     rms          rms(c)
DAV:   1    -0.181849261888E+03    0.50414E-03   -0.38318E-03  2772   0.148E-01    0.374E-02
RMM:   2    -0.181849623722E+03   -0.36183E-03   -0.24165E-04  1575   0.367E-02    0.218E-01
RMM:   3    -0.181849526475E+03    0.97247E-04   -0.93405E-05  1503   0.210E-02
  83 F= -.18184953E+03 E0= -.18184372E+03  d E =0.247135E-03
quench:  g(F)=  0.000E+00 g(S)=  0.000E+00 dE (1.order)= 0.000E+00
 bond charge predicted
       N       E                     dE             d eps       ncg     rms          rms(c)
DAV:   1    -0.181849186094E+03    0.43763E-03   -0.13140E-03  2772   0.980E-02    0.317E-02
RMM:   2    -0.181849587959E+03   -0.40186E-03   -0.17337E-04  1529   0.287E-02    0.231E-01
RMM:   3    -0.181849319707E+03    0.26825E-03   -0.71377E-05  1500   0.185E-02    0.158E-01
RMM:   4    -0.181849202551E+03    0.11716E-03   -0.41488E-05  1484   0.148E-02    0.445E-02
RMM:   5    -0.181849222287E+03   -0.19736E-04   -0.15383E-05  1413   0.934E-03
  84 F= -.18184922E+03 E0= -.18184321E+03  d E =0.304188E-03
quench:  g(F)=  0.000E+00 g(S)=  0.000E+00 dE (1.order)= 0.000E+00
 bond charge predicted
       N       E                     dE             d eps       ncg     rms          rms(c)
DAV:   1    -0.181849126459E+03    0.76091E-04   -0.79622E-04  2628   0.581E-02    0.154E-02
RMM:   2    -0.181849143075E+03   -0.16616E-04   -0.35399E-05  1391   0.131E-02
  85 F= -.18184914E+03 E0= -.18184313E+03  d E =0.792119E-04
quench:  g(F)=  0.000E+00 g(S)=  0.000E+00 dE (1.order)= 0.000E+00
 bond charge predicted
       N       E                     dE             d eps       ncg     rms          rms(c)
DAV:   1    -0.181848986138E+03    0.14032E-03   -0.12391E-03  2784   0.757E-02    0.278E-02
RMM:   2    -0.181850913245E+03   -0.19271E-02   -0.20511E-04  1598   0.267E-02    0.553E-01
RMM:   3    -0.181848829459E+03    0.20838E-02   -0.16345E-04  1557   0.290E-02    0.530E-02
RMM:   4    -0.181848979216E+03   -0.14976E-03   -0.49804E-05  1514   0.196E-02    0.210E-02
RMM:   5    -0.181848981744E+03   -0.25281E-05   -0.43435E-06   862   0.569E-03
  86 F= -.18184898E+03 E0= -.18184297E+03  d E =0.161331E-03
quench:  g(F)=  0.000E+00 g(S)=  0.000E+00 dE (1.order)= 0.000E+00
 bond charge predicted
       N       E                     dE             d eps       ncg     rms          rms(c)
DAV:   1    -0.181848828635E+03    0.15058E-03   -0.16533E-03  2784   0.809E-02    0.181E-02
RMM:   2    -0.181849229697E+03   -0.40106E-03   -0.77232E-05  1490   0.165E-02    0.253E-01
RMM:   3    -0.181848795131E+03    0.43457E-03   -0.38166E-05  1463   0.141E-02    0.314E-02
RMM:   4    -0.181848820769E+03   -0.25638E-04   -0.14489E-05  1429   0.990E-03
  87 F= -.18184882E+03 E0= -.18184284E+03  d E =0.160975E-03
quench:  g(F)=  0.000E+00 g(S)=  0.000E+00 dE (1.order)= 0.000E+00
 bond charge predicted
       N       E                     dE             d eps       ncg     rms          rms(c)
DAV:   1    -0.181848633201E+03    0.16193E-03   -0.22091E-03  2790   0.936E-02    0.240E-02
RMM:   2    -0.181848734905E+03   -0.10170E-03   -0.10605E-04  1491   0.211E-02    0.114E-01
RMM:   3    -0.181848693167E+03    0.41737E-04   -0.44728E-05  1453   0.151E-02
  88 F= -.18184869E+03 E0= -.18184278E+03  d E =0.127602E-03
quench:  g(F)=  0.000E+00 g(S)=  0.000E+00 dE (1.order)= 0.000E+00
 bond charge predicted
       N       E                     dE             d eps       ncg     rms          rms(c)
DAV:   1    -0.181848427360E+03    0.30754E-03   -0.28504E-03  2772   0.114E-01    0.334E-02
RMM:   2    -0.181850235383E+03   -0.18080E-02   -0.24965E-04  1643   0.326E-02    0.534E-01
RMM:   3    -0.181848326799E+03    0.19086E-02   -0.16742E-04  1556   0.290E-02    0.828E-02
RMM:   4    -0.181848438053E+03   -0.11125E-03   -0.55434E-05  1517   0.199E-02    0.281E-02
RMM:   5    -0.181848439907E+03   -0.18536E-05   -0.10259E-05  1359   0.740E-03
  89 F= -.18184844E+03 E0= -.18184245E+03  d E =0.253260E-03
quench:  g(F)=  0.000E+00 g(S)=  0.000E+00 dE (1.order)= 0.000E+00
 bond charge predicted
       N       E                     dE             d eps       ncg     rms          rms(c)
DAV:   1    -0.181848280280E+03    0.15777E-03   -0.28334E-03  2784   0.105E-01    0.206E-02
RMM:   2    -0.181848518770E+03   -0.23849E-03   -0.87443E-05  1480   0.178E-02    0.193E-01
RMM:   3    -0.181848274563E+03    0.24421E-03   -0.28919E-05  1453   0.121E-02    0.405E-02
RMM:   4    -0.181848281280E+03   -0.67171E-05   -0.15426E-05  1421   0.958E-03
  90 F= -.18184828E+03 E0= -.18184231E+03  d E =0.158627E-03
quench:  g(F)=  0.000E+00 g(S)=  0.000E+00 dE (1.order)= 0.000E+00
 bond charge predicted
       N       E                     dE             d eps       ncg     rms          rms(c)
DAV:   1    -0.181848135374E+03    0.13919E-03   -0.31783E-03  2772   0.111E-01    0.274E-02
RMM:   2    -0.181848316107E+03   -0.18073E-03   -0.14122E-04  1513   0.242E-02    0.158E-01
RMM:   3    -0.181848256243E+03    0.59864E-04   -0.51279E-05  1461   0.156E-02
  91 F= -.18184826E+03 E0= -.18184223E+03  d E =0.250370E-04
quench:  g(F)=  0.000E+00 g(S)=  0.000E+00 dE (1.order)= 0.000E+00
 bond charge predicted
       N       E                     dE             d eps       ncg     rms          rms(c)
DAV:   1    -0.181848005331E+03    0.31078E-03   -0.34202E-03  2772   0.129E-01    0.329E-02
RMM:   2    -0.181848752263E+03   -0.74693E-03   -0.20379E-04  1557   0.320E-02    0.329E-01
RMM:   3    -0.181848088589E+03    0.66367E-03   -0.99182E-05  1517   0.222E-02    0.147E-01
RMM:   4    -0.181848007301E+03    0.81289E-04   -0.46261E-05  1499   0.171E-02
  92 F= -.18184801E+03 E0= -.18184202E+03  d E =0.248942E-03
quench:  g(F)=  0.000E+00 g(S)=  0.000E+00 dE (1.order)= 0.000E+00
 bond charge predicted
       N       E                     dE             d eps       ncg     rms          rms(c)
DAV:   1    -0.181847952037E+03    0.13655E-03   -0.18234E-03  2772   0.830E-02    0.301E-02
RMM:   2    -0.181848110064E+03   -0.15803E-03   -0.15650E-04  1505   0.259E-02    0.142E-01
RMM:   3    -0.181848154727E+03   -0.44662E-04   -0.60736E-05  1469   0.163E-02
  93 F= -.18184815E+03 E0= -.18184203E+03  d E =-.147426E-03
quench:  g(F)=  0.000E+00 g(S)=  0.000E+00 dE (1.order)= 0.000E+00
 bond charge predicted
       N       E                     dE             d eps       ncg     rms          rms(c)
DAV:   1    -0.181847892746E+03    0.21732E-03   -0.10247E-03  2463   0.903E-02    0.329E-02
RMM:   2    -0.181848901559E+03   -0.10088E-02   -0.19791E-04  1559   0.319E-02    0.399E-01
RMM:   3    -0.181847960050E+03    0.94151E-03   -0.12721E-04  1546   0.251E-02    0.146E-01
RMM:   4    -0.181847909200E+03    0.50850E-04   -0.57698E-05  1512   0.192E-02
  94 F= -.18184791E+03 E0= -.18184195E+03  d E =0.245527E-03
quench:  g(F)=  0.000E+00 g(S)=  0.000E+00 dE (1.order)= 0.000E+00
 bond charge predicted
       N       E                     dE             d eps       ncg     rms          rms(c)
DAV:   1    -0.181847907453E+03    0.52597E-04   -0.20135E-04  1851   0.348E-02    0.253E-02
RMM:   2    -0.181848314589E+03   -0.40714E-03   -0.12220E-04  1503   0.236E-02    0.244E-01
RMM:   3    -0.181847981879E+03    0.33271E-03   -0.56886E-05  1473   0.159E-02    0.129E-01
RMM:   4    -0.181847890724E+03    0.91156E-04   -0.37016E-05  1451   0.142E-02
  95 F= -.18184789E+03 E0= -.18184189E+03  d E =0.184764E-04
quench:  g(F)=  0.000E+00 g(S)=  0.000E+00 dE (1.order)= 0.000E+00
 bond charge predicted
       N       E                     dE             d eps       ncg     rms          rms(c)
DAV:   1    -0.181847872251E+03    0.10963E-03   -0.29853E-04  2223   0.373E-02    0.178E-02
RMM:   2    -0.181847997675E+03   -0.12542E-03   -0.53930E-05  1463   0.162E-02    0.128E-01
RMM:   3    -0.181847952364E+03    0.45311E-04   -0.30964E-05  1433   0.120E-02
  96 F= -.18184795E+03 E0= -.18184185E+03  d E =-.616404E-04
quench:  g(F)=  0.000E+00 g(S)=  0.000E+00 dE (1.order)= 0.000E+00
 bond charge predicted
       N       E                     dE             d eps       ncg     rms          rms(c)
DAV:   1    -0.181847857734E+03    0.13994E-03   -0.56027E-04  2250   0.614E-02    0.146E-02
RMM:   2    -0.181847891595E+03   -0.33861E-04   -0.41979E-05  1406   0.163E-02
  97 F= -.18184789E+03 E0= -.18184184E+03  d E =0.607688E-04
quench:  g(F)=  0.000E+00 g(S)=  0.000E+00 dE (1.order)= 0.000E+00
 bond charge predicted
       N       E                     dE             d eps       ncg     rms          rms(c)
DAV:   1    -0.181847905406E+03   -0.47672E-04   -0.44015E-04  2322   0.534E-02    0.292E-02
RMM:   2    -0.181850476200E+03   -0.25708E-02   -0.25692E-04  1698   0.296E-02    0.641E-01
RMM:   3    -0.181847704290E+03    0.27719E-02   -0.21852E-04  1602   0.331E-02    0.609E-02
RMM:   4    -0.181847897223E+03   -0.19293E-03   -0.63293E-05  1530   0.222E-02    0.219E-02
RMM:   5    -0.181847916666E+03   -0.19442E-04   -0.81186E-06  1240   0.673E-03
  98 F= -.18184792E+03 E0= -.18184192E+03  d E =-.250706E-04
quench:  g(F)=  0.000E+00 g(S)=  0.000E+00 dE (1.order)= 0.000E+00
 bond charge predicted
       N       E                     dE             d eps       ncg     rms          rms(c)
DAV:   1    -0.181847993839E+03   -0.96616E-04   -0.44254E-04  2520   0.444E-02    0.158E-02
RMM:   2    -0.181848532426E+03   -0.53859E-03   -0.68877E-05  1480   0.152E-02    0.293E-01
RMM:   3    -0.181847964413E+03    0.56801E-03   -0.47152E-05  1477   0.156E-02    0.373E-02
RMM:   4    -0.181847999086E+03   -0.34673E-04   -0.14648E-05  1432   0.104E-02
  99 F= -.18184800E+03 E0= -.18184200E+03  d E =-.824202E-04
quench:  g(F)=  0.000E+00 g(S)=  0.000E+00 dE (1.order)= 0.000E+00
 bond charge predicted
       N       E                     dE             d eps       ncg     rms          rms(c)
DAV:   1    -0.181848161997E+03   -0.19758E-03   -0.68056E-04  2700   0.535E-02    0.159E-02
RMM:   2    -0.181848194863E+03   -0.32866E-04   -0.48964E-05  1441   0.144E-02
 100 F= -.18184819E+03 E0= -.18184219E+03  d E =-.195777E-03
quench:  g(F)=  0.000E+00 g(S)=  0.000E+00 dE (1.order)= 0.000E+00
 bond charge predicted
       N       E                     dE             d eps       ncg     rms          rms(c)
DAV:   1    -0.181848435135E+03   -0.27314E-03   -0.12811E-03  2862   0.857E-02    0.747E-02
RMM:   2    -0.181869184664E+03   -0.20750E-01   -0.19967E-03  2726   0.734E-02    0.181E+00
RMM:   3    -0.181847469680E+03    0.21715E-01   -0.17262E-03  2713   0.834E-02    0.970E-02
RMM:   4    -0.181848407595E+03   -0.93791E-03   -0.30212E-04  1801   0.525E-02    0.682E-02
RMM:   5    -0.181848389299E+03    0.18296E-04   -0.32963E-05  1475   0.133E-02
 101 F= -.18184839E+03 E0= -.18184239E+03  d E =-.194436E-03
quench:  g(F)=  0.000E+00 g(S)=  0.000E+00 dE (1.order)= 0.000E+00
 bond charge predicted
       N       E                     dE             d eps       ncg     rms          rms(c)
DAV:   1    -0.181848732702E+03   -0.32511E-03   -0.20420E-03  2790   0.913E-02    0.265E-02
RMM:   2    -0.181849529595E+03   -0.79689E-03   -0.16606E-04  1553   0.241E-02    0.358E-01
RMM:   3    -0.181848720618E+03    0.80898E-03   -0.80088E-05  1510   0.202E-02    0.726E-02
RMM:   4    -0.181848748084E+03   -0.27466E-04   -0.35236E-05  1480   0.150E-02
 102 F= -.18184875E+03 E0= -.18184273E+03  d E =-.358786E-03
quench:  g(F)=  0.000E+00 g(S)=  0.000E+00 dE (1.order)= 0.000E+00
 bond charge predicted
       N       E                     dE             d eps       ncg     rms          rms(c)
DAV:   1    -0.181849214243E+03   -0.49362E-03   -0.35756E-03  2862   0.120E-01    0.326E-02
RMM:   2    -0.181849347609E+03   -0.13337E-03   -0.20655E-04  1565   0.283E-02    0.133E-01
RMM:   3    -0.181849208787E+03    0.13882E-03   -0.81286E-05  1483   0.207E-02    0.519E-02
RMM:   4    -0.181849241077E+03   -0.32290E-04   -0.12960E-05  1365   0.794E-03
 103 F= -.18184924E+03 E0= -.18184320E+03  d E =-.492992E-03
quench:  g(F)=  0.000E+00 g(S)=  0.000E+00 dE (1.order)= 0.000E+00
 bond charge predicted
       N       E                     dE             d eps       ncg     rms          rms(c)
DAV:   1    -0.181849823281E+03   -0.61449E-03   -0.62193E-03  2790   0.159E-01    0.428E-02
RMM:   2    -0.181850646820E+03   -0.82354E-03   -0.39434E-04  1765   0.384E-02    0.343E-01
RMM:   3    -0.181850034504E+03    0.61232E-03   -0.14234E-04  1542   0.251E-02    0.209E-01
RMM:   4    -0.181849810540E+03    0.22396E-03   -0.78914E-05  1533   0.213E-02    0.405E-02
RMM:   5    -0.181849833235E+03   -0.22695E-04   -0.28150E-05  1439   0.118E-02
 104 F= -.18184983E+03 E0= -.18184382E+03  d E =-.592158E-03
quench:  g(F)=  0.000E+00 g(S)=  0.000E+00 dE (1.order)= 0.000E+00
 bond charge predicted
       N       E                     dE             d eps       ncg     rms          rms(c)
DAV:   1    -0.181850590958E+03   -0.78042E-03   -0.10137E-02  2844   0.199E-01    0.435E-02
RMM:   2    -0.181851583832E+03   -0.99287E-03   -0.47087E-04  1766   0.380E-02    0.385E-01
RMM:   3    -0.181850610136E+03    0.97370E-03   -0.10796E-04  1525   0.225E-02    0.111E-01
RMM:   4    -0.181850605059E+03    0.50771E-05   -0.78526E-05  1518   0.204E-02
 105 F= -.18185061E+03 E0= -.18184453E+03  d E =-.771824E-03
quench:  g(F)=  0.000E+00 g(S)=  0.000E+00 dE (1.order)= 0.000E+00
 bond charge predicted
       N       E                     dE             d eps       ncg     rms          rms(c)
DAV:   1    -0.181851544731E+03   -0.93460E-03   -0.15967E-02  2790   0.250E-01    0.642E-02
RMM:   2    -0.181851948855E+03   -0.40412E-03   -0.88819E-04  2491   0.550E-02    0.220E-01
RMM:   3    -0.181851617149E+03    0.33171E-03   -0.24385E-04  1583   0.326E-02    0.142E-01
RMM:   4    -0.181851646242E+03   -0.29093E-04   -0.58709E-05  1507   0.167E-02
 106 F= -.18185165E+03 E0= -.18184555E+03  d E =-.104118E-02
quench:  g(F)=  0.000E+00 g(S)=  0.000E+00 dE (1.order)= 0.000E+00
 bond charge predicted
       N       E                     dE             d eps       ncg     rms          rms(c)
DAV:   1    -0.181852640532E+03   -0.10234E-02   -0.23535E-02  2844   0.308E-01    0.830E-02
RMM:   2    -0.181854224818E+03   -0.15843E-02   -0.14604E-03  2731   0.719E-02    0.475E-01
RMM:   3    -0.181853982519E+03    0.24230E-03   -0.44696E-04  2130   0.395E-02    0.481E-01
RMM:   4    -0.181852591699E+03    0.13908E-02   -0.26173E-04  1687   0.371E-02    0.792E-02
RMM:   5    -0.181852681488E+03   -0.89789E-04   -0.10349E-04  1503   0.227E-02
 107 F= -.18185268E+03 E0= -.18184662E+03  d E =-.103525E-02
quench:  g(F)=  0.000E+00 g(S)=  0.000E+00 dE (1.order)= 0.000E+00
 bond charge predicted
       N       E                     dE             d eps       ncg     rms          rms(c)
DAV:   1    -0.181853837679E+03   -0.12460E-02   -0.30475E-02  2826   0.347E-01    0.748E-02
RMM:   2    -0.181854182539E+03   -0.34486E-03   -0.12618E-03  2591   0.616E-02    0.189E-01
RMM:   3    -0.181854281801E+03   -0.99262E-04   -0.27138E-04  1662   0.326E-02
 108 F= -.18185428E+03 E0= -.18184823E+03  d E =-.160031E-02
quench:  g(F)=  0.000E+00 g(S)=  0.000E+00 dE (1.order)= 0.000E+00
 bond charge predicted
       N       E                     dE             d eps       ncg     rms          rms(c)
DAV:   1    -0.181855144551E+03   -0.96201E-03   -0.38136E-02  2844   0.405E-01    0.137E-01
RMM:   2    -0.181885546194E+03   -0.30402E-01   -0.50047E-03  2776   0.130E-01    0.218E+00
RMM:   3    -0.181855215948E+03    0.30330E-01   -0.28787E-03  2755   0.106E-01    0.422E-01
RMM:   4    -0.181855004060E+03    0.21189E-03   -0.97620E-04  2700   0.782E-02    0.104E-01
RMM:   5    -0.181855257063E+03   -0.25300E-03   -0.18632E-04  1579   0.301E-02    0.120E-01
RMM:   6    -0.181855175198E+03    0.81865E-04   -0.89409E-05  1497   0.218E-02
 109 F= -.18185518E+03 E0= -.18184899E+03  d E =-.893396E-03
quench:  g(F)=  0.000E+00 g(S)=  0.000E+00 dE (1.order)= 0.000E+00
 bond charge predicted
       N       E                     dE             d eps       ncg     rms          rms(c)
DAV:   1    -0.181856398123E+03   -0.11411E-02   -0.42080E-02  2826   0.410E-01    0.778E-02
RMM:   2    -0.181857064699E+03   -0.66658E-03   -0.15094E-03  2593   0.659E-02    0.294E-01
RMM:   3    -0.181857200052E+03   -0.13535E-03   -0.22910E-04  1607   0.286E-02    0.358E-01
RMM:   4    -0.181856448715E+03    0.75134E-03   -0.18457E-04  1584   0.300E-02    0.929E-02
RMM:   5    -0.181856504485E+03   -0.55770E-04   -0.88503E-05  1503   0.218E-02
 110 F= -.18185650E+03 E0= -.18185032E+03  d E =-.132929E-02
quench:  g(F)=  0.000E+00 g(S)=  0.000E+00 dE (1.order)= 0.000E+00
 bond charge predicted
       N       E                     dE             d eps       ncg     rms          rms(c)
DAV:   1    -0.181857617494E+03   -0.11688E-02   -0.44160E-02  2844   0.423E-01    0.822E-02
RMM:   2    -0.181858777508E+03   -0.11600E-02   -0.17806E-03  2699   0.737E-02    0.399E-01
RMM:   3    -0.181858204486E+03    0.57302E-03   -0.26627E-04  1679   0.324E-02    0.331E-01
RMM:   4    -0.181857700548E+03    0.50394E-03   -0.21800E-04  1589   0.323E-02    0.133E-01
RMM:   5    -0.181857710219E+03   -0.96711E-05   -0.11012E-04  1521   0.241E-02
 111 F= -.18185771E+03 E0= -.18185144E+03  d E =-.120573E-02
quench:  g(F)=  0.000E+00 g(S)=  0.000E+00 dE (1.order)= 0.000E+00
 bond charge predicted
       N       E                     dE             d eps       ncg     rms          rms(c)
DAV:   1    -0.181858416253E+03   -0.71570E-03   -0.28532E-02  2826   0.336E-01    0.711E-02
RMM:   2    -0.181858780050E+03   -0.36380E-03   -0.12767E-03  2508   0.627E-02    0.196E-01
RMM:   3    -0.181858649715E+03    0.13033E-03   -0.24077E-04  1589   0.319E-02    0.178E-01
RMM:   4    -0.181858546703E+03    0.10301E-03   -0.63608E-05  1505   0.163E-02    0.124E-01
RMM:   5    -0.181858523942E+03    0.22760E-04   -0.72253E-05  1487   0.183E-02
 112 F= -.18185852E+03 E0= -.18185227E+03  d E =-.813723E-03
quench:  g(F)=  0.000E+00 g(S)=  0.000E+00 dE (1.order)= 0.000E+00
 bond charge predicted
       N       E                     dE             d eps       ncg     rms          rms(c)
DAV:   1    -0.181858752931E+03   -0.20623E-03   -0.40110E-03  2898   0.128E-01    0.449E-02
RMM:   2    -0.181859101802E+03   -0.34887E-03   -0.42114E-04  1883   0.419E-02    0.214E-01
RMM:   3    -0.181858736597E+03    0.36520E-03   -0.17218E-04  1541   0.296E-02    0.632E-02
RMM:   4    -0.181858791503E+03   -0.54905E-04   -0.25215E-05  1454   0.113E-02
 113 F= -.18185879E+03 E0= -.18185239E+03  d E =-.267560E-03
quench:  g(F)=  0.000E+00 g(S)=  0.000E+00 dE (1.order)= 0.000E+00
 bond charge predicted
       N       E                     dE             d eps       ncg     rms          rms(c)
DAV:   1    -0.181859124661E+03   -0.38806E-03   -0.45950E-03  2790   0.143E-01    0.527E-02
RMM:   2    -0.181863846691E+03   -0.47220E-02   -0.69478E-04  2520   0.490E-02    0.870E-01
RMM:   3    -0.181858856628E+03    0.49901E-02   -0.47585E-04  2197   0.450E-02    0.150E-01
RMM:   4    -0.181859127199E+03   -0.27057E-03   -0.15644E-04  1583   0.344E-02    0.432E-02
RMM:   5    -0.181859144504E+03   -0.17304E-04   -0.31941E-05  1449   0.118E-02
 114 F= -.18185914E+03 E0= -.18185275E+03  d E =-.353001E-03
quench:  g(F)=  0.000E+00 g(S)=  0.000E+00 dE (1.order)= 0.000E+00
 bond charge predicted
       N       E                     dE             d eps       ncg     rms          rms(c)
DAV:   1    -0.181859571200E+03   -0.44400E-03   -0.68020E-03  2880   0.170E-01    0.349E-02
RMM:   2    -0.181859710003E+03   -0.13880E-03   -0.25466E-04  1585   0.307E-02    0.136E-01
RMM:   3    -0.181859799028E+03   -0.89024E-04   -0.65559E-05  1471   0.167E-02
 115 F= -.18185980E+03 E0= -.18185356E+03  d E =-.654524E-03
[...]
quench:  g(F)=  0.000E+00 g(S)=  0.000E+00 dE (1.order)= 0.000E+00
 bond charge predicted
       N       E                     dE             d eps       ncg     rms          rms(c)
DAV:   1    -0.181863869338E+03    0.48757E-03   -0.42636E-03  2862   0.144E-01    0.335E-02
RMM:   2    -0.181864112431E+03   -0.24309E-03   -0.21589E-04  1586   0.323E-02    0.174E-01
RMM:   3    -0.181864061921E+03    0.50511E-04   -0.78330E-05  1495   0.197E-02
 467 F= -.18186406E+03 E0= -.18185772E+03  d E =0.299942E-03
quench:  g(F)=  0.000E+00 g(S)=  0.000E+00 dE (1.order)= 0.000E+00
 bond charge predicted
       N       E                     dE             d eps       ncg     rms          rms(c)
DAV:   1    -0.181863477815E+03    0.63462E-03   -0.45281E-03  2790   0.151E-01    0.370E-02
RMM:   2    -0.181864036953E+03   -0.55914E-03   -0.23806E-04  1600   0.342E-02    0.295E-01
RMM:   3    -0.181863566982E+03    0.46997E-03   -0.88658E-05  1505   0.207E-02    0.139E-01
RMM:   4    -0.181863505292E+03    0.61689E-04   -0.44318E-05  1503   0.165E-02
 468 F= -.18186351E+03 E0= -.18185696E+03  d E =0.556628E-03
quench:  g(F)=  0.000E+00 g(S)=  0.000E+00 dE (1.order)= 0.000E+00
 bond charge predicted
       N       E                     dE             d eps       ncg     rms          rms(c)
DAV:   1    -0.181863161382E+03    0.40560E-03   -0.44520E-03  2880   0.139E-01    0.374E-02
RMM:   2    -0.181863298597E+03   -0.13721E-03   -0.25986E-04  1601   0.336E-02    0.132E-01
RMM:   3    -0.181863166881E+03    0.13172E-03   -0.10501E-04  1459   0.236E-02    0.492E-02
RMM:   4    -0.181863212087E+03   -0.45206E-04   -0.17161E-05  1399   0.853E-03
 469 F= -.18186321E+03 E0= -.18185668E+03  d E =0.293205E-03
quench:  g(F)=  0.000E+00 g(S)=  0.000E+00 dE (1.order)= 0.000E+00
 bond charge predicted
       N       E                     dE             d eps       ncg     rms          rms(c)
DAV:   1    -0.181862774296E+03    0.39259E-03   -0.56146E-03  2814   0.158E-01    0.415E-02
RMM:   2    -0.181864108321E+03   -0.13340E-02   -0.37149E-04  1830   0.388E-02    0.442E-01
RMM:   3    -0.181862835158E+03    0.12732E-02   -0.15880E-04  1554   0.274E-02    0.166E-01
RMM:   4    -0.181862755258E+03    0.79900E-04   -0.84006E-05  1526   0.224E-02
 470 F= -.18186276E+03 E0= -.18185626E+03  d E =0.456829E-03
quench:  g(F)=  0.000E+00 g(S)=  0.000E+00 dE (1.order)= 0.000E+00
 bond charge predicted
       N       E                     dE             d eps       ncg     rms          rms(c)
DAV:   1    -0.181862365019E+03    0.47014E-03   -0.67320E-03  2844   0.170E-01    0.425E-02
RMM:   2    -0.181862558585E+03   -0.19357E-03   -0.33738E-04  1700   0.377E-02    0.162E-01
RMM:   3    -0.181862683806E+03   -0.12522E-03   -0.10914E-04  1497   0.227E-02    0.234E-01
RMM:   4    -0.181862347075E+03    0.33673E-03   -0.48812E-05  1495   0.159E-02    0.433E-02
RMM:   5    -0.181862367727E+03   -0.20653E-04   -0.25687E-05  1420   0.117E-02
 471 F= -.18186237E+03 E0= -.18185588E+03  d E =0.387531E-03
quench:  g(F)=  0.000E+00 g(S)=  0.000E+00 dE (1.order)= 0.000E+00
 bond charge predicted
       N       E                     dE             d eps       ncg     rms          rms(c)
DAV:   1    -0.181861964898E+03    0.38218E-03   -0.74433E-03  2790   0.177E-01    0.435E-02
RMM:   2    -0.181863358465E+03   -0.13936E-02   -0.46728E-04  2038   0.413E-02    0.449E-01
RMM:   3    -0.181862016240E+03    0.13422E-02   -0.15546E-04  1552   0.259E-02    0.153E-01
RMM:   4    -0.181861955677E+03    0.60563E-04   -0.10024E-04  1536   0.236E-02
 472 F= -.18186196E+03 E0= -.18185554E+03  d E =0.412050E-03
quench:  g(F)=  0.000E+00 g(S)=  0.000E+00 dE (1.order)= 0.000E+00
 bond charge predicted
       N       E                     dE             d eps       ncg     rms          rms(c)
DAV:   1    -0.181861580755E+03    0.43548E-03   -0.75024E-03  2880   0.179E-01    0.519E-02
RMM:   2    -0.181862480998E+03   -0.90024E-03   -0.55659E-04  2238   0.467E-02    0.360E-01
RMM:   3    -0.181862076721E+03    0.40428E-03   -0.20438E-04  1571   0.291E-02    0.306E-01
RMM:   4    -0.181861530931E+03    0.54579E-03   -0.11891E-04  1542   0.254E-02    0.409E-02
RMM:   5    -0.181861600054E+03   -0.69123E-04   -0.44628E-05  1464   0.156E-02
 473 F= -.18186160E+03 E0= -.18185518E+03  d E =0.355624E-03
quench:  g(F)=  0.000E+00 g(S)=  0.000E+00 dE (1.order)= 0.000E+00
 bond charge predicted
       N       E                     dE             d eps       ncg     rms          rms(c)
DAV:   1    -0.181861353780E+03    0.17715E-03   -0.40533E-03  2790   0.126E-01    0.331E-02
RMM:   2    -0.181861464528E+03   -0.11075E-03   -0.23796E-04  1565   0.308E-02    0.114E-01
RMM:   3    -0.181861467949E+03   -0.34202E-05   -0.77694E-05  1461   0.197E-02
 474 F= -.18186147E+03 E0= -.18185513E+03  d E =0.132105E-03
quench:  g(F)=  0.000E+00 g(S)=  0.000E+00 dE (1.order)= 0.000E+00
 bond charge predicted
       N       E                     dE             d eps       ncg     rms          rms(c)
DAV:   1    -0.181861207874E+03    0.25665E-03   -0.14485E-03  2871   0.921E-02    0.381E-02
RMM:   2    -0.181863915952E+03   -0.27081E-02   -0.33802E-04  1832   0.368E-02    0.657E-01
RMM:   3    -0.181861048707E+03    0.28672E-02   -0.25695E-04  1674   0.349E-02    0.998E-02
RMM:   4    -0.181861219448E+03   -0.17074E-03   -0.82452E-05  1536   0.246E-02    0.292E-02
RMM:   5    -0.181861227359E+03   -0.79113E-05   -0.15498E-05  1412   0.829E-03
 475 F= -.18186123E+03 E0= -.18185483E+03  d E =0.240589E-03
quench:  g(F)=  0.000E+00 g(S)=  0.000E+00 dE (1.order)= 0.000E+00
 bond charge predicted
       N       E                     dE             d eps       ncg     rms          rms(c)
DAV:   1    -0.181861076734E+03    0.14271E-03   -0.10515E-03  2838   0.688E-02    0.153E-02
RMM:   2    -0.181861094915E+03   -0.18181E-04   -0.38164E-05  1404   0.134E-02
 476 F= -.18186109E+03 E0= -.18185474E+03  d E =0.132445E-03
quench:  g(F)=  0.000E+00 g(S)=  0.000E+00 dE (1.order)= 0.000E+00
 bond charge predicted
       N       E                     dE             d eps       ncg     rms          rms(c)
DAV:   1    -0.181860896410E+03    0.18032E-03   -0.15650E-03  2820   0.858E-02    0.204E-02
RMM:   2    -0.181860989092E+03   -0.92681E-04   -0.73076E-05  1458   0.185E-02
 477 F= -.18186099E+03 E0= -.18185473E+03  d E =0.105823E-03
quench:  g(F)=  0.000E+00 g(S)=  0.000E+00 dE (1.order)= 0.000E+00
 bond charge predicted
       N       E                     dE             d eps       ncg     rms          rms(c)
DAV:   1    -0.181860753745E+03    0.14267E-03   -0.22769E-03  2826   0.116E-01    0.108E-01
RMM:   2    -0.181903997790E+03   -0.43244E-01   -0.41916E-03  2747   0.106E-01    0.259E+00
RMM:   3    -0.181859683573E+03    0.44314E-01   -0.35747E-03  2744   0.119E-01    0.176E-01
RMM:   4    -0.181860727911E+03   -0.10443E-02   -0.68773E-04  2436   0.755E-02    0.103E-01
RMM:   5    -0.181860696969E+03    0.30941E-04   -0.60419E-05  1525   0.180E-02
 478 F= -.18186070E+03 E0= -.18185432E+03  d E =0.292122E-03
quench:  g(F)=  0.000E+00 g(S)=  0.000E+00 dE (1.order)= 0.000E+00
 bond charge predicted
       N       E                     dE             d eps       ncg     rms          rms(c)
DAV:   1    -0.181860523055E+03    0.20486E-03   -0.23939E-03  2862   0.105E-01    0.320E-02
RMM:   2    -0.181861720506E+03   -0.11975E-02   -0.22317E-04  1603   0.297E-02    0.439E-01
RMM:   3    -0.181860515066E+03    0.12054E-02   -0.12815E-04  1542   0.253E-02    0.108E-01
RMM:   4    -0.181860529769E+03   -0.14703E-04   -0.57765E-05  1508   0.193E-02
 479 F= -.18186053E+03 E0= -.18185414E+03  d E =0.167201E-03
quench:  g(F)=  0.000E+00 g(S)=  0.000E+00 dE (1.order)= 0.000E+00
 bond charge predicted
       N       E                     dE             d eps       ncg     rms          rms(c)
DAV:   1    -0.181860379754E+03    0.13531E-03   -0.27534E-03  2790   0.109E-01    0.360E-02
RMM:   2    -0.181861264762E+03   -0.88501E-03   -0.28706E-04  1699   0.337E-02    0.360E-01
RMM:   3    -0.181860490679E+03    0.77408E-03   -0.11775E-04  1524   0.229E-02    0.169E-01
RMM:   4    -0.181860350172E+03    0.14051E-03   -0.75426E-05  1511   0.202E-02    0.255E-02
RMM:   5    -0.181860382778E+03   -0.32605E-04   -0.17777E-05  1406   0.951E-03
 480 F= -.18186038E+03 E0= -.18185402E+03  d E =0.146991E-03
quench:  g(F)=  0.000E+00 g(S)=  0.000E+00 dE (1.order)= 0.000E+00
 bond charge predicted
       N       E                     dE             d eps       ncg     rms          rms(c)
DAV:   1    -0.181860228099E+03    0.12207E-03   -0.31788E-03  2772   0.116E-01    0.215E-02
RMM:   2    -0.181860345836E+03   -0.11774E-03   -0.95525E-05  1449   0.201E-02    0.135E-01
RMM:   3    -0.181860255837E+03    0.89999E-04   -0.26365E-05  1443   0.114E-02
 481 F= -.18186026E+03 E0= -.18185386E+03  d E =0.126940E-03
quench:  g(F)=  0.000E+00 g(S)=  0.000E+00 dE (1.order)= 0.000E+00
 bond charge predicted
       N       E                     dE             d eps       ncg     rms          rms(c)
DAV:   1    -0.181860129410E+03    0.21643E-03   -0.31285E-03  2790   0.120E-01    0.306E-02
RMM:   2    -0.181860752589E+03   -0.62318E-03   -0.18001E-04  1548   0.287E-02    0.301E-01
RMM:   3    -0.181860197897E+03    0.55469E-03   -0.83177E-05  1506   0.204E-02    0.136E-01
RMM:   4    -0.181860121225E+03    0.76673E-04   -0.40262E-05  1494   0.157E-02
 482 F= -.18186012E+03 E0= -.18185373E+03  d E =0.134612E-03
quench:  g(F)=  0.000E+00 g(S)=  0.000E+00 dE (1.order)= 0.000E+00
 bond charge predicted
       N       E                     dE             d eps       ncg     rms          rms(c)
DAV:   1    -0.181860126058E+03    0.71839E-04   -0.24975E-03  2772   0.103E-01    0.320E-02
RMM:   2    -0.181860689608E+03   -0.56355E-03   -0.20698E-04  1558   0.292E-02    0.289E-01
RMM:   3    -0.181860228613E+03    0.46099E-03   -0.88538E-05  1501   0.203E-02    0.158E-01
RMM:   4    -0.181860111163E+03    0.11745E-03   -0.53355E-05  1486   0.171E-02    0.244E-02
RMM:   5    -0.181860122901E+03   -0.11737E-04   -0.13411E-05  1370   0.810E-03
 483 F= -.18186012E+03 E0= -.18185371E+03  d E =-.167584E-05
quench:  g(F)=  0.000E+00 g(S)=  0.000E+00 dE (1.order)= 0.000E+00
 bond charge predicted
       N       E                     dE             d eps       ncg     rms          rms(c)
DAV:   1    -0.181860161379E+03   -0.50216E-04   -0.13646E-03  2772   0.751E-02    0.230E-02
RMM:   2    -0.181860816524E+03   -0.65515E-03   -0.12903E-04  1511   0.218E-02    0.317E-01
RMM:   3    -0.181860130745E+03    0.68578E-03   -0.63320E-05  1493   0.177E-02    0.654E-02
RMM:   4    -0.181860163907E+03   -0.33161E-04   -0.28202E-05  1464   0.132E-02
 484 F= -.18186016E+03 E0= -.18185381E+03  d E =-.410061E-04
quench:  g(F)=  0.000E+00 g(S)=  0.000E+00 dE (1.order)= 0.000E+00
 bond charge predicted
       N       E                     dE             d eps       ncg     rms          rms(c)
DAV:   1    -0.181860227569E+03   -0.96823E-04   -0.74984E-04  2709   0.577E-02    0.194E-02
RMM:   2    -0.181860281318E+03   -0.53750E-04   -0.69865E-05  1419   0.180E-02
 485 F= -.18186028E+03 E0= -.18185401E+03  d E =-.117412E-03
quench:  g(F)=  0.000E+00 g(S)=  0.000E+00 dE (1.order)= 0.000E+00
 bond charge predicted
       N       E                     dE             d eps       ncg     rms          rms(c)
DAV:   1    -0.181860327903E+03   -0.10033E-03   -0.64138E-04  2547   0.696E-02    0.592E-02
RMM:   2    -0.181872266727E+03   -0.11939E-01   -0.11842E-03  2657   0.578E-02    0.137E+00
RMM:   3    -0.181859745101E+03    0.12522E-01   -0.10026E-03  2668   0.636E-02    0.111E-01
RMM:   4    -0.181860319027E+03   -0.57393E-03   -0.20225E-04  1636   0.417E-02    0.468E-02
RMM:   5    -0.181860321365E+03   -0.23387E-05   -0.28729E-05  1463   0.121E-02
 486 F= -.18186032E+03 E0= -.18185396E+03  d E =-.400470E-04
quench:  g(F)=  0.000E+00 g(S)=  0.000E+00 dE (1.order)= 0.000E+00
 bond charge predicted
       N       E                     dE             d eps       ncg     rms          rms(c)
DAV:   1    -0.181860444896E+03   -0.12587E-03   -0.67830E-04  2793   0.557E-02    0.166E-02
RMM:   2    -0.181860947022E+03   -0.50213E-03   -0.73372E-05  1491   0.160E-02    0.283E-01
RMM:   3    -0.181860415721E+03    0.53130E-03   -0.46663E-05  1482   0.155E-02    0.404E-02
RMM:   4    -0.181860447584E+03   -0.31862E-04   -0.15694E-05  1444   0.107E-02
 487 F= -.18186045E+03 E0= -.18185407E+03  d E =-.126218E-03
quench:  g(F)=  0.000E+00 g(S)=  0.000E+00 dE (1.order)= 0.000E+00
 bond charge predicted
       N       E                     dE             d eps       ncg     rms          rms(c)
DAV:   1    -0.181860638944E+03   -0.22322E-03   -0.10700E-03  2784   0.653E-02    0.219E-02
RMM:   2    -0.181860847460E+03   -0.20852E-03   -0.95314E-05  1500   0.193E-02    0.173E-01
RMM:   3    -0.181860715292E+03    0.13217E-03   -0.40832E-05  1465   0.138E-02    0.124E-01
RMM:   4    -0.181860631847E+03    0.83445E-04   -0.22407E-05  1433   0.110E-02
 488 F= -.18186063E+03 E0= -.18185424E+03  d E =-.184263E-03
quench:  g(F)=  0.000E+00 g(S)=  0.000E+00 dE (1.order)= 0.000E+00
 bond charge predicted
       N       E                     dE             d eps       ncg     rms          rms(c)
DAV:   1    -0.181860875615E+03   -0.16032E-03   -0.16224E-03  2850   0.803E-02    0.216E-02
RMM:   2    -0.181860979080E+03   -0.10346E-03   -0.91666E-05  1492   0.188E-02    0.125E-01
RMM:   3    -0.181860961856E+03    0.17224E-04   -0.30872E-05  1453   0.118E-02
 489 F= -.18186096E+03 E0= -.18185462E+03  d E =-.330009E-03
quench:  g(F)=  0.000E+00 g(S)=  0.000E+00 dE (1.order)= 0.000E+00
 bond charge predicted
       N       E                     dE             d eps       ncg     rms          rms(c)
DAV:   1    -0.181861148757E+03   -0.16968E-03   -0.22295E-03  2862   0.104E-01    0.233E-02
RMM:   2    -0.181861286925E+03   -0.13817E-03   -0.11339E-04  1507   0.233E-02    0.135E-01
RMM:   3    -0.181861228719E+03    0.58206E-04   -0.34071E-05  1458   0.128E-02
 490 F= -.18186123E+03 E0= -.18185471E+03  d E =-.266863E-03
quench:  g(F)=  0.000E+00 g(S)=  0.000E+00 dE (1.order)= 0.000E+00
 bond charge predicted
       N       E                     dE             d eps       ncg     rms          rms(c)
DAV:   1    -0.181861405494E+03   -0.11857E-03   -0.21788E-03  2808   0.102E-01    0.244E-02
RMM:   2    -0.181861469565E+03   -0.64071E-04   -0.99293E-05  1506   0.206E-02
 491 F= -.18186147E+03 E0= -.18185501E+03  d E =-.240846E-03
quench:  g(F)=  0.000E+00 g(S)=  0.000E+00 dE (1.order)= 0.000E+00
 bond charge predicted
       N       E                     dE             d eps       ncg     rms          rms(c)
DAV:   1    -0.181861693579E+03   -0.28808E-03   -0.20433E-03  2916   0.106E-01    0.915E-02
RMM:   2    -0.181892007879E+03   -0.30314E-01   -0.29393E-03  2751   0.898E-02    0.217E+00
RMM:   3    -0.181860671766E+03    0.31336E-01   -0.24883E-03  2736   0.994E-02    0.125E-01
RMM:   4    -0.181861703758E+03   -0.10320E-02   -0.46564E-04  2057   0.630E-02    0.100E-01
RMM:   5    -0.181861656334E+03    0.47424E-04   -0.47733E-05  1493   0.161E-02
 492 F= -.18186166E+03 E0= -.18185527E+03  d E =-.186770E-03
quench:  g(F)=  0.000E+00 g(S)=  0.000E+00 dE (1.order)= 0.000E+00
 bond charge predicted
       N       E                     dE             d eps       ncg     rms          rms(c)
DAV:   1    -0.181861939516E+03   -0.23576E-03   -0.21712E-03  2826   0.971E-02    0.374E-02
RMM:   2    -0.181863698538E+03   -0.17590E-02   -0.32727E-04  1815   0.342E-02    0.534E-01
RMM:   3    -0.181861913971E+03    0.17846E-02   -0.19817E-04  1574   0.310E-02    0.138E-01
RMM:   4    -0.181861932729E+03   -0.18758E-04   -0.89075E-05  1532   0.243E-02
 493 F= -.18186193E+03 E0= -.18185550E+03  d E =-.276394E-03
quench:  g(F)=  0.000E+00 g(S)=  0.000E+00 dE (1.order)= 0.000E+00
 bond charge predicted
       N       E                     dE             d eps       ncg     rms          rms(c)
DAV:   1    -0.181862236560E+03   -0.32259E-03   -0.23444E-03  2862   0.975E-02    0.354E-02
RMM:   2    -0.181862461175E+03   -0.22461E-03   -0.23986E-04  1615   0.317E-02    0.177E-01
RMM:   3    -0.181862487060E+03   -0.25885E-04   -0.11013E-04  1497   0.229E-02
 494 F= -.18186249E+03 E0= -.18185591E+03  d E =-.554331E-03
quench:  g(F)=  0.000E+00 g(S)=  0.000E+00 dE (1.order)= 0.000E+00
 bond charge predicted
       N       E                     dE             d eps       ncg     rms          rms(c)
DAV:   1    -0.181862418772E+03    0.42403E-04   -0.22012E-03  2910   0.117E-01    0.329E-02
RMM:   2    -0.181863649251E+03   -0.12305E-02   -0.21581E-04  1577   0.340E-02    0.437E-01
RMM:   3    -0.181862412475E+03    0.12368E-02   -0.13401E-04  1547   0.260E-02    0.115E-01
RMM:   4    -0.181862438038E+03   -0.25563E-04   -0.52670E-05  1512   0.193E-02
 495 F= -.18186244E+03 E0= -.18185598E+03  d E =0.490222E-04
quench:  g(F)=  0.000E+00 g(S)=  0.000E+00 dE (1.order)= 0.000E+00
 bond charge predicted
       N       E                     dE             d eps       ncg     rms          rms(c)
DAV:   1    -0.181862512033E+03   -0.99558E-04   -0.31921E-04  2343   0.442E-02    0.337E-02
RMM:   2    -0.181863276658E+03   -0.76462E-03   -0.20508E-04  1587   0.297E-02    0.352E-01
RMM:   3    -0.181862651512E+03    0.62515E-03   -0.12226E-04  1541   0.240E-02    0.183E-01
RMM:   4    -0.181862494689E+03    0.15682E-03   -0.66710E-05  1514   0.197E-02    0.265E-02
RMM:   5    -0.181862509057E+03   -0.14367E-04   -0.14329E-05  1350   0.838E-03
 496 F= -.18186251E+03 E0= -.18185605E+03  d E =-.710190E-04
quench:  g(F)=  0.000E+00 g(S)=  0.000E+00 dE (1.order)= 0.000E+00
 bond charge predicted
       N       E                     dE             d eps       ncg     rms          rms(c)
DAV:   1    -0.181862597422E+03   -0.10273E-03   -0.31032E-04  2232   0.381E-02    0.154E-02
RMM:   2    -0.181862662691E+03   -0.65269E-04   -0.47952E-05  1401   0.155E-02
 497 F= -.18186266E+03 E0= -.18185614E+03  d E =-.153634E-03
quench:  g(F)=  0.000E+00 g(S)=  0.000E+00 dE (1.order)= 0.000E+00
 bond charge predicted
       N       E                     dE             d eps       ncg     rms          rms(c)
DAV:   1    -0.181862712130E+03   -0.11471E-03   -0.43656E-04  1872   0.659E-02    0.923E-02
RMM:   2    -0.181891615892E+03   -0.28904E-01   -0.27756E-03  2730   0.874E-02    0.214E+00
RMM:   3    -0.181861670020E+03    0.29946E-01   -0.24955E-03  2724   0.994E-02    0.179E-01
RMM:   4    -0.181862668305E+03   -0.99828E-03   -0.54407E-04  2190   0.665E-02    0.609E-02
RMM:   5    -0.181862706117E+03   -0.37812E-04   -0.54863E-05  1494   0.161E-02
 498 F= -.18186271E+03 E0= -.18185629E+03  d E =-.434261E-04
quench:  g(F)=  0.000E+00 g(S)=  0.000E+00 dE (1.order)= 0.000E+00
 bond charge predicted
       N       E                     dE             d eps       ncg     rms          rms(c)
DAV:   1    -0.181862691714E+03   -0.23410E-04   -0.10354E-04  1548   0.407E-02    0.254E-02
RMM:   2    -0.181863971882E+03   -0.12802E-02   -0.16691E-04  1559   0.242E-02    0.451E-01
RMM:   3    -0.181862635358E+03    0.13365E-02   -0.11571E-04  1536   0.244E-02    0.863E-02
RMM:   4    -0.181862682752E+03   -0.47394E-04   -0.42265E-05  1485   0.170E-02
 499 F= -.18186268E+03 E0= -.18185622E+03  d E =0.233650E-04
quench:  g(F)=  0.000E+00 g(S)=  0.000E+00 dE (1.order)= 0.000E+00
 bond charge predicted
       N       E                     dE             d eps       ncg     rms          rms(c)
DAV:   1    -0.181862713931E+03   -0.78573E-04   -0.82546E-05  1617   0.235E-02    0.199E-02
RMM:   2    -0.181863167680E+03   -0.45375E-03   -0.92441E-05  1476   0.195E-02    0.264E-01
RMM:   3    -0.181862739081E+03    0.42860E-03   -0.49474E-05  1465   0.154E-02    0.931E-02
RMM:   4    -0.181862707110E+03    0.31971E-04   -0.26067E-05  1437   0.125E-02
 500 F= -.18186271E+03 E0= -.18185625E+03  d E =-.243582E-04
quench:  g(F)=  0.000E+00 g(S)=  0.000E+00 dE (1.order)= 0.000E+00
