 vasp.5.4.4.18Apr17-6-g9f103f2a35 (build Feb 06 2024 13:54:16) complex          
  
 POSCAR found type information on POSCAR  Cu Pd Cu N  O 
 03/POSCAR found :  5 types and      40 ions
 scaLAPACK will be used

 ----------------------------------------------------------------------------- 
|                                                                             |
|  ADVICE TO THIS USER RUNNING 'VASP/VAMP'   (HEAR YOUR MASTER'S VOICE ...):  |
|                                                                             |
|      You enforced a specific xc-type in the INCAR file,                     |
|      a different type was found on the POTCAR file                          |
|          I HOPE YOU KNOW, WHAT YOU ARE  DOING                               |
|                                                                             |
 ----------------------------------------------------------------------------- 

 LDA part: xc-table for Pade appr. of Perdew
 POSCAR found type information on POSCAR  Cu Pd Cu N  O 
 00/POSCAR found :  5 types and      40 ions
 POSCAR found type information on POSCAR  Cu Pd Cu N  O 
 06/POSCAR found :  5 types and      40 ions
 Jacobian:    19.9537150754471     
 POSCAR, INCAR and KPOINTS ok, starting setup
 FFT: planning ...
 WAVECAR not read
 entering main loop
       N       E                     dE             d eps       ncg     rms          rms(c)
  Solvation turned off during non-self-consistent phase (first NELMDL steps)
DAV:   1     0.430339983563E+04    0.43034E+04   -0.18022E+05 12096   0.211E+03
DAV:   2     0.671145727557E+03   -0.36323E+04   -0.35000E+04 12132   0.480E+02
DAV:   3    -0.199902966231E+02   -0.69114E+03   -0.63458E+03 13671   0.242E+02
DAV:   4    -0.148652940001E+03   -0.12866E+03   -0.11280E+03 21672   0.976E+01
DAV:   5    -0.163112274629E+03   -0.14459E+02   -0.14257E+02 18648   0.326E+01    0.435E+01
 Begin Solvation calculations
  rms_SCF =    4.16935907633326      tol =   0.416935907633326     
 Begin minimization
 Creating dielectric and ionic cavities
  area:      169.372614114343     
  volume:    658.590496491952     
  Acav:     8.892062241002986E-002
  Solving linear dielectric/ionic screening model
        iter                  A_solv                     rms
   LPB:       -0.353833580081837E+03   0.266072125217747E+03
   LPB:    0  -0.524824107029932E+01   0.247317091607953E+02  -0.498859E+01   0.000000E+00   0.280146E+02  -0.139753E+03
   LPB:    1  -0.102388545650848E+01   0.743152598815048E+01   0.115380E-01   0.000000E+00   0.100462E+03  -0.785227E-14
   LPB:    2  -0.438867805214670E+00   0.117328535738721E+01   0.128907E-01   0.123954E+00   0.251640E+03  -0.999975E-14
   LPB:    3  -0.271414094101885E+00   0.717182834158756E+00   0.264726E-01   0.139381E+00   0.555687E+03  -0.214423E-13
   LPB:    4  -0.215687427320347E+00   0.677193965683333E+00   0.296533E-01   0.297093E+00   0.103814E+03  -0.237303E-13
   LPB:    5  -0.192124760274282E+00   0.725142667980711E+00   0.245281E-01   0.511176E+00   0.434012E+03  -0.208956E-13
   LPB:    6  -0.177293424861659E+00   0.263205790305892E+00   0.263022E-01   0.586986E+00   0.643665E+02  -0.175568E-13
  Finished solving LPB equations
  A_corr:   -8.837280245162947E-002
 End minimization
 Ecorr=   1977.30531925357     
 A_corr= -8.837280245162947E-002
 Ecorr_band=  -1977.39369205602     
 End Solvation calculations
RMM:   6    -0.154992627099E+03    0.81196E+01   -0.35449E+02 12306   0.942E+01    0.366E+01
 Begin Solvation calculations
  rms_SCF =    4.16935907633326      tol =   0.416935907633326     
 Begin minimization
 Creating dielectric and ionic cavities
  area:      173.076056980814     
  volume:    664.225526234379     
  Acav:     9.086492991492727E-002
  Solving linear dielectric/ionic screening model
        iter                  A_solv                     rms
   LPB:       -0.916044555828453E+01   0.577355423876275E+02
   LPB:    0  -0.897118845012711E+01   0.573625167299977E+02   0.116790E+00   0.000000E+00   0.277504E+02   0.324097E+01
   LPB:    1  -0.979162873008155E+00   0.539434506676897E+01   0.880884E-02   0.000000E+00   0.626026E+02  -0.159223E-15
   LPB:    2  -0.349675553883174E+00   0.138588414186357E+01   0.164434E-01   0.421947E-01   0.106636E+03  -0.160947E-15
   LPB:    3  -0.253474890867365E+00   0.542036040758921E+00   0.226368E-01   0.111011E+00   0.934154E+02   0.502433E-14
   LPB:    4  -0.226026888773456E+00   0.586193267316197E+00   0.261820E-01   0.246687E+00   0.282466E+03   0.958471E-14
   LPB:    5  -0.213191843131199E+00   0.357839818715936E+00   0.246036E-01   0.497610E+00   0.829694E+02   0.336154E-14
  Finished solving LPB equations
  A_corr:   -0.122326913216271     
 End minimization
 Ecorr=   1900.09480693668     
 A_corr= -0.122326913216271     
 Ecorr_band=  -1900.21713384990     
 End Solvation calculations
RMM:   7    -0.149974755488E+03    0.50179E+01   -0.10346E+02 12451   0.449E+01    0.230E+01
 Begin Solvation calculations
  rms_SCF =    4.16935907633326      tol =   0.416935907633326     
 Begin minimization
 Creating dielectric and ionic cavities
  area:      171.065205301245     
  volume:    665.734235382517     
  Acav:     8.980923278315354E-002
  Solving linear dielectric/ionic screening model
        iter                  A_solv                     rms
   LPB:       -0.593329469460994E+01   0.462774131670878E+02
   LPB:    0  -0.590884408005521E+01   0.462009753063379E+02   0.420320E-01   0.000000E+00   0.276796E+02   0.116343E+01
   LPB:    1  -0.687471914787316E+00   0.434456841056414E+01   0.892807E-02   0.000000E+00   0.613661E+02   0.524576E-16
   LPB:    2  -0.260739000145278E+00   0.768056478386983E+00   0.158420E-01   0.460595E-01   0.119060E+03   0.104400E-14
   LPB:    3  -0.196619547204028E+00   0.251602364936877E+00   0.228556E-01   0.104148E+00   0.209581E+03  -0.513223E-15
   LPB:    4  -0.182791728292696E+00   0.192819464924204E+00   0.263932E-01   0.186752E+00   0.384182E+03   0.206021E-15
  Finished solving LPB equations
  A_corr:   -9.298249550954275E-002
 End minimization
 Ecorr=   1881.13698501325     
 A_corr= -9.298249550954275E-002
 Ecorr_band=  -1881.22996750876     
 End Solvation calculations
RMM:   8    -0.140924016476E+03    0.90507E+01   -0.54760E+00 12367   0.903E+00    0.148E+01
 Begin Solvation calculations
  rms_SCF =    2.80442830877654      tol =   0.280442830877654     
 Begin minimization
 Creating dielectric and ionic cavities
  area:      161.536827270224     
  volume:    664.991132313681     
  Acav:     8.480683431686735E-002
  Solving linear dielectric/ionic screening model
        iter                  A_solv                     rms
   LPB:       -0.151749914897239E+01   0.220715697676493E+02
   LPB:    0  -0.151115830162580E+01   0.219448325242904E+02  -0.213912E-01   0.000000E+00   0.277145E+02  -0.592846E+00
   LPB:    1  -0.332239453967045E+00   0.230133981451828E+01   0.894660E-02   0.000000E+00   0.607089E+02  -0.377029E-16
   LPB:    2  -0.212326550398104E+00   0.467284918728850E+00   0.174146E-01   0.522548E-01   0.920987E+02   0.782863E-14
   LPB:    3  -0.194683829085297E+00   0.193143592192324E+00   0.211674E-01   0.121045E+00   0.167040E+03   0.770954E-14
   LPB:    4  -0.189653631200494E+00   0.123727775765929E+00   0.297443E-01   0.202900E+00   0.972511E+02   0.548931E-14
  Finished solving LPB equations
  A_corr:   -0.104846796883626     
 End minimization
 Ecorr=   1856.33869325133     
 A_corr= -0.104846796883626     
 Ecorr_band=  -1856.44354004822     
 End Solvation calculations
RMM:   9    -0.139275384849E+03    0.16486E+01   -0.45367E+00 12332   0.899E+00    0.106E+01
 Begin Solvation calculations
  rms_SCF =    2.80442830877654      tol =   0.280442830877654     
 Begin minimization
 Creating dielectric and ionic cavities
  area:      146.156417195961     
  volume:    664.771923127018     
  Acav:     7.673211902787976E-002
  Solving linear dielectric/ionic screening model
        iter                  A_solv                     rms
   LPB:       -0.128050302665369E+01   0.194343394392582E+02
   LPB:    0  -0.125067300925241E+01   0.193729229550934E+02   0.463882E-01   0.000000E+00   0.277248E+02   0.128610E+01
   LPB:    1  -0.301912386718511E+00   0.171512589027648E+01   0.894308E-02   0.000000E+00   0.631450E+02   0.906055E-16
   LPB:    2  -0.231378680638534E+00   0.276583386978677E+00   0.150402E-01   0.442053E-01   0.138659E+03  -0.277647E-14
   LPB:    3  -0.219133317591153E+00   0.156784319572700E+00   0.258753E-01   0.100912E+00   0.237702E+03  -0.338395E-14
   LPB:    4  -0.213839034734910E+00   0.147039669653819E+00   0.346335E-01   0.323015E+00   0.157336E+03  -0.385587E-14
  Finished solving LPB equations
  A_corr:   -0.137106915707030     
 End minimization
 Ecorr=   1815.03678438306     
 A_corr= -0.137106915707030     
 Ecorr_band=  -1815.17389129876     
 End Solvation calculations
RMM:  10    -0.135858320512E+03    0.34171E+01   -0.58003E+00 12350   0.665E+00    0.405E+00
 Begin Solvation calculations
  rms_SCF =    1.14039208401964      tol =   0.114039208401964     
 Begin minimization
 Creating dielectric and ionic cavities
  area:      142.171799893264     
  volume:    662.953534899693     
  Acav:     7.464019494396340E-002
  Solving linear dielectric/ionic screening model
        iter                  A_solv                     rms
   LPB:       -0.260260428799047E+00   0.300787314647818E+01
   LPB:    0  -0.257678672633160E+00   0.263736582575186E+01  -0.136261E-01   0.000000E+00   0.278100E+02  -0.378942E+00
   LPB:    1  -0.231355581060525E+00   0.522599581703933E+00   0.102502E-01   0.000000E+00   0.627285E+02   0.138248E-16
   LPB:    2  -0.227263383328791E+00   0.133092675482957E+00   0.161457E-01   0.986947E-01   0.948292E+02   0.179245E-14
   LPB:    3  -0.223474893638015E+00   0.304912462459696E+00   0.493565E-01   0.302847E+00   0.852844E+02   0.262282E-14
   LPB:    4  -0.219754924491686E+00   0.336728585505146E+00   0.296807E-01   0.163284E+01   0.256984E+02   0.329198E-14
   LPB:    5  -0.217048725239822E+00   0.944587364252280E-01   0.273657E-01   0.789019E+00   0.115564E+03   0.216304E-14
  Finished solving LPB equations
  A_corr:   -0.142408530295859     
 End minimization
 Ecorr=   1789.70920546230     
 A_corr= -0.142408530295859     
 Ecorr_band=  -1789.85161399260     
 End Solvation calculations
RMM:  11    -0.135806533376E+03    0.51787E-01   -0.57293E-01 12367   0.291E+00    0.329E+00
 Begin Solvation calculations
  rms_SCF =   0.469311191492594      tol =   4.693111914925942E-002
 Begin minimization
 Creating dielectric and ionic cavities
  area:      137.326198048571     
  volume:    660.138306226047     
  Acav:     7.209625397549999E-002
  Solving linear dielectric/ionic screening model
        iter                  A_solv                     rms
   LPB:       -0.323534527831129E+00   0.351605700452109E+01
   LPB:    0  -0.322203689334432E+00   0.367050762940285E+01   0.975998E-02   0.000000E+00   0.279420E+02   0.272713E+00
   LPB:    1  -0.257337449397042E+00   0.987648676367549E+00   0.108347E-01   0.000000E+00   0.743365E+02  -0.162622E-18
   LPB:    2  -0.247934110235051E+00   0.148853241129285E+00   0.136041E-01   0.115454E+00   0.128338E+03   0.994731E-15
   LPB:    3  -0.246040366470962E+00   0.132383928130671E+00   0.245805E-01   0.111460E+00   0.197778E+03   0.220510E-14
   LPB:    4  -0.244849065752638E+00   0.175540539339301E+00   0.349038E-01   0.443016E+00   0.526722E+02   0.240875E-14
   LPB:    5  -0.243423225863983E+00   0.160297947968401E+00   0.350036E-01   0.119346E+01   0.177366E+03   0.339204E-14
   LPB:    6  -0.241961734118667E+00   0.680960326318359E-01   0.362515E-01   0.989720E+00   0.420773E+02   0.337923E-14
   LPB:    7  -0.241080679026038E+00   0.350321067972696E-01   0.313213E-01   0.697740E+00   0.115314E+03   0.312507E-14
  Finished solving LPB equations
  A_corr:   -0.168984425050538     
 End minimization
 Ecorr=   1756.05314157919     
 A_corr= -0.168984425050538     
 Ecorr_band=  -1756.22212600424     
 End Solvation calculations
RMM:  12    -0.135801364321E+03    0.51691E-02   -0.16822E-01 12390   0.175E+00    0.214E+00
 Begin Solvation calculations
  rms_SCF =   0.469311191492594      tol =   4.693111914925942E-002
 Begin minimization
 Creating dielectric and ionic cavities
  area:      135.257836225659     
  volume:    654.135221842087     
  Acav:     7.101036401847104E-002
  Solving linear dielectric/ionic screening model
        iter                  A_solv                     rms
   LPB:       -0.496252882076714E+00   0.382675018796309E+01
   LPB:    0  -0.495614709410476E+00   0.351817844054345E+01  -0.672480E-02   0.000000E+00   0.282234E+02  -0.189797E+00
   LPB:    1  -0.328558593527290E+00   0.120938427332550E+01   0.160704E-01   0.000000E+00   0.662873E+02  -0.248068E-17
   LPB:    2  -0.307783389250000E+00   0.417924990165675E+00   0.157434E-01   0.126944E+00   0.130061E+03   0.206119E-13
   LPB:    3  -0.302019514255223E+00   0.124297422518753E+00   0.217991E-01   0.200369E+00   0.103565E+03   0.210430E-13
   LPB:    4  -0.299436764274874E+00   0.182535544791870E+00   0.302605E-01   0.322797E+00   0.233647E+03   0.277498E-13
   LPB:    5  -0.298116411882643E+00   0.302333490389954E+00   0.245353E-01   0.630509E+00   0.144749E+03   0.308392E-13
   LPB:    6  -0.296928825279527E+00   0.134389927073232E+00   0.240190E-01   0.918780E+00   0.650220E+02   0.324880E-13
   LPB:    7  -0.295853838952502E+00   0.425545538169648E-01   0.349187E-01   0.622637E+00   0.119371E+03   0.342991E-13
  Finished solving LPB equations
  A_corr:   -0.224843474934031     
 End minimization
 Ecorr=   1712.66339089414     
 A_corr= -0.224843474934031     
 Ecorr_band=  -1712.88823436907     
 End Solvation calculations
RMM:  13    -0.135722070557E+03    0.79294E-01   -0.14934E-01 12438   0.121E+00    0.197E+00
 Begin Solvation calculations
  rms_SCF =   0.372962816512747      tol =   3.729628165127473E-002
 Begin minimization
 Creating dielectric and ionic cavities
  area:      135.471617604961     
  volume:    653.767920043548     
  Acav:     7.112259924260429E-002
  Solving linear dielectric/ionic screening model
        iter                  A_solv                     rms
   LPB:       -0.303904012915199E+00   0.319179573803134E+00
   LPB:    0  -0.303648447165439E+00   0.396699247687888E+00   0.425431E-02   0.000000E+00   0.282406E+02   0.120144E+00
   LPB:    1  -0.301142117715979E+00   0.110131839845873E+00   0.182082E-01   0.000000E+00   0.766873E+02   0.978220E-17
   LPB:    2  -0.300730045180049E+00   0.110477817891058E+00   0.183741E-01   0.162929E+00   0.263994E+03  -0.384013E-15
   LPB:    3  -0.300477967171837E+00   0.888302053835828E-01   0.234237E-01   0.479857E+00   0.809404E+02  -0.295406E-15
   LPB:    4  -0.300099967718108E+00   0.129328170119781E+00   0.468757E-01   0.749313E+00   0.795874E+02  -0.458531E-15
   LPB:    5  -0.299591360970965E+00   0.994293426817087E-01   0.308989E-01   0.204125E+01   0.134909E+03  -0.694076E-15
   LPB:    6  -0.299224489863642E+00   0.309258059683528E-01   0.276727E-01   0.805419E+00   0.425377E+02  -0.177885E-14
  Finished solving LPB equations
  A_corr:   -0.228101890621037     
 End minimization
 Ecorr=   1701.88361134107     
 A_corr= -0.228101890621037     
 Ecorr_band=  -1702.11171323169     
 End Solvation calculations
RMM:  14    -0.135691796252E+03    0.30274E-01   -0.65266E-02 13066   0.673E-01    0.120E+00
 Begin Solvation calculations
  rms_SCF =   0.372962816512747      tol =   3.729628165127473E-002
 Begin minimization
 Creating dielectric and ionic cavities
  area:      135.928962179844     
  volume:    653.136246736182     
  Acav:     7.136270514441827E-002
  Solving linear dielectric/ionic screening model
        iter                  A_solv                     rms
   LPB:       -0.312850604461742E+00   0.565811308762547E+00
   LPB:    0  -0.312805452053220E+00   0.622843889903241E+00   0.178727E-02   0.000000E+00   0.282703E+02   0.505266E-01
   LPB:    1  -0.306958798413697E+00   0.198242139053736E+00   0.167309E-01   0.000000E+00   0.827547E+02  -0.260868E-17
   LPB:    2  -0.306271798557301E+00   0.916290971064332E-01   0.161617E-01   0.121641E+00   0.111646E+03  -0.399062E-14
   LPB:    3  -0.306079511825254E+00   0.482239636702816E-01   0.208489E-01   0.216968E+00   0.101650E+03  -0.451725E-14
   LPB:    4  -0.305969642693787E+00   0.551810046187131E-01   0.269779E-01   0.441573E+00   0.137513E+03  -0.485901E-14
   LPB:    5  -0.305909915719737E+00   0.464885671012621E-01   0.211299E-01   0.694073E+00   0.191393E+03  -0.505170E-14
   LPB:    6  -0.305861342212786E+00   0.173409008615961E-01   0.268218E-01   0.640676E+00   0.804159E+02  -0.509883E-14
  Finished solving LPB equations
  A_corr:   -0.234498637068367     
 End minimization
 Ecorr=   1694.80816533989     
 A_corr= -0.234498637068367     
 Ecorr_band=  -1695.04266397696     
 End Solvation calculations
RMM:  15    -0.135694042731E+03   -0.22465E-02   -0.57102E-02 12779   0.504E-01    0.583E-01
 Begin Solvation calculations
  rms_SCF =   0.372962816512747      tol =   3.729628165127473E-002
 Begin minimization
 Creating dielectric and ionic cavities
  area:      136.209524670348     
  volume:    652.688403459226     
  Acav:     7.151000045193284E-002
  Solving linear dielectric/ionic screening model
        iter                  A_solv                     rms
   LPB:       -0.312173744964947E+00   0.466880237853251E+00
   LPB:    0  -0.312140281621540E+00   0.409896816923879E+00  -0.153806E-02   0.000000E+00   0.282913E+02  -0.435137E-01
   LPB:    1  -0.310072133319843E+00   0.124632732201410E+00   0.159050E-01   0.000000E+00   0.747018E+02   0.322514E-18
   LPB:    2  -0.309824057872903E+00   0.453634865205059E-01   0.152735E-01   0.124910E+00   0.118473E+03   0.671340E-15
   LPB:    3  -0.309762417873995E+00   0.203595744523715E-01   0.225656E-01   0.168179E+00   0.919912E+02   0.330381E-15
   LPB:    4  -0.309713768093851E+00   0.301837534124265E-01   0.389146E-01   0.457671E+00   0.110693E+03   0.700970E-16
  Finished solving LPB equations
  A_corr:   -0.238203767641918     
 End minimization
 Ecorr=   1691.97005706824     
 A_corr= -0.238203767641918     
 Ecorr_band=  -1692.20826083588     
 End Solvation calculations
RMM:  16    -0.135694316114E+03   -0.27338E-03   -0.53437E-03 12633   0.258E-01    0.495E-01
 Begin Solvation calculations
  rms_SCF =   0.372962816512747      tol =   3.729628165127473E-002
 Begin minimization
 Creating dielectric and ionic cavities
  area:      137.004623174305     
  volume:    651.429004923632     
  Acav:     7.192742716650989E-002
  Solving linear dielectric/ionic screening model
        iter                  A_solv                     rms
   LPB:       -0.343078886853893E+00   0.153680822450866E+01
   LPB:    0  -0.342485573810418E+00   0.129778574134306E+01  -0.646961E-02   0.000000E+00   0.283503E+02  -0.183415E+00
   LPB:    1  -0.324666715957722E+00   0.356213798469856E+00   0.156330E-01   0.000000E+00   0.673701E+02  -0.246008E-17
   LPB:    2  -0.322568717270920E+00   0.124976862703623E+00   0.147777E-01   0.124555E+00   0.137101E+03  -0.549134E-14
   LPB:    3  -0.322060899276862E+00   0.498064764333295E-01   0.228118E-01   0.156801E+00   0.898054E+02  -0.545180E-14
   LPB:    4  -0.321829393202455E+00   0.736420712442560E-01   0.290637E-01   0.357819E+00   0.255850E+03  -0.524242E-14
   LPB:    5  -0.321703409266505E+00   0.804404706197330E-01   0.236959E-01   0.667468E+00   0.792181E+02  -0.551131E-14
   LPB:    6  -0.321591923670044E+00   0.329303905560530E-01   0.242825E-01   0.863540E+00   0.120262E+03  -0.563030E-14
  Finished solving LPB equations
  A_corr:   -0.249664496503534     
 End minimization
 Ecorr=   1684.25950224974     
 A_corr= -0.249664496503534     
 Ecorr_band=  -1684.50916674625     
 End Solvation calculations
RMM:  17    -0.135691168624E+03    0.31475E-02   -0.63487E-03 12177   0.236E-01    0.317E-01
 Begin Solvation calculations
  rms_SCF =   0.372962816512747      tol =   3.729628165127473E-002
 Begin minimization
 Creating dielectric and ionic cavities
  area:      137.783226301559     
  volume:    650.281695454260     
  Acav:     7.233619380831831E-002
  Solving linear dielectric/ionic screening model
        iter                  A_solv                     rms
   LPB:       -0.355490550148034E+00   0.153548400298877E+01
   LPB:    0  -0.354846059602337E+00   0.128109156089681E+01  -0.673648E-02   0.000000E+00   0.284041E+02  -0.191343E+00
   LPB:    1  -0.337716524527758E+00   0.354999779707262E+00   0.155235E-01   0.000000E+00   0.666936E+02   0.419194E-18
   LPB:    2  -0.335633422372929E+00   0.117365185290997E+00   0.148229E-01   0.127356E+00   0.136158E+03  -0.909811E-14
   LPB:    3  -0.335187270914002E+00   0.435111479279789E-01   0.220565E-01   0.143936E+00   0.953136E+02  -0.100436E-13
   LPB:    4  -0.334951364401135E+00   0.614381722388455E-01   0.324143E-01   0.359796E+00   0.233860E+03  -0.106484E-13
   LPB:    5  -0.334786261167934E+00   0.971618267304038E-01   0.302695E-01   0.749458E+00   0.693306E+02  -0.111031E-13
   LPB:    6  -0.334653508618328E+00   0.477943604382466E-01   0.218861E-01   0.111205E+01   0.102990E+03  -0.113855E-13
   LPB:    7  -0.334527894011260E+00   0.173319531957365E-01   0.326940E-01   0.633427E+00   0.113256E+03  -0.116642E-13
  Finished solving LPB equations
  A_corr:   -0.262191700202941     
 End minimization
 Ecorr=   1675.77222007682     
 A_corr= -0.262191700202941     
 Ecorr_band=  -1676.03441177703     
 End Solvation calculations
RMM:  18    -0.135692106293E+03   -0.93767E-03   -0.41920E-03 12300   0.185E-01    0.302E-01
 Begin Solvation calculations
  rms_SCF =   0.359185961562659      tol =   3.591859615626589E-002
 Begin minimization
 Creating dielectric and ionic cavities
  area:      138.024048363960     
  volume:    649.988928787189     
  Acav:     7.246262539107921E-002
  Solving linear dielectric/ionic screening model
        iter                  A_solv                     rms
   LPB:       -0.343817617185322E+00   0.774240398844184E+00
   LPB:    0  -0.343603475725572E+00   0.640311886322765E+00  -0.388213E-02   0.000000E+00   0.284178E+02  -0.110322E+00
   LPB:    1  -0.340408226787891E+00   0.152365125330361E+00   0.151615E-01   0.000000E+00   0.550044E+02  -0.765361E-19
   LPB:    2  -0.339991544999810E+00   0.617987997541795E-01   0.142219E-01   0.139022E+00   0.195265E+03  -0.145782E-14
   LPB:    3  -0.339905544484261E+00   0.402685329011206E-01   0.189145E-01   0.155189E+00   0.105699E+03  -0.185529E-14
   LPB:    4  -0.339869154240310E+00   0.398421606850288E-01   0.216358E-01   0.369918E+00   0.112221E+03  -0.213144E-14
   LPB:    5  -0.339822143257852E+00   0.290628046694033E-01   0.360328E-01   0.775691E+00   0.900580E+02  -0.230317E-14
  Finished solving LPB equations
  A_corr:   -0.267359517866773     
 End minimization
 Ecorr=   1672.99803355616     
 A_corr= -0.267359517866773     
 Ecorr_band=  -1673.26539307403     
 End Solvation calculations
RMM:  19    -0.135692187160E+03   -0.80868E-04   -0.92608E-04 11452   0.917E-02
 Begin Solvation calculations
  rms_SCF =   0.359185961562659      tol =   3.591859615626589E-002
 Begin minimization
 Creating dielectric and ionic cavities
  area:      138.608881018017     
  volume:    649.419164858325     
  Acav:     7.276966253445886E-002
  Solving linear dielectric/ionic screening model
        iter                  A_solv                     rms
   LPB:       -0.373095750812448E+00   0.174751478703279E+01
   LPB:    0  -0.371951337105094E+00   0.142858850988919E+01  -0.897031E-02   0.000000E+00   0.284445E+02  -0.255156E+00
   LPB:    1  -0.355132824805004E+00   0.338184249710873E+00   0.151259E-01   0.000000E+00   0.577128E+02   0.562001E-17
   LPB:    2  -0.353098291965158E+00   0.119983332108944E+00   0.143930E-01   0.127130E+00   0.161575E+03  -0.194267E-14
   LPB:    3  -0.352692433815482E+00   0.705313561458663E-01   0.209251E-01   0.137212E+00   0.946737E+02  -0.216607E-14
   LPB:    4  -0.352521618277153E+00   0.905913977579160E-01   0.225852E-01   0.389938E+00   0.166908E+03  -0.205861E-14
   LPB:    5  -0.352400973757568E+00   0.513587717723948E-01   0.228058E-01   0.699454E+00   0.791852E+02  -0.199917E-14
   LPB:    6  -0.352291400105669E+00   0.186773118070592E-01   0.325542E-01   0.636262E+00   0.116311E+03  -0.196509E-14
  Finished solving LPB equations
  A_corr:   -0.279521737571211     
 End minimization
 Ecorr=   1666.51439008040     
 A_corr= -0.279521737571211     
 Ecorr_band=  -1666.79391181797     
 End Solvation calculations
   1 F= -.13569219E+03 E0= -.13568801E+03  d E =-.135692E+03
quench:  g(F)=  0.000E+00 g(S)=  0.000E+00 dE (1.order)= 0.000E+00
 bond charge predicted
       N       E                     dE             d eps       ncg     rms          rms(c)
 Begin Solvation calculations
  rms_SCF =   0.359185961562659      tol =   3.591859615626589E-002
 Begin minimization
 Creating dielectric and ionic cavities
  area:      138.610383514955     
  volume:    649.420103125799     
  Acav:     7.277045134535125E-002
  Solving linear dielectric/ionic screening model
        iter                  A_solv                     rms
   LPB:       -0.352305001146435E+00   0.186817529060852E-01
   LPB:    0  -0.352305001146124E+00   0.186799062018359E-01   0.147826E-06   0.000000E+00   0.284445E+02   0.420483E-05
   LPB:    1  -0.352207233470551E+00   0.194176816647226E-01   0.180693E-01   0.000000E+00   0.165837E+04  -0.345812E-21
   LPB:    2  -0.352165102517861E+00   0.428934928752966E-01   0.350001E-01   0.222473E+00   0.219074E+03   0.240006E-16
   LPB:    3  -0.352130158708856E+00   0.378407040035924E-01   0.253632E-01   0.114455E+01   0.134081E+03   0.148334E-15
   LPB:    4  -0.352087811353755E+00   0.284060039611032E-01   0.314656E-01   0.976844E+00   0.211654E+03   0.290800E-15
  Finished solving LPB equations
  A_corr:   -0.279317360008404     
 End minimization
 Ecorr=   1666.11051472617     
 A_corr= -0.279317360008404     
 Ecorr_band=  -1666.38983208618     
 End Solvation calculations
DAV:   1    -0.135693702366E+03   -0.15961E-02   -0.54832E-03 17559   0.359E-01    0.153E-01
 Begin Solvation calculations
  rms_SCF =   0.305402851897865      tol =   3.054028518978650E-002
 Begin minimization
 Creating dielectric and ionic cavities
  area:      138.687346609924     
  volume:    649.395336604149     
  Acav:     7.281085697021013E-002
  Solving linear dielectric/ionic screening model
        iter                  A_solv                     rms
   LPB:       -0.368346240343073E+00   0.194101198499221E+01
   LPB:    0  -0.368005376200608E+00   0.188199456549029E+01  -0.489551E-02   0.000000E+00   0.284456E+02  -0.139256E+00
   LPB:    1  -0.358261933428242E+00   0.285262274024212E+00   0.101391E-01   0.000000E+00   0.523928E+02  -0.308003E-17
   LPB:    2  -0.356607524510190E+00   0.590878392633950E-01   0.151481E-01   0.113651E+00   0.125091E+03   0.197591E-14
   LPB:    3  -0.356349571361019E+00   0.321806721947595E-01   0.210907E-01   0.111986E+00   0.185225E+03   0.225260E-14
   LPB:    4  -0.356266629985753E+00   0.385057425509615E-01   0.255611E-01   0.265302E+00   0.117632E+03   0.247523E-14
   LPB:    5  -0.356227490350758E+00   0.267173582740920E-01   0.240406E-01   0.501742E+00   0.105136E+03   0.259802E-14
  Finished solving LPB equations
  A_corr:   -0.283416633380548     
 End minimization
 Ecorr=   1664.42314471050     
 A_corr= -0.283416633380548     
 Ecorr_band=  -1664.70656134388     
 End Solvation calculations
RMM:   2    -0.135697028222E+03   -0.33259E-02   -0.60427E-03 12136   0.274E-01    0.335E-01
 Begin Solvation calculations
  rms_SCF =   0.305402851897865      tol =   3.054028518978650E-002
 Begin minimization
 Creating dielectric and ionic cavities
  area:      138.766129031310     
  volume:    649.416799918253     
  Acav:     7.285221774143796E-002
  Solving linear dielectric/ionic screening model
        iter                  A_solv                     rms
   LPB:       -0.359546584493070E+00   0.110805206471961E+01
   LPB:    0  -0.359546582874219E+00   0.110808067927383E+01   0.106689E-04   0.000000E+00   0.284446E+02   0.303472E-03
   LPB:    1  -0.356608806578698E+00   0.808781650812060E-01   0.838585E-02   0.000000E+00   0.679502E+02  -0.159118E-19
   LPB:    2  -0.356456751170851E+00   0.208625931383392E-01   0.167612E-01   0.258955E-01   0.114722E+03  -0.177102E-15
   LPB:    3  -0.356424957294084E+00   0.198486324251191E-01   0.253159E-01   0.138437E+00   0.153652E+03  -0.238987E-15
   LPB:    4  -0.356411304970083E+00   0.162929852855043E-01   0.289198E-01   0.375891E+00   0.123869E+03  -0.279239E-15
  Finished solving LPB equations
  A_corr:   -0.283559087228645     
 End minimization
 Ecorr=   1663.80883127995     
 A_corr= -0.283559087228645     
 Ecorr_band=  -1664.09239036718     
 End Solvation calculations
RMM:   3    -0.135694033774E+03    0.29944E-02   -0.27204E-03 11822   0.257E-01    0.102E-01
 Begin Solvation calculations
  rms_SCF =   0.234206046003248      tol =   2.342060460032484E-002
 Begin minimization
 Creating dielectric and ionic cavities
  area:      138.800023169985     
  volume:    649.416709514469     
  Acav:     7.287001216424208E-002
  Solving linear dielectric/ionic screening model
        iter                  A_solv                     rms
   LPB:       -0.357780960755667E+00   0.242881540387842E+00
   LPB:    0  -0.357760747480322E+00   0.215500130528140E+00  -0.119216E-02   0.000000E+00   0.284446E+02  -0.339104E-01
   LPB:    1  -0.357528039144651E+00   0.539866581250772E-01   0.140834E-01   0.000000E+00   0.468674E+02   0.158563E-17
   LPB:    2  -0.357488498605830E+00   0.209861831107781E-01   0.137102E-01   0.174539E+00   0.178772E+03  -0.743757E-16
   LPB:    3  -0.357474431862020E+00   0.114594372258223E-01   0.225063E-01   0.216716E+00   0.109203E+03  -0.844153E-16
   LPB:    4  -0.357459292301009E+00   0.198294192688965E-01   0.425809E-01   0.568864E+00   0.669592E+02  -0.981770E-16
  Finished solving LPB equations
  A_corr:   -0.284589280136767     
 End minimization
 Ecorr=   1663.06552659067     
 A_corr= -0.284589280136767     
 Ecorr_band=  -1663.35011587081     
 End Solvation calculations
RMM:   4    -0.135694135625E+03   -0.10185E-03   -0.16901E-04  7286   0.352E-02    0.848E-02
 Begin Solvation calculations
  rms_SCF =   0.223211734924090      tol =   2.232117349240905E-002
 Begin minimization
 Creating dielectric and ionic cavities
  area:      138.954776927397     
  volume:    649.418742931350     
  Acav:     7.295125788688336E-002
  Solving linear dielectric/ionic screening model
        iter                  A_solv                     rms
   LPB:       -0.368068805554349E+00   0.108421826524649E+01
   LPB:    0  -0.367653961915494E+00   0.949600084998817E+00  -0.540080E-02   0.000000E+00   0.284445E+02  -0.153623E+00
   LPB:    1  -0.363144570916374E+00   0.204754413023981E+00   0.134856E-01   0.000000E+00   0.501022E+02  -0.101817E-16
   LPB:    2  -0.362567895236072E+00   0.763676050319481E-01   0.127678E-01   0.135073E+00   0.211957E+03   0.299894E-16
   LPB:    3  -0.362452164456618E+00   0.339729127891799E-01   0.175535E-01   0.145972E+00   0.119270E+03  -0.102136E-15
   LPB:    4  -0.362407252242861E+00   0.340337425559399E-01   0.242071E-01   0.281408E+00   0.877437E+02  -0.810864E-16
   LPB:    5  -0.362377370229833E+00   0.208032697891550E-01   0.273036E-01   0.589886E+00   0.942965E+02  -0.363270E-15
  Finished solving LPB equations
  A_corr:   -0.289426112342950     
 End minimization
 Ecorr=   1661.29815562420     
 A_corr= -0.289426112342950     
 Ecorr_band=  -1661.58758173655     
 End Solvation calculations
RMM:   5    -0.135694698676E+03   -0.56305E-03   -0.20069E-04  7247   0.508E-02    0.717E-02
 Begin Solvation calculations
  rms_SCF =   0.147787504030964      tol =   1.477875040309645E-002
 Begin minimization
 Creating dielectric and ionic cavities
  area:      139.178648675709     
  volume:    649.427248609830     
  Acav:     7.306879055474701E-002
  Solving linear dielectric/ionic screening model
        iter                  A_solv                     rms
   LPB:       -0.378216147021021E+00   0.133049380018989E+01
   LPB:    0  -0.377504961680711E+00   0.112433496105113E+01  -0.707147E-02   0.000000E+00   0.284441E+02  -0.201142E+00
   LPB:    1  -0.370304106329638E+00   0.222414057868286E+00   0.138689E-01   0.000000E+00   0.516033E+02   0.858088E-17
   LPB:    2  -0.369459338495960E+00   0.102101214969715E+00   0.134697E-01   0.120792E+00   0.212632E+03  -0.141309E-14
   LPB:    3  -0.369291672458634E+00   0.503033984461516E-01   0.169799E-01   0.157446E+00   0.981781E+02  -0.191347E-14
   LPB:    4  -0.369217119162569E+00   0.484909787169891E-01   0.233072E-01   0.323941E+00   0.914592E+02  -0.200785E-14
   LPB:    5  -0.369162997455123E+00   0.263893957145304E-01   0.274465E-01   0.616463E+00   0.875630E+02  -0.206277E-14
   LPB:    6  -0.369118340952880E+00   0.100018346995010E-01   0.344291E-01   0.657772E+00   0.102437E+03  -0.247642E-14
  Finished solving LPB equations
  A_corr:   -0.296049550398133     
 End minimization
 Ecorr=   1658.16453327492     
 A_corr= -0.296049550398133     
 Ecorr_band=  -1658.46058282531     
 End Solvation calculations
RMM:   6    -0.135695587372E+03   -0.88870E-03   -0.38741E-04  8248   0.651E-02    0.621E-02
 Begin Solvation calculations
  rms_SCF =   0.147787504030964      tol =   1.477875040309645E-002
 Begin minimization
 Creating dielectric and ionic cavities
  area:      139.322870719155     
  volume:    649.432640910189     
  Acav:     7.314450712755656E-002
  Solving linear dielectric/ionic screening model
        iter                  A_solv                     rms
   LPB:       -0.378289861930605E+00   0.955178476625794E+00
   LPB:    0  -0.377960069760609E+00   0.827514450490763E+00  -0.481549E-02   0.000000E+00   0.284439E+02  -0.136971E+00
   LPB:    1  -0.374455568966242E+00   0.167178604387162E+00   0.134381E-01   0.000000E+00   0.506944E+02  -0.710445E-17
   LPB:    2  -0.374021509669887E+00   0.710779629016144E-01   0.131252E-01   0.126810E+00   0.213523E+03   0.732712E-15
   LPB:    3  -0.373939175598798E+00   0.295151067189362E-01   0.163528E-01   0.152245E+00   0.111922E+03   0.785531E-15
   LPB:    4  -0.373904586653740E+00   0.332366985799027E-01   0.261377E-01   0.262835E+00   0.821117E+02   0.777873E-15
   LPB:    5  -0.373871978533296E+00   0.238647267193180E-01   0.322830E-01   0.763277E+00   0.765853E+02   0.706236E-15
   LPB:    6  -0.373835565265251E+00   0.973323063690502E-02   0.378860E-01   0.951544E+00   0.627078E+02   0.772485E-15
  Finished solving LPB equations
  A_corr:   -0.300691058137695     
 End minimization
 Ecorr=   1655.90858506791     
 A_corr= -0.300691058137695     
 Ecorr_band=  -1656.20927612605     
 End Solvation calculations
RMM:   7    -0.135696024154E+03   -0.43678E-03   -0.21098E-04  7192   0.484E-02    0.529E-02
 Begin Solvation calculations
  rms_SCF =   0.144422237670961      tol =   1.444222376709607E-002
 Begin minimization
 Creating dielectric and ionic cavities
  area:      139.428344910727     
  volume:    649.433406965445     
  Acav:     7.319988107813181E-002
  Solving linear dielectric/ionic screening model
        iter                  A_solv                     rms
   LPB:       -0.380432154757844E+00   0.789588018414641E+00
   LPB:    0  -0.380229023846348E+00   0.696346978026283E+00  -0.377928E-02   0.000000E+00   0.284439E+02  -0.107497E+00
   LPB:    1  -0.377988869852994E+00   0.141720110929887E+00   0.129467E-01   0.000000E+00   0.500870E+02  -0.235065E-17
   LPB:    2  -0.377697318233926E+00   0.524246672578075E-01   0.128728E-01   0.130895E+00   0.206792E+03   0.245484E-15
   LPB:    3  -0.377646622846565E+00   0.208365563395673E-01   0.163120E-01   0.137221E+00   0.127475E+03   0.176621E-15
   LPB:    4  -0.377628363657758E+00   0.232932526545873E-01   0.259838E-01   0.226109E+00   0.808461E+02   0.181624E-15
   LPB:    5  -0.377611035383197E+00   0.179147529370336E-01   0.332689E-01   0.741203E+00   0.773974E+02   0.914782E-16
   LPB:    6  -0.377589211109021E+00   0.814912619901145E-02   0.404865E-01   0.103493E+01   0.547029E+02   0.174905E-15
  Finished solving LPB equations
  A_corr:   -0.304389330030889     
 End minimization
 Ecorr=   1654.20786048943     
 A_corr= -0.304389330030889     
 Ecorr_band=  -1654.51224981946     
 End Solvation calculations
RMM:   8    -0.135696250434E+03   -0.22628E-03   -0.12718E-04  7066   0.340E-02    0.443E-02
 Begin Solvation calculations
  rms_SCF =   0.116016204724254      tol =   1.160162047242537E-002
 Begin minimization
 Creating dielectric and ionic cavities
  area:      139.630319945337     
  volume:    649.416614395428     
  Acav:     7.330591797130186E-002
  Solving linear dielectric/ionic screening model
        iter                  A_solv                     rms
   LPB:       -0.399689802388020E+00   0.184105318497397E+01
   LPB:    0  -0.398709365196245E+00   0.164826454393529E+01  -0.830280E-02   0.000000E+00   0.284446E+02  -0.236170E+00
   LPB:    1  -0.387638551499823E+00   0.317981791537765E+00   0.122551E-01   0.000000E+00   0.497703E+02  -0.369293E-17
   LPB:    2  -0.386154312485557E+00   0.107374013814416E+00   0.128728E-01   0.127635E+00   0.192590E+03  -0.112495E-14
   LPB:    3  -0.385905094999705E+00   0.435038644768217E-01   0.167498E-01   0.129044E+00   0.135058E+03  -0.122994E-14
   LPB:    4  -0.385837341518329E+00   0.389796664612143E-01   0.226067E-01   0.201431E+00   0.895300E+02  -0.121721E-14
   LPB:    5  -0.385800387888148E+00   0.215118741673984E-01   0.254235E-01   0.484983E+00   0.107575E+03  -0.120221E-14
   LPB:    6  -0.385771451489913E+00   0.832503767972006E-02   0.338715E-01   0.587745E+00   0.925787E+02  -0.103661E-14
  Finished solving LPB equations
  A_corr:   -0.312465533518611     
 End minimization
 Ecorr=   1651.09433053929     
 A_corr= -0.312465533518611     
 Ecorr_band=  -1651.40679607281     
 End Solvation calculations
RMM:   9    -0.135696625951E+03   -0.37552E-03   -0.51312E-04  9039   0.529E-02    0.256E-02
 Begin Solvation calculations
  rms_SCF =   2.078836714191542E-002 tol =   2.078836714191542E-003
 Begin minimization
 Creating dielectric and ionic cavities
  area:      139.653738154194     
  volume:    649.417874705141     
  Acav:     7.331821253095194E-002
  Solving linear dielectric/ionic screening model
        iter                  A_solv                     rms
   LPB:       -0.386769232881250E+00   0.179903872735477E+00
   LPB:    0  -0.386760022882805E+00   0.159598721447303E+00  -0.804720E-03   0.000000E+00   0.284446E+02  -0.228899E-01
   LPB:    1  -0.386634098350143E+00   0.308661925085240E-01   0.127188E-01   0.000000E+00   0.546327E+02  -0.131453E-17
   LPB:    2  -0.386616340661465E+00   0.171021367572062E-01   0.146393E-01   0.122519E+00   0.191521E+03  -0.290327E-15
   LPB:    3  -0.386607920027647E+00   0.125524355602980E-01   0.242092E-01   0.286746E+00   0.879797E+02  -0.337944E-15
   LPB:    4  -0.386586764587032E+00   0.305035943389003E-01   0.715643E-01   0.849886E+00   0.449679E+02  -0.385277E-15
   LPB:    5  -0.386566977061639E+00   0.146162909650614E-01   0.256263E-01   0.261204E+01   0.604399E+02  -0.586249E-15
   LPB:    6  -0.386559110050359E+00   0.385892122796261E-02   0.221562E-01   0.459843E+00   0.918280E+02  -0.814460E-15
   LPB:    7  -0.386555534050512E+00   0.254209168448428E-02   0.361183E-01   0.278840E+00   0.505326E+03  -0.899718E-15
   LPB:    8  -0.386550911694579E+00   0.175801102712780E-02   0.522398E-01   0.893701E+00   0.281497E+03  -0.958051E-15
  Finished solving LPB equations
  A_corr:   -0.313232699163627     
 End minimization
 Ecorr=   1649.98663742056     
 A_corr= -0.313232699163627     
 Ecorr_band=  -1650.29987011972     
 End Solvation calculations
RMM:  10    -0.135696571712E+03    0.54240E-04   -0.91389E-05  7077   0.375E-02
 Begin Solvation calculations
  rms_SCF =   2.078836714191542E-002 tol =   2.078836714191542E-003
 Begin minimization
 Creating dielectric and ionic cavities
  area:      139.684419208780     
  volume:    649.408859578128     
  Acav:     7.333432008460949E-002
  Solving linear dielectric/ionic screening model
        iter                  A_solv                     rms
   LPB:       -0.388436098295141E+00   0.364208838554352E+00
   LPB:    0  -0.388401426024545E+00   0.329981289886022E+00  -0.156136E-02   0.000000E+00   0.284450E+02  -0.444129E-01
   LPB:    1  -0.388013520303319E+00   0.574949200543761E-01   0.113873E-01   0.000000E+00   0.507934E+02  -0.121884E-17
   LPB:    2  -0.387961487504719E+00   0.176911711524020E-01   0.130605E-01   0.116953E+00   0.176036E+03  -0.272911E-15
   LPB:    3  -0.387953292480338E+00   0.764792150980254E-02   0.172130E-01   0.119502E+00   0.146623E+03  -0.318389E-15
   LPB:    4  -0.387951309349437E+00   0.611068142605410E-02   0.216516E-01   0.192384E+00   0.945080E+02  -0.340006E-15
   LPB:    5  -0.387950294087686E+00   0.364072560099698E-02   0.258656E-01   0.428543E+00   0.140893E+03  -0.358936E-15
   LPB:    6  -0.387949268821559E+00   0.163930882624643E-02   0.389769E-01   0.670154E+00   0.125133E+03  -0.328144E-15
  Finished solving LPB equations
  A_corr:   -0.314614948736950     
 End minimization
 Ecorr=   1649.44408451665     
 A_corr= -0.314614948736950     
 Ecorr_band=  -1649.75869946539     
 End Solvation calculations
   2 F= -.13569657E+03 E0= -.13569234E+03  d E =-.438455E-02
quench:  g(F)=  0.000E+00 g(S)=  0.000E+00 dE (1.order)= 0.000E+00
 bond charge predicted
       N       E                     dE             d eps       ncg     rms          rms(c)
 Begin Solvation calculations
  rms_SCF =   2.078836714191542E-002 tol =   2.078836714191542E-003
 Begin minimization
 Creating dielectric and ionic cavities
  area:      139.687115035408     
  volume:    649.409456907089     
  Acav:     7.333573539358904E-002
  Solving linear dielectric/ionic screening model
        iter                  A_solv                     rms
   LPB:       -0.388023200481144E+00   0.200035388917839E-02
   LPB:    0  -0.388023200481139E+00   0.200083360015254E-02  -0.203602E-07   0.000000E+00   0.284450E+02  -0.579145E-06
   LPB:    1  -0.387931690659130E+00   0.135007282651117E-02   0.163310E-01   0.000000E+00   0.148999E+06   0.167636E-22
   LPB:    2  -0.387920605604647E+00   0.197274158102980E-02   0.270320E-01   0.731819E-01   0.137465E+05  -0.214419E-17
   LPB:    3  -0.387916867962934E+00   0.391201432343988E-02   0.330180E-01   0.276050E+00   0.177937E+04  -0.965507E-17
   LPB:    4  -0.387915105964640E+00   0.652237064982171E-02   0.317594E-01   0.490102E+00   0.238855E+03  -0.426898E-18
   LPB:    5  -0.387914007919247E+00   0.479901356065103E-02   0.247860E-01   0.798511E+00   0.160158E+03  -0.994279E-18
   LPB:    6  -0.387912971661909E+00   0.419625525207447E-02   0.328855E-01   0.711295E+00   0.275752E+03  -0.148571E-16
   LPB:    7  -0.387912218500722E+00   0.650056558963465E-02   0.293169E-01   0.815278E+00   0.117693E+03  -0.561083E-16
   LPB:    8  -0.387911482879725E+00   0.348437109418954E-02   0.245922E-01   0.116436E+01   0.240586E+03  -0.857960E-16
   LPB:    9  -0.387910619500442E+00   0.161972090600688E-02   0.405497E-01   0.711800E+00   0.164200E+03  -0.121911E-15
  Finished solving LPB equations
  A_corr:   -0.314574884106853     
 End minimization
 Ecorr=   1649.35170686522     
 A_corr= -0.314574884106853     
 Ecorr_band=  -1649.66628174932     
 End Solvation calculations
DAV:   1    -0.135696712748E+03   -0.86796E-04   -0.70275E-03 13842   0.187E-01    0.266E-02
 Begin Solvation calculations
  rms_SCF =   1.883420214290897E-002 tol =   1.883420214290897E-003
 Begin minimization
 Creating dielectric and ionic cavities
  area:      139.681133531384     
  volume:    649.399563346406     
  Acav:     7.333259510397672E-002
  Solving linear dielectric/ionic screening model
        iter                  A_solv                     rms
   LPB:       -0.388094272806268E+00   0.158226960893807E+00
   LPB:    0  -0.388092384121009E+00   0.154876266906061E+00  -0.364408E-03   0.000000E+00   0.284454E+02  -0.103658E-01
   LPB:    1  -0.388031875030908E+00   0.130829941278607E-01   0.869834E-02   0.000000E+00   0.657733E+02  -0.711771E-19
   LPB:    2  -0.388028091833713E+00   0.277160294595171E-02   0.145467E-01   0.373861E-01   0.145461E+03  -0.684554E-16
   LPB:    3  -0.388027429104795E+00   0.157690045618584E-02   0.240431E-01   0.105987E+00   0.167161E+03  -0.681782E-16
   LPB:    4  -0.388027082680901E+00   0.288469695054191E-02   0.357932E-01   0.351125E+00   0.144718E+03  -0.646278E-16
   LPB:    5  -0.388026760645814E+00   0.271712237596256E-02   0.334323E-01   0.995245E+00   0.145227E+03  -0.752634E-16
   LPB:    6  -0.388026410747858E+00   0.157178617817792E-02   0.350726E-01   0.103571E+01   0.233188E+03  -0.934596E-16
  Finished solving LPB equations
  A_corr:   -0.314693815643881     
 End minimization
 Ecorr=   1649.29797976815     
 A_corr= -0.314693815643881     
 Ecorr_band=  -1649.61267358380     
 End Solvation calculations
RMM:   2    -0.135696771216E+03   -0.58468E-04   -0.36676E-04  7930   0.529E-02
 Begin Solvation calculations
  rms_SCF =   1.883420214290897E-002 tol =   1.883420214290897E-003
 Begin minimization
 Creating dielectric and ionic cavities
  area:      139.682633367523     
  volume:    649.399434252668     
  Acav:     7.333338251794971E-002
  Solving linear dielectric/ionic screening model
        iter                  A_solv                     rms
   LPB:       -0.387919923199586E+00   0.785416016239230E-01
   LPB:    0  -0.387919922883656E+00   0.785376227811284E-01  -0.471307E-05   0.000000E+00   0.284454E+02  -0.134065E-03
   LPB:    1  -0.387904579214153E+00   0.855916596547417E-02   0.909572E-02   0.000000E+00   0.601229E+02   0.104131E-19
   LPB:    2  -0.387902598451769E+00   0.202628978007796E-02   0.168925E-01   0.695100E-01   0.123531E+03  -0.234540E-17
   LPB:    3  -0.387902155707482E+00   0.163219834310781E-02   0.284138E-01   0.132887E+00   0.124625E+03  -0.246003E-17
   LPB:    4  -0.387901925175227E+00   0.158848893632107E-02   0.358033E-01   0.413223E+00   0.184434E+03  -0.639948E-17
  Finished solving LPB equations
  A_corr:   -0.314568542657277     
 End minimization
 Ecorr=   1649.29412761722     
 A_corr= -0.314568542657277     
 Ecorr_band=  -1649.60869615988     
 End Solvation calculations
   3 F= -.13569677E+03 E0= -.13569254E+03  d E =-.199504E-03
quench:  g(F)=  0.000E+00 g(S)=  0.000E+00 dE (1.order)= 0.000E+00
 reached required accuracy - stopping structural energy minimisation
