 vasp.5.4.4.18Apr17-6-g9f103f2a35 (build Feb 06 2024 13:54:16) complex          
  
 POSCAR found type information on POSCAR  Ru N  O 
 05/POSCAR found :  3 types and      40 ions
 scaLAPACK will be used

 ----------------------------------------------------------------------------- 
|                                                                             |
|  ADVICE TO THIS USER RUNNING 'VASP/VAMP'   (HEAR YOUR MASTER'S VOICE ...):  |
|                                                                             |
|      You enforced a specific xc-type in the INCAR file,                     |
|      a different type was found on the POTCAR file                          |
|          I HOPE YOU KNOW, WHAT YOU ARE  DOING                               |
|                                                                             |
 ----------------------------------------------------------------------------- 

 LDA part: xc-table for Pade appr. of Perdew
 POSCAR found type information on POSCAR  Ru N  O 
 00/POSCAR found :  3 types and      40 ions
 POSCAR found type information on POSCAR  Ru N  O 
 06/POSCAR found :  3 types and      40 ions
 Jacobian:    20.4921819155783     
 POSCAR, INCAR and KPOINTS ok, starting setup
 FFT: planning ...
 WAVECAR not read
 entering main loop
       N       E                     dE             d eps       ncg     rms          rms(c)
  Solvation turned off during non-self-consistent phase (first NELMDL steps)
DAV:   1     0.590786041647E+04    0.59079E+04   -0.33070E+05 18774   0.163E+03
DAV:   2    -0.789226258685E+02   -0.59868E+04   -0.57758E+04 16293   0.480E+02
DAV:   3    -0.330697340641E+03   -0.25177E+03   -0.23611E+03 20286   0.888E+01
DAV:   4    -0.342468248325E+03   -0.11771E+02   -0.11427E+02 19089   0.147E+01
DAV:   5    -0.342923531208E+03   -0.45528E+00   -0.44898E+00 21393   0.262E+00    0.665E+01
 Begin Solvation calculations
  rms_SCF =    5.43311765065284      tol =   0.543311765065284     
 Begin minimization
 Creating dielectric and ionic cavities
  area:      164.390509245686     
  volume:    748.676053651016     
  Acav:     8.630501735398492E-002
  Solving linear dielectric/ionic screening model
        iter                  A_solv                     rms
   LPB:       -0.746338220401336E+03   0.376489222027224E+03
   LPB:    0  -0.204250737518581E+01   0.902480314204982E+01  -0.720332E+01   0.000000E+00   0.286886E+02  -0.206653E+03
   LPB:    1  -0.558659733469312E+00   0.471393216586976E+01   0.138916E-01   0.000000E+00   0.187542E+03   0.494673E-14
   LPB:    2  -0.335834169523196E+00   0.165815236987174E+01   0.148835E-01   0.140160E+00   0.850589E+02   0.363317E-15
   LPB:    3  -0.226812031726013E+00   0.859518907465689E+00   0.250145E-01   0.291113E+00   0.769992E+02  -0.503132E-15
   LPB:    4  -0.182080737743263E+00   0.101985926093725E+01   0.249828E-01   0.410817E+00   0.300978E+03   0.340330E-14
   LPB:    5  -0.156619450786479E+00   0.347917649766058E+00   0.243967E-01   0.582878E+00   0.460817E+02   0.707876E-14
  Finished solving LPB equations
  A_corr:   -7.031443343249440E-002
 End minimization
 Ecorr=   3673.11703010849     
 A_corr= -7.031443343249440E-002
 Ecorr_band=  -3673.18734454193     
 End Solvation calculations
RMM:   6    -0.326790660758E+03    0.16133E+02   -0.99680E+01 15272   0.194E+01    0.305E+01
 Begin Solvation calculations
  rms_SCF =    5.43311765065284      tol =   0.543311765065284     
 Begin minimization
 Creating dielectric and ionic cavities
  area:      154.829014530323     
  volume:    735.633069295406     
  Acav:     8.128523262841973E-002
  Solving linear dielectric/ionic screening model
        iter                  A_solv                     rms
   LPB:       -0.504321595587324E+01   0.403379535674514E+02
   LPB:    0  -0.171472387210382E+01   0.163395941510586E+02  -0.476655E+00   0.000000E+00   0.293001E+02  -0.139660E+02
   LPB:    1  -0.387348311307912E+00   0.157627747554214E+01   0.108660E-01   0.000000E+00   0.474065E+02  -0.104367E-15
   LPB:    2  -0.298239004292408E+00   0.574718026048888E+00   0.177213E-01   0.411625E-01   0.111159E+03   0.485926E-13
   LPB:    3  -0.258864385521053E+00   0.821333503036758E+00   0.329672E-01   0.237524E+00   0.727596E+02   0.519751E-13
   LPB:    4  -0.232923822706280E+00   0.112148571153731E+01   0.242869E-01   0.894276E+00   0.533074E+02   0.568194E-13
   LPB:    5  -0.217223251047483E+00   0.371710133094779E+00   0.208578E-01   0.704760E+00   0.672318E+02   0.624214E-13
  Finished solving LPB equations
  A_corr:   -0.135938018419063     
 End minimization
 Ecorr=   3687.63963837064     
 A_corr= -0.135938018419063     
 Ecorr_band=  -3687.77557638906     
 End Solvation calculations
RMM:   7    -0.411763988570E+03   -0.84973E+02   -0.15065E+02 15721   0.179E+01    0.851E+01
 Begin Solvation calculations
  rms_SCF =    5.43311765065284      tol =   0.543311765065284     
 Begin minimization
 Creating dielectric and ionic cavities
  area:      141.178550387089     
  volume:    753.653979503525     
  Acav:     7.411873895322177E-002
  Solving linear dielectric/ionic screening model
        iter                  A_solv                     rms
   LPB:       -0.610084407199776E+01   0.419285397701269E+02
   LPB:    0  -0.101075406375663E+01   0.121944356446901E+02   0.598131E+00   0.000000E+00   0.284552E+02   0.170200E+02
   LPB:    1  -0.222842992711643E+00   0.705626486082562E+00   0.101699E-01   0.000000E+00   0.600597E+02   0.546977E-15
   LPB:    2  -0.204500025323254E+00   0.539020767964025E+00   0.163964E-01   0.144398E-01   0.169353E+03  -0.152947E-13
   LPB:    3  -0.199475319877942E+00   0.431667292669785E+00   0.209818E-01   0.214065E+00   0.692612E+02  -0.135140E-13
   LPB:    4  -0.196275287533251E+00   0.187914601954594E+00   0.235321E-01   0.567841E+00   0.234507E+03  -0.127973E-13
  Finished solving LPB equations
  A_corr:   -0.122156548580030     
 End minimization
 Ecorr=   3477.55442964025     
 A_corr= -0.122156548580030     
 Ecorr_band=  -3477.67658618883     
 End Solvation calculations
RMM:   8    -0.319381537612E+03    0.92382E+02   -0.41535E+01 15268   0.984E+00    0.124E+01
 Begin Solvation calculations
  rms_SCF =    5.43311765065284      tol =   0.543311765065284     
 Begin minimization
 Creating dielectric and ionic cavities
  area:      141.570893760556     
  volume:    749.325637039851     
  Acav:     7.432471922429176E-002
  Solving linear dielectric/ionic screening model
        iter                  A_solv                     rms
   LPB:       -0.275592390080570E+01   0.287624949496318E+02
   LPB:    0  -0.275555016525199E+01   0.287759405092123E+02   0.510708E-02   0.000000E+00   0.286582E+02   0.146360E+00
   LPB:    1  -0.474824218929919E+00   0.286868481148555E+01   0.916876E-02   0.000000E+00   0.653327E+02  -0.345284E-17
   LPB:    2  -0.268533507477127E+00   0.495218022919995E+00   0.171250E-01   0.484269E-01   0.108872E+03  -0.482036E-15
   LPB:    3  -0.237068697304941E+00   0.220180831357146E+00   0.228905E-01   0.114109E+00   0.234548E+03   0.973314E-16
   LPB:    4  -0.226565154420197E+00   0.121426210901603E+00   0.295305E-01   0.258758E+00   0.188385E+03  -0.518602E-15
  Finished solving LPB equations
  A_corr:   -0.152240435195905     
 End minimization
 Ecorr=   3442.15299131882     
 A_corr= -0.152240435195905     
 Ecorr_band=  -3442.30523175401     
 End Solvation calculations
RMM:   9    -0.329845605376E+03   -0.10464E+02   -0.13501E+01 15870   0.447E+00    0.295E+01
 Begin Solvation calculations
  rms_SCF =    5.43311765065284      tol =   0.543311765065284     
 Begin minimization
 Creating dielectric and ionic cavities
  area:      145.180538038228     
  volume:    748.628861707343     
  Acav:     7.621978247006980E-002
  Solving linear dielectric/ionic screening model
        iter                  A_solv                     rms
   LPB:       -0.317576424118931E+01   0.314005023664872E+02
   LPB:    0  -0.316173321022695E+01   0.313292484313230E+02   0.312743E-01   0.000000E+00   0.286908E+02   0.897287E+00
   LPB:    1  -0.474605298796458E+00   0.292139706891231E+01   0.912093E-02   0.000000E+00   0.657906E+02   0.566538E-16
   LPB:    2  -0.263904456049811E+00   0.482919719570671E+00   0.163619E-01   0.437102E-01   0.120681E+03   0.695560E-15
   LPB:    3  -0.233949675448037E+00   0.174409139473674E+00   0.217321E-01   0.107036E+00   0.267499E+03   0.640340E-15
   LPB:    4  -0.226625204096652E+00   0.109024366452175E+00   0.278633E-01   0.190713E+00   0.334707E+03   0.275444E-15
  Finished solving LPB equations
  A_corr:   -0.150405421626583     
 End minimization
 Ecorr=   3430.02572185277     
 A_corr= -0.150405421626583     
 Ecorr_band=  -3430.17612727440     
 End Solvation calculations
RMM:  10    -0.318165593134E+03    0.11680E+02   -0.25635E+00 15550   0.203E+00    0.676E+00
 Begin Solvation calculations
  rms_SCF =    3.97767364875317      tol =   0.397767364875317     
 Begin minimization
 Creating dielectric and ionic cavities
  area:      138.130848204079     
  volume:    746.213001861666     
  Acav:     7.251869530714158E-002
  Solving linear dielectric/ionic screening model
        iter                  A_solv                     rms
   LPB:       -0.275115747026633E+00   0.341460353344487E+01
   LPB:    0  -0.274969926603555E+00   0.344503057867760E+01   0.318198E-02   0.000000E+00   0.288041E+02   0.916540E-01
   LPB:    1  -0.237344052298307E+00   0.444490220725936E+00   0.976563E-02   0.000000E+00   0.639344E+02   0.588378E-17
   LPB:    2  -0.230514430149633E+00   0.121874871801233E+00   0.195250E-01   0.907859E-01   0.108151E+03   0.136765E-14
   LPB:    3  -0.228438490637213E+00   0.172557821024648E+00   0.294082E-01   0.201810E+00   0.332136E+03   0.322385E-14
   LPB:    4  -0.225760918272738E+00   0.176202741272847E+00   0.471214E-01   0.804964E+00   0.375327E+02   0.382495E-14
  Finished solving LPB equations
  A_corr:   -0.153242222965596     
 End minimization
 Ecorr=   3406.50552942847     
 A_corr= -0.153242222965596     
 Ecorr_band=  -3406.65877165144     
 End Solvation calculations
RMM:  11    -0.317837784915E+03    0.32781E+00   -0.12025E+00 15350   0.160E+00    0.460E+00
 Begin Solvation calculations
  rms_SCF =    3.78806610902066      tol =   0.378806610902066     
 Begin minimization
 Creating dielectric and ionic cavities
  area:      137.827399688432     
  volume:    739.662163699493     
  Acav:     7.235938483642691E-002
  Solving linear dielectric/ionic screening model
        iter                  A_solv                     rms
   LPB:       -0.346423019142266E+00   0.402375698108250E+01
   LPB:    0  -0.345815336436102E+00   0.413752447318273E+01   0.646135E-02   0.000000E+00   0.291112E+02   0.188098E+00
   LPB:    1  -0.267591478876035E+00   0.718251608482605E+00   0.103421E-01   0.000000E+00   0.765028E+02   0.492109E-17
   LPB:    2  -0.259597809907545E+00   0.141014885195904E+00   0.137452E-01   0.768895E-01   0.185471E+03   0.804954E-14
   LPB:    3  -0.256760958658533E+00   0.232804489180352E+00   0.330521E-01   0.147584E+00   0.313372E+03   0.844599E-14
   LPB:    4  -0.253706603287838E+00   0.220835433943262E+00   0.360104E-01   0.988222E+00   0.439523E+02   0.890365E-14
  Finished solving LPB equations
  A_corr:   -0.181347218451411     
 End minimization
 Ecorr=   3373.26890080877     
 A_corr= -0.181347218451411     
 Ecorr_band=  -3373.45024802722     
 End Solvation calculations
RMM:  12    -0.317742902289E+03    0.94883E-01   -0.31411E-01 15603   0.864E-01    0.326E+00
 Begin Solvation calculations
  rms_SCF =    1.68929399215608      tol =   0.168929399215608     
 Begin minimization
 Creating dielectric and ionic cavities
  area:      137.858862383311     
  volume:    735.892233017638     
  Acav:     7.237590275123840E-002
  Solving linear dielectric/ionic screening model
        iter                  A_solv                     rms
   LPB:       -0.294410832365239E+00   0.120245582611074E+01
   LPB:    0  -0.292125541129693E+00   0.136801074993802E+01   0.124923E-01   0.000000E+00   0.292879E+02   0.365873E+00
   LPB:    1  -0.275225735571388E+00   0.532947489431544E+00   0.121187E-01   0.000000E+00   0.104419E+03   0.445775E-17
   LPB:    2  -0.272598294956877E+00   0.148474921568690E+00   0.152799E-01   0.123306E+00   0.111773E+03  -0.999735E-15
   LPB:    3  -0.269779751423782E+00   0.197318149122412E+00   0.442417E-01   0.370494E+00   0.113719E+03  -0.945807E-15
   LPB:    4  -0.267022511796411E+00   0.244728315469961E+00   0.357195E-01   0.121165E+01   0.418219E+02  -0.642995E-15
   LPB:    5  -0.264663659441938E+00   0.179010121994525E+00   0.288316E-01   0.105990E+01   0.134796E+03  -0.235741E-14
   LPB:    6  -0.263268910107530E+00   0.577122753229127E-01   0.286352E-01   0.595339E+00   0.489298E+02  -0.321109E-14
  Finished solving LPB equations
  A_corr:   -0.190893007356292     
 End minimization
 Ecorr=   3337.40210472515     
 A_corr= -0.190893007356292     
 Ecorr_band=  -3337.59299773251     
 End Solvation calculations
RMM:  13    -0.317693226352E+03    0.49676E-01   -0.25115E-01 15350   0.779E-01    0.270E+00
 Begin Solvation calculations
  rms_SCF =    1.68929399215608      tol =   0.168929399215608     
 Begin minimization
 Creating dielectric and ionic cavities
  area:      138.917733365463     
  volume:    729.015601903271     
  Acav:     7.293181001686820E-002
  Solving linear dielectric/ionic screening model
        iter                  A_solv                     rms
   LPB:       -0.361270234926098E+00   0.118029044540546E+01
   LPB:    0  -0.354663342591040E+00   0.186386764748694E+01   0.211248E-01   0.000000E+00   0.296103E+02   0.625511E+00
   LPB:    1  -0.302599388377933E+00   0.764379243852943E+00   0.137290E-01   0.000000E+00   0.107685E+03   0.436012E-16
   LPB:    2  -0.296119893877142E+00   0.211494380297693E+00   0.155959E-01   0.109555E+00   0.106074E+03  -0.316217E-14
   LPB:    3  -0.294260360905644E+00   0.167143477978275E+00   0.213011E-01   0.210121E+00   0.260323E+03  -0.246661E-14
   LPB:    4  -0.293241899563403E+00   0.192209531057780E+00   0.244476E-01   0.477208E+00   0.973555E+02  -0.218744E-14
   LPB:    5  -0.292105457790549E+00   0.145123010899630E+00   0.315385E-01   0.864962E+00   0.199676E+03  -0.173376E-14
  Finished solving LPB equations
  A_corr:   -0.219173647773681     
 End minimization
 Ecorr=   3305.34591528861     
 A_corr= -0.219173647773681     
 Ecorr_band=  -3305.56508893638     
 End Solvation calculations
RMM:  14    -0.317656520102E+03    0.36706E-01   -0.97753E-02 15385   0.502E-01    0.168E+00
 Begin Solvation calculations
  rms_SCF =    1.68929399215608      tol =   0.168929399215608     
 Begin minimization
 Creating dielectric and ionic cavities
  area:      139.262952855390     
  volume:    727.450304876569     
  Acav:     7.311305024907949E-002
  Solving linear dielectric/ionic screening model
        iter                  A_solv                     rms
   LPB:       -0.304664558602600E+00   0.393330179319707E+00
   LPB:    0  -0.304280666480944E+00   0.569031444187433E+00   0.508581E-02   0.000000E+00   0.296837E+02   0.150966E+00
   LPB:    1  -0.299961659689781E+00   0.201750630498881E+00   0.140683E-01   0.000000E+00   0.920957E+02   0.697680E-17
   LPB:    2  -0.299207830255517E+00   0.824986426360401E-01   0.177704E-01   0.138176E+00   0.131700E+03   0.136680E-14
   LPB:    3  -0.298273775327134E+00   0.122267273745698E+00   0.629853E-01   0.349589E+00   0.833865E+02   0.249330E-14
   LPB:    4  -0.297130763698827E+00   0.246067201571469E+00   0.331468E-01   0.232528E+01   0.539904E+02   0.416684E-14
   LPB:    5  -0.296357334498459E+00   0.910739229502193E-01   0.195301E-01   0.114844E+01   0.984222E+02   0.622800E-14
  Finished solving LPB equations
  A_corr:   -0.223244284249379     
 End minimization
 Ecorr=   3288.82246935683     
 A_corr= -0.223244284249379     
 Ecorr_band=  -3289.04571364108     
 End Solvation calculations
RMM:  15    -0.317636664723E+03    0.19855E-01   -0.40490E-02 15664   0.304E-01    0.127E+00
 Begin Solvation calculations
  rms_SCF =    1.68929399215608      tol =   0.168929399215608     
 Begin minimization
 Creating dielectric and ionic cavities
  area:      139.816674183036     
  volume:    724.952556640062     
  Acav:     7.340375394609400E-002
  Solving linear dielectric/ionic screening model
        iter                  A_solv                     rms
   LPB:       -0.322614075928935E+00   0.103348769388864E+01
   LPB:    0  -0.322266995130081E+00   0.115264110533429E+01   0.482632E-02   0.000000E+00   0.298008E+02   0.143828E+00
   LPB:    1  -0.308032426928745E+00   0.316201143046956E+00   0.141647E-01   0.000000E+00   0.885145E+02  -0.355484E-17
   LPB:    2  -0.306174263612289E+00   0.120857477194819E+00   0.147014E-01   0.125774E+00   0.175787E+03  -0.193085E-14
   LPB:    3  -0.305719896264215E+00   0.116008875643986E+00   0.223438E-01   0.160888E+00   0.109345E+03  -0.290755E-14
   LPB:    4  -0.305490776045323E+00   0.770699325859404E-01   0.211543E-01   0.532615E+00   0.145385E+03  -0.284340E-14
  Finished solving LPB equations
  A_corr:   -0.232087022099229     
 End minimization
 Ecorr=   3278.82875153395     
 A_corr= -0.232087022099229     
 Ecorr_band=  -3279.06083855604     
 End Solvation calculations
RMM:  16    -0.317627431279E+03    0.92334E-02   -0.16312E-02 15637   0.175E-01    0.912E-01
 Begin Solvation calculations
  rms_SCF =    1.48489628570300      tol =   0.148489628570300     
 Begin minimization
 Creating dielectric and ionic cavities
  area:      140.217048063111     
  volume:    723.370156056178     
  Acav:     7.361395023313314E-002
  Solving linear dielectric/ionic screening model
        iter                  A_solv                     rms
   LPB:       -0.321498562635561E+00   0.788287825611168E+00
   LPB:    0  -0.321424971889287E+00   0.835863054743031E+00   0.221959E-02   0.000000E+00   0.298750E+02   0.663102E-01
   LPB:    1  -0.313708435822561E+00   0.217263586435027E+00   0.143681E-01   0.000000E+00   0.944811E+02  -0.440203E-17
   LPB:    2  -0.312715484977663E+00   0.118192784644601E+00   0.153992E-01   0.120062E+00   0.171748E+03   0.163441E-14
   LPB:    3  -0.312259845062615E+00   0.124674083721807E+00   0.268586E-01   0.263092E+00   0.772326E+02   0.183802E-14
   LPB:    4  -0.311902096456005E+00   0.103182252579260E+00   0.263394E-01   0.800636E+00   0.124746E+03   0.216668E-14
  Finished solving LPB equations
  A_corr:   -0.238288146222872     
 End minimization
 Ecorr=   3272.11605876266     
 A_corr= -0.238288146222872     
 Ecorr_band=  -3272.35434690888     
 End Solvation calculations
RMM:  17    -0.317623043435E+03    0.43878E-02   -0.79142E-03 15228   0.131E-01    0.637E-01
 Begin Solvation calculations
  rms_SCF =    1.16991314088845      tol =   0.116991314088845     
 Begin minimization
 Creating dielectric and ionic cavities
  area:      140.749675185578     
  volume:    721.637592768691     
  Acav:     7.389357947242847E-002
  Solving linear dielectric/ionic screening model
        iter                  A_solv                     rms
   LPB:       -0.336178170614985E+00   0.968309616284502E+00
   LPB:    0  -0.336170396433761E+00   0.985894089936417E+00   0.720442E-03   0.000000E+00   0.299562E+02   0.215817E-01
   LPB:    1  -0.323264121163812E+00   0.273555990881013E+00   0.144657E-01   0.000000E+00   0.112090E+03  -0.160993E-18
   LPB:    2  -0.321801600891405E+00   0.116662001131069E+00   0.159802E-01   0.102579E+00   0.124019E+03   0.653556E-16
   LPB:    3  -0.321119438788042E+00   0.989373809314082E-01   0.308800E-01   0.241374E+00   0.794472E+02   0.104276E-14
   LPB:    4  -0.320534250228205E+00   0.142616207835781E+00   0.343894E-01   0.770301E+00   0.197902E+03   0.112053E-14
   LPB:    5  -0.320104735029523E+00   0.130333264952349E+00   0.238064E-01   0.106026E+01   0.885974E+02   0.106504E-14
   LPB:    6  -0.319690520570634E+00   0.429903558103752E-01   0.275841E-01   0.832306E+00   0.930883E+02   0.100034E-14
  Finished solving LPB equations
  A_corr:   -0.245796941098205     
 End minimization
 Ecorr=   3263.46461387931     
 A_corr= -0.245796941098205     
 Ecorr_band=  -3263.71041082041     
 End Solvation calculations
RMM:  18    -0.317628506271E+03   -0.54628E-02   -0.45502E-03 13712   0.912E-02    0.883E-01
 Begin Solvation calculations
  rms_SCF =    1.16991314088845      tol =   0.116991314088845     
 Begin minimization
 Creating dielectric and ionic cavities
  area:      141.243295925186     
  volume:    720.230658196323     
  Acav:     7.415273036072249E-002
  Solving linear dielectric/ionic screening model
        iter                  A_solv                     rms
   LPB:       -0.344657959549418E+00   0.116112433265837E+01
   LPB:    0  -0.344657865137443E+00   0.115944045845398E+01  -0.793062E-04   0.000000E+00   0.300222E+02  -0.238095E-02
   LPB:    1  -0.330560082833263E+00   0.278908418988048E+00   0.143666E-01   0.000000E+00   0.930484E+02   0.167864E-18
   LPB:    2  -0.328915091234328E+00   0.126598217394362E+00   0.146574E-01   0.114369E+00   0.179010E+03  -0.319801E-15
   LPB:    3  -0.328544438283497E+00   0.874857790199222E-01   0.196859E-01   0.167766E+00   0.102845E+03   0.100873E-14
   LPB:    4  -0.328326173903015E+00   0.946035042891051E-01   0.254557E-01   0.455392E+00   0.157789E+03   0.929857E-15
  Finished solving LPB equations
  A_corr:   -0.254173443542293     
 End minimization
 Ecorr=   3258.05391085925     
 A_corr= -0.254173443542293     
 Ecorr_band=  -3258.30808430279     
 End Solvation calculations
RMM:  19    -0.317626189153E+03    0.23171E-02   -0.51543E-03 12984   0.935E-02    0.706E-01
 Begin Solvation calculations
  rms_SCF =    1.16991314088845      tol =   0.116991314088845     
 Begin minimization
 Creating dielectric and ionic cavities
  area:      141.848768582657     
  volume:    718.958577463162     
  Acav:     7.447060350589474E-002
  Solving linear dielectric/ionic screening model
        iter                  A_solv                     rms
   LPB:       -0.374451882652062E+00   0.185729623231282E+01
   LPB:    0  -0.374441364424205E+00   0.184314079584804E+01  -0.836246E-03   0.000000E+00   0.300818E+02  -0.251558E-01
   LPB:    1  -0.346450322324673E+00   0.414816717286780E+00   0.142303E-01   0.000000E+00   0.772194E+02  -0.107492E-17
   LPB:    2  -0.343225890342289E+00   0.211193844898682E+00   0.139181E-01   0.117779E+00   0.211326E+03   0.396299E-15
   LPB:    3  -0.342138317466445E+00   0.147428674850379E+00   0.219692E-01   0.213684E+00   0.957007E+02   0.551400E-15
   LPB:    4  -0.341405547762945E+00   0.137564482976860E+00   0.261884E-01   0.565216E+00   0.144144E+03   0.906957E-15
   LPB:    5  -0.340786597351706E+00   0.102710816192252E+00   0.295166E-01   0.749430E+00   0.104756E+03   0.136803E-14
  Finished solving LPB equations
  A_corr:   -0.266315993845811     
 End minimization
 Ecorr=   3251.90989077861     
 A_corr= -0.266315993845811     
 Ecorr_band=  -3252.17620677246     
 End Solvation calculations
RMM:  20    -0.317626762827E+03   -0.57367E-03   -0.56166E-03 12976   0.918E-02    0.629E-01
 Begin Solvation calculations
  rms_SCF =    1.16991314088845      tol =   0.116991314088845     
 Begin minimization
 Creating dielectric and ionic cavities
  area:      142.131193879478     
  volume:    718.558134258622     
  Acav:     7.461887678672610E-002
  Solving linear dielectric/ionic screening model
        iter                  A_solv                     rms
   LPB:       -0.357206127497499E+00   0.105769252115166E+01
   LPB:    0  -0.357179923990624E+00   0.102980189908210E+01  -0.131949E-02   0.000000E+00   0.301006E+02  -0.397175E-01
   LPB:    1  -0.349042444695940E+00   0.229357024855249E+00   0.141459E-01   0.000000E+00   0.703683E+02   0.214340E-17
   LPB:    2  -0.348089252694902E+00   0.995408245808437E-01   0.137667E-01   0.120362E+00   0.210913E+03   0.427095E-15
   LPB:    3  -0.347722031321079E+00   0.112316152741765E+00   0.270707E-01   0.195920E+00   0.922075E+02   0.923932E-16
   LPB:    4  -0.347199157379832E+00   0.138480500555540E+00   0.362021E-01   0.106472E+01   0.834992E+02  -0.391020E-15
   LPB:    5  -0.346568491396100E+00   0.900000077882450E-01   0.321537E-01   0.135802E+01   0.780768E+02  -0.140925E-14
  Finished solving LPB equations
  A_corr:   -0.271949614609374     
 End minimization
 Ecorr=   3246.61291573880     
 A_corr= -0.271949614609374     
 Ecorr_band=  -3246.88486535341     
 End Solvation calculations
RMM:  21    -0.317627798620E+03   -0.10358E-02   -0.22005E-03 12895   0.636E-02    0.694E-01
 Begin Solvation calculations
  rms_SCF =    1.16991314088845      tol =   0.116991314088845     
 Begin minimization
 Creating dielectric and ionic cavities
  area:      142.325638130356     
  volume:    718.591023739924     
  Acav:     7.472096001843677E-002
  Solving linear dielectric/ionic screening model
        iter                  A_solv                     rms
   LPB:       -0.366340451822603E+00   0.152957884401339E+01
   LPB:    0  -0.366049326238529E+00   0.145701198935916E+01  -0.439824E-02   0.000000E+00   0.300991E+02  -0.132383E+00
   LPB:    1  -0.354526008492071E+00   0.307752710089277E+00   0.131311E-01   0.000000E+00   0.606131E+02   0.343254E-17
   LPB:    2  -0.353204770682334E+00   0.927904199741206E-01   0.121615E-01   0.123799E+00   0.258885E+03   0.876301E-15
   LPB:    3  -0.352962644304960E+00   0.494440246273487E-01   0.194338E-01   0.114681E+00   0.146004E+03   0.101361E-14
   LPB:    4  -0.352790592641583E+00   0.700637648481012E-01   0.332178E-01   0.415723E+00   0.933911E+02   0.114885E-14
  Finished solving LPB equations
  A_corr:   -0.278069632623147     
 End minimization
 Ecorr=   3243.91246795497     
 A_corr= -0.278069632623147     
 Ecorr_band=  -3244.19053758759     
 End Solvation calculations
RMM:  22    -0.317624385753E+03    0.34129E-02   -0.21359E-03 12547   0.510E-02    0.403E-01
 Begin Solvation calculations
  rms_SCF =   0.877759132628985      tol =   8.777591326289849E-002
 Begin minimization
 Creating dielectric and ionic cavities
  area:      142.589225634107     
  volume:    718.586482765404     
  Acav:     7.485934345790596E-002
  Solving linear dielectric/ionic screening model
        iter                  A_solv                     rms
   LPB:       -0.380864558548043E+00   0.174245983263013E+01
   LPB:    0  -0.380543874937005E+00   0.168224464834442E+01  -0.461610E-02   0.000000E+00   0.300993E+02  -0.138941E+00
   LPB:    1  -0.364728856574258E+00   0.356386104186516E+00   0.133311E-01   0.000000E+00   0.617260E+02  -0.300097E-17
   LPB:    2  -0.362917921314392E+00   0.135489496372689E+00   0.125615E-01   0.121523E+00   0.241239E+03   0.659758E-15
   LPB:    3  -0.362365321556661E+00   0.635803355047475E-01   0.224481E-01   0.170753E+00   0.113053E+03   0.619628E-15
   LPB:    4  -0.361972624360225E+00   0.859062645533056E-01   0.328065E-01   0.486258E+00   0.124802E+03   0.557514E-15
  Finished solving LPB equations
  A_corr:   -0.287113280902319     
 End minimization
 Ecorr=   3241.26548625100     
 A_corr= -0.287113280902319     
 Ecorr_band=  -3241.55259953191     
 End Solvation calculations
RMM:  23    -0.317624739158E+03   -0.35341E-03   -0.28310E-03 12548   0.632E-02    0.247E-01
 Begin Solvation calculations
  rms_SCF =   0.529336536660733      tol =   5.293365366607331E-002
 Begin minimization
 Creating dielectric and ionic cavities
  area:      142.825104837137     
  volume:    718.527828733329     
  Acav:     7.498318003949667E-002
  Solving linear dielectric/ionic screening model
        iter                  A_solv                     rms
   LPB:       -0.380652550536581E+00   0.122510614331892E+01
   LPB:    0  -0.380536376621263E+00   0.118937139598393E+01  -0.277825E-02   0.000000E+00   0.301020E+02  -0.836310E-01
   LPB:    1  -0.372067522537597E+00   0.255407067567060E+00   0.137141E-01   0.000000E+00   0.623797E+02   0.587701E-17
   LPB:    2  -0.371125688112745E+00   0.111809121010146E+00   0.128882E-01   0.118338E+00   0.236354E+03  -0.685921E-16
   LPB:    3  -0.370667800234285E+00   0.694463655367206E-01   0.277906E-01   0.225465E+00   0.916235E+02  -0.946673E-17
   LPB:    4  -0.370129855132335E+00   0.977257553307520E-01   0.397422E-01   0.821534E+00   0.948716E+02   0.217466E-16
   LPB:    5  -0.369706214761308E+00   0.962179963577995E-01   0.291034E-01   0.107539E+01   0.102899E+03   0.434644E-16
   LPB:    6  -0.369389970112759E+00   0.447828498583292E-01   0.294532E-01   0.737626E+00   0.960006E+02   0.409056E-15
  Finished solving LPB equations
  A_corr:   -0.294406790073262     
 End minimization
 Ecorr=   3236.99429199700     
 A_corr= -0.294406790073262     
 Ecorr_band=  -3237.28869878708     
 End Solvation calculations
RMM:  24    -0.317626399109E+03   -0.16600E-02   -0.15758E-03 12331   0.607E-02    0.451E-01
 Begin Solvation calculations
  rms_SCF =   0.529336536660733      tol =   5.293365366607331E-002
 Begin minimization
 Creating dielectric and ionic cavities
  area:      143.037447458835     
  volume:    718.613874970777     
  Acav:     7.509465991588843E-002
  Solving linear dielectric/ionic screening model
        iter                  A_solv                     rms
   LPB:       -0.394635725993175E+00   0.168971483476092E+01
   LPB:    0  -0.394283243469337E+00   0.162441241773524E+01  -0.483966E-02   0.000000E+00   0.300980E+02  -0.145664E+00
   LPB:    1  -0.381097910777103E+00   0.333905097944144E+00   0.128668E-01   0.000000E+00   0.590373E+02   0.712500E-17
   LPB:    2  -0.379491755983960E+00   0.104763840904973E+00   0.124560E-01   0.125831E+00   0.248857E+03   0.722244E-15
   LPB:    3  -0.379175116957598E+00   0.364254884585527E-01   0.184980E-01   0.132749E+00   0.160159E+03   0.808019E-15
   LPB:    4  -0.379028091502372E+00   0.516445838063773E-01   0.316030E-01   0.271784E+00   0.148745E+03   0.110961E-14
  Finished solving LPB equations
  A_corr:   -0.303933431586484     
 End minimization
 Ecorr=   3234.77776843122     
 A_corr= -0.303933431586484     
 Ecorr_band=  -3235.08170186280     
 End Solvation calculations
RMM:  25    -0.317624980718E+03    0.14184E-02   -0.27938E-03 12597   0.614E-02    0.224E-01
 Begin Solvation calculations
  rms_SCF =   0.458362516107790      tol =   4.583625161077901E-002
 Begin minimization
 Creating dielectric and ionic cavities
  area:      143.187713501563     
  volume:    718.866502802580     
  Acav:     7.517354958832037E-002
  Solving linear dielectric/ionic screening model
        iter                  A_solv                     rms
   LPB:       -0.403560110780128E+00   0.175785138890326E+01
   LPB:    0  -0.402999232074145E+00   0.167582326001703E+01  -0.610613E-02   0.000000E+00   0.300861E+02  -0.183710E+00
   LPB:    1  -0.390646205770251E+00   0.323722227008425E+00   0.123008E-01   0.000000E+00   0.569413E+02   0.143489E-17
   LPB:    2  -0.389148110463468E+00   0.993399218699696E-01   0.124157E-01   0.120151E+00   0.224166E+03   0.508426E-15
   LPB:    3  -0.388749291342520E+00   0.412934932134538E-01   0.235573E-01   0.140308E+00   0.116806E+03   0.522846E-15
   LPB:    4  -0.388428857899134E+00   0.621268158456475E-01   0.389155E-01   0.486366E+00   0.103301E+03   0.678743E-15
   LPB:    5  -0.388155079219968E+00   0.821909136085415E-01   0.341042E-01   0.974937E+00   0.114408E+03   0.893889E-15
   LPB:    6  -0.387908136858884E+00   0.493026754396415E-01   0.308627E-01   0.996715E+00   0.744544E+02   0.116439E-14
   LPB:    7  -0.387715210730007E+00   0.190023573594237E-01   0.325898E-01   0.739857E+00   0.251592E+03   0.145309E-14
  Finished solving LPB equations
  A_corr:   -0.312541661141687     
 End minimization
 Ecorr=   3231.06784216183     
 A_corr= -0.312541661141687     
 Ecorr_band=  -3231.38038382297     
 End Solvation calculations
RMM:  26    -0.317626422619E+03   -0.14419E-02   -0.18365E-03 12253   0.553E-02    0.422E-01
 Begin Solvation calculations
  rms_SCF =   0.458362516107790      tol =   4.583625161077901E-002
 Begin minimization
 Creating dielectric and ionic cavities
  area:      143.223547452771     
  volume:    718.951462096886     
  Acav:     7.519236241270477E-002
  Solving linear dielectric/ionic screening model
        iter                  A_solv                     rms
   LPB:       -0.392299589352785E+00   0.638797087391488E+00
   LPB:    0  -0.392234852488635E+00   0.610428686386734E+00  -0.207461E-02   0.000000E+00   0.300822E+02  -0.624087E-01
   LPB:    1  -0.390734071714135E+00   0.112426561321490E+00   0.117638E-01   0.000000E+00   0.567969E+02   0.190350E-17
   LPB:    2  -0.390517416393608E+00   0.274945615213740E-01   0.132030E-01   0.128626E+00   0.238141E+03   0.613012E-16
   LPB:    3  -0.390463334837927E+00   0.151198696524652E-01   0.227592E-01   0.144809E+00   0.247107E+03   0.726658E-16
   LPB:    4  -0.390432663492488E+00   0.261237526795049E-01   0.353509E-01   0.365124E+00   0.231571E+03   0.117185E-15
  Finished solving LPB equations
  A_corr:   -0.315240301079783     
 End minimization
 Ecorr=   3230.39194777781     
 A_corr= -0.315240301079783     
 Ecorr_band=  -3230.70718807889     
 End Solvation calculations
RMM:  27    -0.317623925144E+03    0.24975E-02   -0.59735E-04 11318   0.226E-02    0.167E-01
 Begin Solvation calculations
  rms_SCF =   0.346405041711592      tol =   3.464050417115924E-002
 Begin minimization
 Creating dielectric and ionic cavities
  area:      143.225676164623     
  volume:    719.180221272412     
  Acav:     7.519347998642692E-002
  Solving linear dielectric/ionic screening model
        iter                  A_solv                     rms
   LPB:       -0.397927589156395E+00   0.101708227715768E+01
   LPB:    0  -0.397611257529396E+00   0.956163087505607E+00  -0.458679E-02   0.000000E+00   0.300714E+02  -0.137931E+00
   LPB:    1  -0.394265182371092E+00   0.149498563820966E+00   0.108307E-01   0.000000E+00   0.612107E+02  -0.109696E-16
   LPB:    2  -0.393915809512649E+00   0.386783580692998E-01   0.122853E-01   0.920505E-01   0.198919E+03  -0.134170E-15
   LPB:    3  -0.393857613610031E+00   0.105446566691801E-01   0.216837E-01   0.943745E-01   0.109163E+03  -0.407801E-15
   LPB:    4  -0.393816998215153E+00   0.102415610711346E-01   0.446019E-01   0.339296E+00   0.108834E+03  -0.373256E-15
  Finished solving LPB equations
  A_corr:   -0.318623518228726     
 End minimization
 Ecorr=   3229.84971476919     
 A_corr= -0.318623518228726     
 Ecorr_band=  -3230.16833828742     
 End Solvation calculations
RMM:  28    -0.317623993521E+03   -0.68377E-04   -0.33036E-04 10363   0.199E-02
 Begin Solvation calculations
  rms_SCF =   0.346405041711592      tol =   3.464050417115924E-002
 Begin minimization
 Creating dielectric and ionic cavities
  area:      143.221798873309     
  volume:    719.257773069612     
  Acav:     7.519144440848727E-002
  Solving linear dielectric/ionic screening model
        iter                  A_solv                     rms
   LPB:       -0.395388950617820E+00   0.366826348163623E+00
   LPB:    0  -0.395342629146741E+00   0.341763569369286E+00  -0.175532E-02   0.000000E+00   0.300678E+02  -0.527785E-01
   LPB:    1  -0.394917996246478E+00   0.511736128279867E-01   0.105064E-01   0.000000E+00   0.642690E+02   0.111368E-17
   LPB:    2  -0.394874137240930E+00   0.135054395951582E-01   0.127211E-01   0.853050E-01   0.195899E+03   0.234141E-15
   LPB:    3  -0.394852179284715E+00   0.133877238265737E-01   0.443592E-01   0.143573E+00   0.704488E+02   0.330079E-15
   LPB:    4  -0.394786060546482E+00   0.171713693363313E-01   0.786681E-01   0.169792E+01   0.406009E+02   0.373048E-15
  Finished solving LPB equations
  A_corr:   -0.319594616137995     
 End minimization
 Ecorr=   3228.62068152522     
 A_corr= -0.319594616137995     
 Ecorr_band=  -3228.94027614136     
 End Solvation calculations
   1 F= -.31762399E+03 E0= -.31761431E+03  d E =-.317624E+03
quench:  g(F)=  0.000E+00 g(S)=  0.000E+00 dE (1.order)= 0.000E+00
 bond charge predicted
       N       E                     dE             d eps       ncg     rms          rms(c)
 Begin Solvation calculations
  rms_SCF =   0.346405041711592      tol =   3.464050417115924E-002
 Begin minimization
 Creating dielectric and ionic cavities
  area:      143.225656228013     
  volume:    719.261758169551     
  Acav:     7.519346951970679E-002
  Solving linear dielectric/ionic screening model
        iter                  A_solv                     rms
   LPB:       -0.394731459814071E+00   0.171426246505390E-01
   LPB:    0  -0.394731459813488E+00   0.171348598150722E-01   0.196996E-06   0.000000E+00   0.300676E+02   0.592321E-05
   LPB:    1  -0.394680635008855E+00   0.747629709491099E-02   0.171114E-01   0.000000E+00   0.773115E+03   0.365633E-21
   LPB:    2  -0.394667224110519E+00   0.721673694891709E-02   0.318602E-01   0.141716E+00   0.289634E+03   0.437146E-16
   LPB:    3  -0.394658825184965E+00   0.131596726633753E-01   0.351929E-01   0.566969E+00   0.195467E+03   0.351680E-16
   LPB:    4  -0.394651582590374E+00   0.178197821074510E-01   0.294425E-01   0.103075E+01   0.240006E+03   0.465204E-16
  Finished solving LPB equations
  A_corr:   -0.319458113070667     
 End minimization
 Ecorr=   3229.07809403375     
 A_corr= -0.319458113070667     
 Ecorr_band=  -3229.39755214683     
 End Solvation calculations
DAV:   1    -0.317624310652E+03   -0.38551E-03   -0.47118E-03 16464   0.259E-01    0.135E-01
 Begin Solvation calculations
  rms_SCF =   0.282791218601653      tol =   2.827912186016528E-002
 Begin minimization
 Creating dielectric and ionic cavities
  area:      143.188162896840     
  volume:    719.221569022495     
  Acav:     7.517378552084104E-002
  Solving linear dielectric/ionic screening model
        iter                  A_solv                     rms
   LPB:       -0.407719574716602E+00   0.193940932424191E+01
   LPB:    0  -0.407648064835547E+00   0.193053507232430E+01  -0.218090E-02   0.000000E+00   0.300695E+02  -0.655784E-01
   LPB:    1  -0.397920785085116E+00   0.186441706899243E+00   0.883527E-02   0.000000E+00   0.666900E+02   0.171008E-17
   LPB:    2  -0.397148101592522E+00   0.314277253626210E-01   0.157253E-01   0.446305E-01   0.117457E+03  -0.489776E-15
   LPB:    3  -0.397058060003765E+00   0.108424327312292E-01   0.217373E-01   0.843014E-01   0.188923E+03  -0.586454E-15
   LPB:    4  -0.397031698833954E+00   0.583559968687414E-02   0.277280E-01   0.229513E+00   0.309074E+03  -0.507579E-15
  Finished solving LPB equations
  A_corr:   -0.321857913313113     
 End minimization
 Ecorr=   3228.48519271132     
 A_corr= -0.321857913313113     
 Ecorr_band=  -3228.80705062463     
 End Solvation calculations
RMM:   2    -0.317655055504E+03   -0.30745E-01   -0.68636E-03 15525   0.122E-01    0.149E+00
 Begin Solvation calculations
  rms_SCF =   0.282791218601653      tol =   2.827912186016528E-002
 Begin minimization
 Creating dielectric and ionic cavities
  area:      143.234418414724     
  volume:    719.241447976527     
  Acav:     7.519806966773002E-002
  Solving linear dielectric/ionic screening model
        iter                  A_solv                     rms
   LPB:       -0.402311722787685E+00   0.160780757319281E+01
   LPB:    0  -0.402290260842267E+00   0.160463456581863E+01   0.119479E-02   0.000000E+00   0.300686E+02   0.359258E-01
   LPB:    1  -0.395556423525763E+00   0.154275643546296E+00   0.887956E-02   0.000000E+00   0.662666E+02  -0.943715E-18
   LPB:    2  -0.394972284048786E+00   0.236023953870110E-01   0.159826E-01   0.481946E-01   0.124618E+03  -0.214156E-15
   LPB:    3  -0.394911225164156E+00   0.820059687515447E-02   0.206829E-01   0.807731E-01   0.275627E+03  -0.230018E-15
   LPB:    4  -0.394898048327655E+00   0.316254650658190E-02   0.252839E-01   0.176535E+00   0.584549E+03  -0.209986E-15
  Finished solving LPB equations
  A_corr:   -0.319699978659925     
 End minimization
 Ecorr=   3228.69377087630     
 A_corr= -0.319699978659925     
 Ecorr_band=  -3229.01347085496     
 End Solvation calculations
RMM:   3    -0.317624363257E+03    0.30692E-01   -0.39300E-03 14731   0.909E-02    0.486E-02
 Begin Solvation calculations
  rms_SCF =   5.109869633780895E-002 tol =   5.109869633780895E-003
 Begin minimization
 Creating dielectric and ionic cavities
  area:      143.223906944110     
  volume:    719.230912036642     
  Acav:     7.519255114565750E-002
  Solving linear dielectric/ionic screening model
        iter                  A_solv                     rms
   LPB:       -0.394977884580033E+00   0.681908342476930E-01
   LPB:    0  -0.394974526427098E+00   0.559427503465214E-01  -0.472613E-03   0.000000E+00   0.300691E+02  -0.142110E-01
   LPB:    1  -0.394956981569028E+00   0.126721910413372E-01   0.103420E-01   0.000000E+00   0.935136E+02   0.222563E-18
   LPB:    2  -0.394954210291181E+00   0.521444272181666E-02   0.171693E-01   0.951444E-01   0.128960E+03   0.388856E-16
   LPB:    3  -0.394951143219381E+00   0.363666306149005E-02   0.396482E-01   0.479263E+00   0.308867E+03  -0.222577E-16
   LPB:    4  -0.394948283247513E+00   0.236433413853790E-02   0.477573E-01   0.774144E+00   0.377507E+03  -0.108900E-15
  Finished solving LPB equations
  A_corr:   -0.319755732101855     
 End minimization
 Ecorr=   3228.54077585199     
 A_corr= -0.319755732101855     
 Ecorr_band=  -3228.86053158409     
 End Solvation calculations
RMM:   4    -0.317624324208E+03    0.39049E-04   -0.19741E-04  9762   0.223E-02
 Begin Solvation calculations
  rms_SCF =   5.109869633780895E-002 tol =   5.109869633780895E-003
 Begin minimization
 Creating dielectric and ionic cavities
  area:      143.221784480478     
  volume:    719.222407692854     
  Acav:     7.519143685225109E-002
  Solving linear dielectric/ionic screening model
        iter                  A_solv                     rms
   LPB:       -0.395000649864009E+00   0.850113635391155E-01
   LPB:    0  -0.394995827576874E+00   0.693353299903860E-01  -0.566342E-03   0.000000E+00   0.300695E+02  -0.170296E-01
   LPB:    1  -0.394971720306420E+00   0.139644030381595E-01   0.100016E-01   0.000000E+00   0.865232E+02   0.907971E-18
   LPB:    2  -0.394969606214822E+00   0.263476103329244E-02   0.129311E-01   0.678282E-01   0.110189E+03   0.107788E-16
   LPB:    3  -0.394968616132625E+00   0.168885612428653E-02   0.376374E-01   0.160903E+00   0.166052E+03   0.485738E-16
   LPB:    4  -0.394967039737101E+00   0.165837377408094E-02   0.595973E-01   0.100551E+01   0.235255E+03   0.678951E-16
  Finished solving LPB equations
  A_corr:   -0.319775602884849     
 End minimization
 Ecorr=   3228.32216057580     
 A_corr= -0.319775602884849     
 Ecorr_band=  -3228.64193617869     
 End Solvation calculations
   2 F= -.31762432E+03 E0= -.31761462E+03  d E =-.330687E-03
quench:  g(F)=  0.000E+00 g(S)=  0.000E+00 dE (1.order)= 0.000E+00
 reached required accuracy - stopping structural energy minimisation
