 vasp.5.4.4.18Apr17-6-g9f103f2a35 (build Feb 06 2024 13:54:16) complex          
  
 POSCAR found type information on POSCAR  Cu Pd Cu N  O 
 05/POSCAR found :  5 types and      40 ions
 scaLAPACK will be used

 ----------------------------------------------------------------------------- 
|                                                                             |
|  ADVICE TO THIS USER RUNNING 'VASP/VAMP'   (HEAR YOUR MASTER'S VOICE ...):  |
|                                                                             |
|      You enforced a specific xc-type in the INCAR file,                     |
|      a different type was found on the POTCAR file                          |
|          I HOPE YOU KNOW, WHAT YOU ARE  DOING                               |
|                                                                             |
 ----------------------------------------------------------------------------- 

 LDA part: xc-table for Pade appr. of Perdew
 POSCAR found type information on POSCAR  Cu Pd Cu N  O 
 00/POSCAR found :  5 types and      40 ions
 POSCAR found type information on POSCAR  Cu Pd Cu N  O 
 06/POSCAR found :  5 types and      40 ions
 Jacobian:    20.5888137679208     
 POSCAR, INCAR and KPOINTS ok, starting setup
 FFT: planning ...
 WAVECAR not read
 entering main loop
       N       E                     dE             d eps       ncg     rms          rms(c)
DAV:   1     0.418940481105E+04    0.41894E+04   -0.17849E+05  4032   0.203E+03
DAV:   2     0.615268842140E+03   -0.35741E+04   -0.34453E+04  4032   0.461E+02
DAV:   3    -0.296146956731E+02   -0.64488E+03   -0.59198E+03  4842   0.232E+02
DAV:   4    -0.150926345608E+03   -0.12131E+03   -0.10680E+03  6768   0.948E+01
DAV:   5    -0.163027872745E+03   -0.12102E+02   -0.11684E+02  6273   0.321E+01    0.439E+01
RMM:   6    -0.170003473371E+03   -0.69756E+01   -0.36762E+02  4079   0.957E+01    0.481E+01
RMM:   7    -0.170989158810E+03   -0.98569E+00   -0.11819E+02  4169   0.441E+01    0.340E+01
RMM:   8    -0.146733975981E+03    0.24255E+02   -0.17493E+01  4092   0.183E+01    0.240E+01
RMM:   9    -0.140204580256E+03    0.65294E+01   -0.62447E+00  4111   0.118E+01    0.138E+01
RMM:  10    -0.136622649405E+03    0.35819E+01   -0.10573E+01  4107   0.118E+01    0.110E+01
RMM:  11    -0.135143858813E+03    0.14788E+01   -0.33759E+00  4114   0.728E+00    0.532E+00
RMM:  12    -0.134710755107E+03    0.43310E+00   -0.85648E-01  4121   0.376E+00    0.412E+00
RMM:  13    -0.134470721642E+03    0.24003E+00   -0.36260E-01  4141   0.226E+00    0.307E+00
RMM:  14    -0.134305428547E+03    0.16529E+00   -0.42912E-01  4147   0.190E+00    0.245E+00
RMM:  15    -0.134219260758E+03    0.86168E-01   -0.15297E-01  4131   0.113E+00    0.168E+00
RMM:  16    -0.134180557975E+03    0.38703E-01   -0.16669E-01  4131   0.146E+00    0.108E+00
RMM:  17    -0.134167825175E+03    0.12733E-01   -0.28057E-02  4146   0.528E-01    0.823E-01
RMM:  18    -0.134156823294E+03    0.11002E-01   -0.10391E-02  4107   0.343E-01    0.443E-01
RMM:  19    -0.134154359085E+03    0.24642E-02   -0.57178E-03  4095   0.291E-01    0.340E-01
RMM:  20    -0.134152574368E+03    0.17847E-02   -0.31104E-03  4117   0.174E-01    0.212E-01
RMM:  21    -0.134151767489E+03    0.80688E-03   -0.11108E-03  4180   0.105E-01    0.153E-01
RMM:  22    -0.134151353661E+03    0.41383E-03   -0.10127E-03  4076   0.894E-02    0.914E-02
RMM:  23    -0.134151549448E+03   -0.19579E-03   -0.64307E-04  4340   0.567E-02    0.573E-02
RMM:  24    -0.134152101181E+03   -0.55173E-03   -0.36729E-04  4048   0.395E-02    0.493E-02
RMM:  25    -0.134152641560E+03   -0.54038E-03   -0.20352E-04  3920   0.313E-02    0.358E-02
RMM:  26    -0.134152996290E+03   -0.35473E-03   -0.11846E-04  3496   0.268E-02    0.357E-02
RMM:  27    -0.134153152205E+03   -0.15591E-03   -0.32249E-05  2534   0.179E-02    0.344E-02
RMM:  28    -0.134153325247E+03   -0.17304E-03   -0.36570E-05  2626   0.186E-02    0.291E-02
RMM:  29    -0.134153381652E+03   -0.56405E-04   -0.19014E-05  2425   0.148E-02    0.167E-02
RMM:  30    -0.134153439813E+03   -0.58160E-04   -0.12264E-05  2389   0.114E-02    0.119E-02
RMM:  31    -0.134153464403E+03   -0.24591E-04   -0.78054E-06  2328   0.112E-02    0.621E-03
RMM:  32    -0.134153487686E+03   -0.23283E-04   -0.71855E-06  2351   0.765E-03    0.253E-03
RMM:  33    -0.134153490498E+03   -0.28111E-05   -0.33735E-06  2314   0.820E-03
   1 F= -.13415349E+03 E0= -.13415189E+03  d E =-.134153E+03
quench:  g(F)=  0.000E+00 g(S)=  0.000E+00 dE (1.order)= 0.000E+00
 bond charge predicted
       N       E                     dE             d eps       ncg     rms          rms(c)
DAV:   1    -0.134153548841E+03   -0.61155E-04   -0.63793E-04  4212   0.461E-02    0.535E-03
RMM:   2    -0.134153551532E+03   -0.26907E-05   -0.24460E-05  2492   0.122E-02
   2 F= -.13415355E+03 E0= -.13415195E+03  d E =-.610343E-04
quench:  g(F)=  0.000E+00 g(S)=  0.000E+00 dE (1.order)= 0.000E+00
 bond charge predicted
       N       E                     dE             d eps       ncg     rms          rms(c)
DAV:   1    -0.134153660926E+03   -0.11209E-03   -0.18480E-03  4239   0.825E-02    0.878E-03
RMM:   2    -0.134153669721E+03   -0.87950E-05   -0.84843E-05  2912   0.203E-02
   3 F= -.13415367E+03 E0= -.13415207E+03  d E =-.118190E-03
quench:  g(F)=  0.000E+00 g(S)=  0.000E+00 dE (1.order)= 0.000E+00
 bond charge predicted
       N       E                     dE             d eps       ncg     rms          rms(c)
DAV:   1    -0.134153785533E+03   -0.12461E-03   -0.27986E-03  4725   0.106E-01    0.140E-02
RMM:   2    -0.134153807008E+03   -0.21475E-04   -0.15905E-04  3558   0.275E-02    0.195E-02
RMM:   3    -0.134153797884E+03    0.91249E-05   -0.12844E-05  2284   0.161E-02
   4 F= -.13415380E+03 E0= -.13415220E+03  d E =-.128162E-03
quench:  g(F)=  0.000E+00 g(S)=  0.000E+00 dE (1.order)= 0.000E+00
 bond charge predicted
       N       E                     dE             d eps       ncg     rms          rms(c)
DAV:   1    -0.134153853353E+03   -0.46345E-04   -0.15939E-03  5022   0.853E-02    0.111E-02
RMM:   2    -0.134153863894E+03   -0.10541E-04   -0.11109E-04  3105   0.195E-02    0.940E-03
RMM:   3    -0.134153862138E+03    0.17565E-05   -0.62742E-06  2162   0.111E-02
   5 F= -.13415386E+03 E0= -.13415226E+03  d E =-.642542E-04
quench:  g(F)=  0.000E+00 g(S)=  0.000E+00 dE (1.order)= 0.000E+00
 bond charge predicted
       N       E                     dE             d eps       ncg     rms          rms(c)
DAV:   1    -0.134153929857E+03   -0.65963E-04   -0.10292E-03  5049   0.812E-02    0.932E-03
RMM:   2    -0.134153946569E+03   -0.16711E-04   -0.60250E-05  2799   0.210E-02    0.214E-02
RMM:   3    -0.134153933959E+03    0.12609E-04   -0.13068E-05  2265   0.174E-02    0.593E-03
RMM:   4    -0.134153933935E+03    0.24229E-07   -0.25903E-06  2166   0.752E-03
   6 F= -.13415393E+03 E0= -.13415233E+03  d E =-.717971E-04
quench:  g(F)=  0.000E+00 g(S)=  0.000E+00 dE (1.order)= 0.000E+00
 bond charge predicted
       N       E                     dE             d eps       ncg     rms          rms(c)
DAV:   1    -0.134154044558E+03   -0.11060E-03   -0.19979E-03  4212   0.818E-02    0.936E-03
RMM:   2    -0.134154053137E+03   -0.85793E-05   -0.86738E-05  2833   0.195E-02
   7 F= -.13415405E+03 E0= -.13415245E+03  d E =-.119202E-03
quench:  g(F)=  0.000E+00 g(S)=  0.000E+00 dE (1.order)= 0.000E+00
 bond charge predicted
       N       E                     dE             d eps       ncg     rms          rms(c)
DAV:   1    -0.134154156777E+03   -0.11222E-03   -0.24650E-03  4734   0.106E-01    0.134E-02
RMM:   2    -0.134154174789E+03   -0.18013E-04   -0.15563E-04  3496   0.269E-02    0.161E-02
RMM:   3    -0.134154169805E+03    0.49845E-05   -0.10878E-05  2281   0.146E-02
   8 F= -.13415417E+03 E0= -.13415257E+03  d E =-.116668E-03
quench:  g(F)=  0.000E+00 g(S)=  0.000E+00 dE (1.order)= 0.000E+00
 bond charge predicted
       N       E                     dE             d eps       ncg     rms          rms(c)
DAV:   1    -0.134154220052E+03   -0.45262E-04   -0.13285E-03  5229   0.849E-02    0.103E-02
RMM:   2    -0.134154228852E+03   -0.88002E-05   -0.93155E-05  2945   0.186E-02
   9 F= -.13415423E+03 E0= -.13415263E+03  d E =-.590468E-04
quench:  g(F)=  0.000E+00 g(S)=  0.000E+00 dE (1.order)= 0.000E+00
 bond charge predicted
       N       E                     dE             d eps       ncg     rms          rms(c)
DAV:   1    -0.134154283810E+03   -0.63758E-04   -0.88617E-04  4563   0.628E-02    0.924E-03
RMM:   2    -0.134154289306E+03   -0.54966E-05   -0.55477E-05  2664   0.173E-02
  10 F= -.13415429E+03 E0= -.13415269E+03  d E =-.604545E-04
quench:  g(F)=  0.000E+00 g(S)=  0.000E+00 dE (1.order)= 0.000E+00
 bond charge predicted
       N       E                     dE             d eps       ncg     rms          rms(c)
DAV:   1    -0.134154359360E+03   -0.75551E-04   -0.12406E-03  5148   0.852E-02    0.114E-02
RMM:   2    -0.134154372491E+03   -0.13131E-04   -0.86930E-05  2992   0.230E-02    0.179E-02
RMM:   3    -0.134154365745E+03    0.67458E-05   -0.11719E-05  2259   0.158E-02
  11 F= -.13415437E+03 E0= -.13415277E+03  d E =-.764391E-04
quench:  g(F)=  0.000E+00 g(S)=  0.000E+00 dE (1.order)= 0.000E+00
 bond charge predicted
       N       E                     dE             d eps       ncg     rms          rms(c)
DAV:   1    -0.134154433378E+03   -0.60886E-04   -0.15351E-03  4644   0.806E-02    0.106E-02
RMM:   2    -0.134154442641E+03   -0.92637E-05   -0.98415E-05  3032   0.197E-02
  12 F= -.13415444E+03 E0= -.13415284E+03  d E =-.768960E-04
quench:  g(F)=  0.000E+00 g(S)=  0.000E+00 dE (1.order)= 0.000E+00
 bond charge predicted
       N       E                     dE             d eps       ncg     rms          rms(c)
DAV:   1    -0.134154505010E+03   -0.71633E-04   -0.11661E-03  4986   0.759E-02    0.108E-02
RMM:   2    -0.134154516254E+03   -0.11244E-04   -0.80791E-05  2947   0.202E-02    0.153E-02
RMM:   3    -0.134154511369E+03    0.48855E-05   -0.10224E-05  2257   0.150E-02
  13 F= -.13415451E+03 E0= -.13415291E+03  d E =-.687274E-04
quench:  g(F)=  0.000E+00 g(S)=  0.000E+00 dE (1.order)= 0.000E+00
 bond charge predicted
       N       E                     dE             d eps       ncg     rms          rms(c)
DAV:   1    -0.134154583165E+03   -0.66910E-04   -0.13652E-03  4689   0.783E-02    0.990E-03
RMM:   2    -0.134154591219E+03   -0.80549E-05   -0.85747E-05  2930   0.181E-02
  14 F= -.13415459E+03 E0= -.13415299E+03  d E =-.798506E-04
quench:  g(F)=  0.000E+00 g(S)=  0.000E+00 dE (1.order)= 0.000E+00
 bond charge predicted
       N       E                     dE             d eps       ncg     rms          rms(c)
DAV:   1    -0.134154680522E+03   -0.97357E-04   -0.14148E-03  4626   0.746E-02    0.107E-02
RMM:   2    -0.134154690938E+03   -0.10416E-04   -0.86977E-05  2981   0.198E-02    0.128E-02
RMM:   3    -0.134154688674E+03    0.22641E-05   -0.87170E-06  2192   0.140E-02
  15 F= -.13415469E+03 E0= -.13415309E+03  d E =-.974546E-04
quench:  g(F)=  0.000E+00 g(S)=  0.000E+00 dE (1.order)= 0.000E+00
 bond charge predicted
       N       E                     dE             d eps       ncg     rms          rms(c)
DAV:   1    -0.134154780119E+03   -0.89180E-04   -0.19395E-03  4617   0.903E-02    0.113E-02
RMM:   2    -0.134154791264E+03   -0.11146E-04   -0.11807E-04  3202   0.209E-02    0.979E-03
RMM:   3    -0.134154789039E+03    0.22247E-05   -0.62801E-06  2121   0.116E-02
  16 F= -.13415479E+03 E0= -.13415319E+03  d E =-.100365E-03
quench:  g(F)=  0.000E+00 g(S)=  0.000E+00 dE (1.order)= 0.000E+00
 bond charge predicted
       N       E                     dE             d eps       ncg     rms          rms(c)
DAV:   1    -0.134154881868E+03   -0.90604E-04   -0.20495E-03  4338   0.872E-02    0.106E-02
RMM:   2    -0.134154893899E+03   -0.12030E-04   -0.10482E-04  3052   0.218E-02    0.138E-02
RMM:   3    -0.134154890694E+03    0.32045E-05   -0.10201E-05  2227   0.148E-02
  17 F= -.13415489E+03 E0= -.13415329E+03  d E =-.101655E-03
quench:  g(F)=  0.000E+00 g(S)=  0.000E+00 dE (1.order)= 0.000E+00
 bond charge predicted
       N       E                     dE             d eps       ncg     rms          rms(c)
DAV:   1    -0.134154975515E+03   -0.81616E-04   -0.21227E-03  4437   0.910E-02    0.115E-02
RMM:   2    -0.134154987486E+03   -0.11971E-04   -0.12554E-04  3239   0.222E-02    0.961E-03
RMM:   3    -0.134154985458E+03    0.20279E-05   -0.66331E-06  2185   0.112E-02
  18 F= -.13415499E+03 E0= -.13415339E+03  d E =-.947637E-04
quench:  g(F)=  0.000E+00 g(S)=  0.000E+00 dE (1.order)= 0.000E+00
 bond charge predicted
       N       E                     dE             d eps       ncg     rms          rms(c)
DAV:   1    -0.134155066591E+03   -0.79105E-04   -0.18685E-03  4698   0.945E-02    0.108E-02
RMM:   2    -0.134155081839E+03   -0.15248E-04   -0.11221E-04  3156   0.222E-02    0.170E-02
RMM:   3    -0.134155075140E+03    0.66985E-05   -0.11212E-05  2280   0.157E-02
  19 F= -.13415508E+03 E0= -.13415348E+03  d E =-.896820E-04
quench:  g(F)=  0.000E+00 g(S)=  0.000E+00 dE (1.order)= 0.000E+00
 bond charge predicted
       N       E                     dE             d eps       ncg     rms          rms(c)
DAV:   1    -0.134155162506E+03   -0.80667E-04   -0.18856E-03  4239   0.833E-02    0.111E-02
RMM:   2    -0.134155172950E+03   -0.10444E-04   -0.11105E-04  3096   0.213E-02    0.923E-03
RMM:   3    -0.134155171089E+03    0.18609E-05   -0.63499E-06  2104   0.119E-02
  20 F= -.13415517E+03 E0= -.13415357E+03  d E =-.959491E-04
quench:  g(F)=  0.000E+00 g(S)=  0.000E+00 dE (1.order)= 0.000E+00
 bond charge predicted
       N       E                     dE             d eps       ncg     rms          rms(c)
DAV:   1    -0.134155263973E+03   -0.91023E-04   -0.21430E-03  4302   0.881E-02    0.108E-02
RMM:   2    -0.134155276569E+03   -0.12595E-04   -0.11665E-04  3143   0.221E-02    0.113E-02
RMM:   3    -0.134155274084E+03    0.24844E-05   -0.86929E-06  2233   0.133E-02
  21 F= -.13415527E+03 E0= -.13415368E+03  d E =-.102995E-03
quench:  g(F)=  0.000E+00 g(S)=  0.000E+00 dE (1.order)= 0.000E+00
 bond charge predicted
       N       E                     dE             d eps       ncg     rms          rms(c)
DAV:   1    -0.134155351461E+03   -0.74893E-04   -0.21415E-03  4590   0.955E-02    0.115E-02
RMM:   2    -0.134155363841E+03   -0.12379E-04   -0.13115E-04  3244   0.221E-02    0.975E-03
RMM:   3    -0.134155361528E+03    0.23129E-05   -0.66451E-06  2124   0.117E-02
  22 F= -.13415536E+03 E0= -.13415377E+03  d E =-.874435E-04
quench:  g(F)=  0.000E+00 g(S)=  0.000E+00 dE (1.order)= 0.000E+00
 bond charge predicted
       N       E                     dE             d eps       ncg     rms          rms(c)
DAV:   1    -0.134155432784E+03   -0.68944E-04   -0.18827E-03  4329   0.826E-02    0.105E-02
RMM:   2    -0.134155443621E+03   -0.10837E-04   -0.10273E-04  3051   0.214E-02    0.111E-02
RMM:   3    -0.134155441530E+03    0.20911E-05   -0.99839E-06  2218   0.148E-02
  23 F= -.13415544E+03 E0= -.13415384E+03  d E =-.800026E-04
quench:  g(F)=  0.000E+00 g(S)=  0.000E+00 dE (1.order)= 0.000E+00
 bond charge predicted
       N       E                     dE             d eps       ncg     rms          rms(c)
DAV:   1    -0.134155522685E+03   -0.79064E-04   -0.19755E-03  4590   0.938E-02    0.110E-02
RMM:   2    -0.134155534433E+03   -0.11747E-04   -0.11473E-04  3159   0.218E-02    0.110E-02
RMM:   3    -0.134155532543E+03    0.18903E-05   -0.80136E-06  2204   0.133E-02
  24 F= -.13415553E+03 E0= -.13415394E+03  d E =-.910123E-04
quench:  g(F)=  0.000E+00 g(S)=  0.000E+00 dE (1.order)= 0.000E+00
 bond charge predicted
       N       E                     dE             d eps       ncg     rms          rms(c)
DAV:   1    -0.134155623568E+03   -0.89135E-04   -0.21960E-03  4572   0.973E-02    0.111E-02
RMM:   2    -0.134155635873E+03   -0.12305E-04   -0.12663E-04  3223   0.223E-02    0.961E-03
RMM:   3    -0.134155634065E+03    0.18078E-05   -0.80032E-06  2222   0.124E-02
  25 F= -.13415563E+03 E0= -.13415404E+03  d E =-.101523E-03
quench:  g(F)=  0.000E+00 g(S)=  0.000E+00 dE (1.order)= 0.000E+00
 bond charge predicted
       N       E                     dE             d eps       ncg     rms          rms(c)
DAV:   1    -0.134155714688E+03   -0.78815E-04   -0.22002E-03  4572   0.101E-01    0.122E-02
RMM:   2    -0.134155730417E+03   -0.15730E-04   -0.12797E-04  3280   0.228E-02    0.134E-02
RMM:   3    -0.134155725735E+03    0.46826E-05   -0.10423E-05  2269   0.147E-02
  26 F= -.13415573E+03 E0= -.13415413E+03  d E =-.916695E-04
quench:  g(F)=  0.000E+00 g(S)=  0.000E+00 dE (1.order)= 0.000E+00
 bond charge predicted
       N       E                     dE             d eps       ncg     rms          rms(c)
DAV:   1    -0.134155789975E+03   -0.59557E-04   -0.16992E-03  4905   0.916E-02    0.104E-02
RMM:   2    -0.134155799891E+03   -0.99167E-05   -0.10455E-04  3057   0.197E-02    0.845E-03
RMM:   3    -0.134155798315E+03    0.15768E-05   -0.63757E-06  2176   0.111E-02
  27 F= -.13415580E+03 E0= -.13415420E+03  d E =-.725798E-04
quench:  g(F)=  0.000E+00 g(S)=  0.000E+00 dE (1.order)= 0.000E+00
 bond charge predicted
       N       E                     dE             d eps       ncg     rms          rms(c)
DAV:   1    -0.134155867104E+03   -0.67213E-04   -0.17413E-03  4599   0.908E-02    0.108E-02
RMM:   2    -0.134155884238E+03   -0.17133E-04   -0.10033E-04  3107   0.218E-02    0.176E-02
RMM:   3    -0.134155874823E+03    0.94148E-05   -0.11131E-05  2265   0.158E-02
  28 F= -.13415587E+03 E0= -.13415428E+03  d E =-.765084E-04
quench:  g(F)=  0.000E+00 g(S)=  0.000E+00 dE (1.order)= 0.000E+00
 bond charge predicted
       N       E                     dE             d eps       ncg     rms          rms(c)
DAV:   1    -0.134155947550E+03   -0.63312E-04   -0.18753E-03  4230   0.823E-02    0.105E-02
RMM:   2    -0.134155957744E+03   -0.10194E-04   -0.10805E-04  3063   0.217E-02    0.891E-03
RMM:   3    -0.134155956426E+03    0.13178E-05   -0.82347E-06  2176   0.131E-02
  29 F= -.13415596E+03 E0= -.13415436E+03  d E =-.816028E-04
quench:  g(F)=  0.000E+00 g(S)=  0.000E+00 dE (1.order)= 0.000E+00
 bond charge predicted
       N       E                     dE             d eps       ncg     rms          rms(c)
DAV:   1    -0.134156020304E+03   -0.62561E-04   -0.18526E-03  4662   0.917E-02    0.114E-02
RMM:   2    -0.134156034433E+03   -0.14129E-04   -0.10918E-04  3168   0.213E-02    0.149E-02
RMM:   3    -0.134156029564E+03    0.48689E-05   -0.10382E-05  2240   0.150E-02
  30 F= -.13415603E+03 E0= -.13415443E+03  d E =-.731381E-04
quench:  g(F)=  0.000E+00 g(S)=  0.000E+00 dE (1.order)= 0.000E+00
 bond charge predicted
       N       E                     dE             d eps       ncg     rms          rms(c)
DAV:   1    -0.134156081347E+03   -0.46914E-04   -0.15236E-03  4626   0.814E-02    0.958E-03
RMM:   2    -0.134156090313E+03   -0.89654E-05   -0.93557E-05  2946   0.190E-02
  31 F= -.13415609E+03 E0= -.13415449E+03  d E =-.607486E-04
quench:  g(F)=  0.000E+00 g(S)=  0.000E+00 dE (1.order)= 0.000E+00
 bond charge predicted
       N       E                     dE             d eps       ncg     rms          rms(c)
DAV:   1    -0.134156139107E+03   -0.57759E-04   -0.12105E-03  4626   0.760E-02    0.106E-02
RMM:   2    -0.134156149198E+03   -0.10091E-04   -0.77941E-05  2938   0.202E-02    0.142E-02
RMM:   3    -0.134156145732E+03    0.34657E-05   -0.91591E-06  2220   0.142E-02
  32 F= -.13415615E+03 E0= -.13415455E+03  d E =-.554194E-04
quench:  g(F)=  0.000E+00 g(S)=  0.000E+00 dE (1.order)= 0.000E+00
 bond charge predicted
       N       E                     dE             d eps       ncg     rms          rms(c)
DAV:   1    -0.134156207207E+03   -0.58009E-04   -0.14452E-03  4617   0.803E-02    0.932E-03
RMM:   2    -0.134156215265E+03   -0.80587E-05   -0.85419E-05  2892   0.181E-02
  33 F= -.13415622E+03 E0= -.13415462E+03  d E =-.695334E-04
quench:  g(F)=  0.000E+00 g(S)=  0.000E+00 dE (1.order)= 0.000E+00
 bond charge predicted
       N       E                     dE             d eps       ncg     rms          rms(c)
DAV:   1    -0.134156283701E+03   -0.76494E-04   -0.15699E-03  4203   0.743E-02    0.109E-02
RMM:   2    -0.134156292571E+03   -0.88706E-05   -0.92235E-05  2982   0.196E-02
  34 F= -.13415629E+03 E0= -.13415470E+03  d E =-.773058E-04
quench:  g(F)=  0.000E+00 g(S)=  0.000E+00 dE (1.order)= 0.000E+00
 bond charge predicted
       N       E                     dE             d eps       ncg     rms          rms(c)
DAV:   1    -0.134156341961E+03   -0.58260E-04   -0.13006E-03  4806   0.851E-02    0.113E-02
RMM:   2    -0.134156356955E+03   -0.14995E-04   -0.96958E-05  3060   0.230E-02    0.187E-02
RMM:   3    -0.134156348761E+03    0.81946E-05   -0.11754E-05  2231   0.161E-02
  35 F= -.13415635E+03 E0= -.13415475E+03  d E =-.561895E-04
quench:  g(F)=  0.000E+00 g(S)=  0.000E+00 dE (1.order)= 0.000E+00
 bond charge predicted
       N       E                     dE             d eps       ncg     rms          rms(c)
DAV:   1    -0.134156407142E+03   -0.50187E-04   -0.13911E-03  4527   0.761E-02    0.102E-02
RMM:   2    -0.134156414861E+03   -0.77190E-05   -0.83709E-05  2908   0.181E-02
  36 F= -.13415641E+03 E0= -.13415482E+03  d E =-.661004E-04
quench:  g(F)=  0.000E+00 g(S)=  0.000E+00 dE (1.order)= 0.000E+00
 bond charge predicted
       N       E                     dE             d eps       ncg     rms          rms(c)
DAV:   1    -0.134156486415E+03   -0.79272E-04   -0.15964E-03  4059   0.706E-02    0.106E-02
RMM:   2    -0.134156495414E+03   -0.89992E-05   -0.95426E-05  2966   0.204E-02
  37 F= -.13415650E+03 E0= -.13415490E+03  d E =-.805527E-04
quench:  g(F)=  0.000E+00 g(S)=  0.000E+00 dE (1.order)= 0.000E+00
 bond charge predicted
       N       E                     dE             d eps       ncg     rms          rms(c)
DAV:   1    -0.134156564270E+03   -0.77855E-04   -0.17253E-03  4671   0.905E-02    0.130E-02
RMM:   2    -0.134156581251E+03   -0.16981E-04   -0.11941E-04  3248   0.234E-02    0.178E-02
RMM:   3    -0.134156573483E+03    0.77681E-05   -0.11867E-05  2268   0.160E-02
  38 F= -.13415657E+03 E0= -.13415498E+03  d E =-.780687E-04
quench:  g(F)=  0.000E+00 g(S)=  0.000E+00 dE (1.order)= 0.000E+00
 bond charge predicted
       N       E                     dE             d eps       ncg     rms          rms(c)
DAV:   1    -0.134156647380E+03   -0.66129E-04   -0.15803E-03  4941   0.881E-02    0.103E-02
RMM:   2    -0.134156656520E+03   -0.91400E-05   -0.97946E-05  2998   0.192E-02
  39 F= -.13415666E+03 E0= -.13415506E+03  d E =-.830370E-04
quench:  g(F)=  0.000E+00 g(S)=  0.000E+00 dE (1.order)= 0.000E+00
 bond charge predicted
       N       E                     dE             d eps       ncg     rms          rms(c)
DAV:   1    -0.134156727614E+03   -0.80234E-04   -0.17079E-03  4095   0.744E-02    0.116E-02
RMM:   2    -0.134156736902E+03   -0.92885E-05   -0.10048E-04  3008   0.205E-02    0.101E-02
RMM:   3    -0.134156735033E+03    0.18688E-05   -0.68099E-06  2102   0.124E-02
  40 F= -.13415674E+03 E0= -.13415514E+03  d E =-.785139E-04
quench:  g(F)=  0.000E+00 g(S)=  0.000E+00 dE (1.order)= 0.000E+00
 bond charge predicted
       N       E                     dE             d eps       ncg     rms          rms(c)
DAV:   1    -0.134156802421E+03   -0.65518E-04   -0.19533E-03  4509   0.879E-02    0.107E-02
RMM:   2    -0.134156814639E+03   -0.12219E-04   -0.11214E-04  3156   0.217E-02    0.113E-02
RMM:   3    -0.134156812082E+03    0.25573E-05   -0.89844E-06  2228   0.138E-02
  41 F= -.13415681E+03 E0= -.13415522E+03  d E =-.770485E-04
quench:  g(F)=  0.000E+00 g(S)=  0.000E+00 dE (1.order)= 0.000E+00
 bond charge predicted
       N       E                     dE             d eps       ncg     rms          rms(c)
DAV:   1    -0.134156882658E+03   -0.68019E-04   -0.21242E-03  4536   0.953E-02    0.111E-02
RMM:   2    -0.134156894637E+03   -0.11980E-04   -0.12519E-04  3205   0.220E-02    0.929E-03
RMM:   3    -0.134156892426E+03    0.22113E-05   -0.62551E-06  2120   0.118E-02
  42 F= -.13415689E+03 E0= -.13415530E+03  d E =-.803441E-04
quench:  g(F)=  0.000E+00 g(S)=  0.000E+00 dE (1.order)= 0.000E+00
 bond charge predicted
       N       E                     dE             d eps       ncg     rms          rms(c)
DAV:   1    -0.134156966070E+03   -0.71433E-04   -0.23771E-03  4194   0.912E-02    0.115E-02
RMM:   2    -0.134156978925E+03   -0.12855E-04   -0.12900E-04  3235   0.231E-02    0.110E-02
RMM:   3    -0.134156976676E+03    0.22490E-05   -0.99134E-06  2210   0.146E-02
  43 F= -.13415698E+03 E0= -.13415538E+03  d E =-.842498E-04
quench:  g(F)=  0.000E+00 g(S)=  0.000E+00 dE (1.order)= 0.000E+00
 bond charge predicted
       N       E                     dE             d eps       ncg     rms          rms(c)
DAV:   1    -0.134157045642E+03   -0.66717E-04   -0.22228E-03  4563   0.100E-01    0.120E-02
RMM:   2    -0.134157061562E+03   -0.15920E-04   -0.13186E-04  3312   0.237E-02    0.134E-02
RMM:   3    -0.134157056976E+03    0.45856E-05   -0.10004E-05  2271   0.143E-02
  44 F= -.13415706E+03 E0= -.13415547E+03  d E =-.803001E-04
quench:  g(F)=  0.000E+00 g(S)=  0.000E+00 dE (1.order)= 0.000E+00
 bond charge predicted
       N       E                     dE             d eps       ncg     rms          rms(c)
DAV:   1    -0.134157120353E+03   -0.58791E-04   -0.19362E-03  4752   0.952E-02    0.108E-02
RMM:   2    -0.134157131597E+03   -0.11244E-04   -0.11784E-04  3169   0.214E-02    0.890E-03
RMM:   3    -0.134157129873E+03    0.17243E-05   -0.75609E-06  2191   0.119E-02
  45 F= -.13415713E+03 E0= -.13415554E+03  d E =-.728966E-04
quench:  g(F)=  0.000E+00 g(S)=  0.000E+00 dE (1.order)= 0.000E+00
 bond charge predicted
       N       E                     dE             d eps       ncg     rms          rms(c)
DAV:   1    -0.134157192864E+03   -0.61267E-04   -0.20087E-03  4545   0.960E-02    0.115E-02
RMM:   2    -0.134157209618E+03   -0.16754E-04   -0.11582E-04  3207   0.227E-02    0.159E-02
RMM:   3    -0.134157202284E+03    0.73344E-05   -0.10925E-05  2268   0.155E-02
  46 F= -.13415720E+03 E0= -.13415561E+03  d E =-.724113E-04
quench:  g(F)=  0.000E+00 g(S)=  0.000E+00 dE (1.order)= 0.000E+00
 bond charge predicted
       N       E                     dE             d eps       ncg     rms          rms(c)
DAV:   1    -0.134157261643E+03   -0.52025E-04   -0.20772E-03  4428   0.907E-02    0.110E-02
RMM:   2    -0.134157273337E+03   -0.11694E-04   -0.12373E-04  3195   0.225E-02    0.898E-03
RMM:   3    -0.134157271351E+03    0.19865E-05   -0.74842E-06  2138   0.123E-02
  47 F= -.13415727E+03 E0= -.13415568E+03  d E =-.690668E-04
quench:  g(F)=  0.000E+00 g(S)=  0.000E+00 dE (1.order)= 0.000E+00
 bond charge predicted
       N       E                     dE             d eps       ncg     rms          rms(c)
DAV:   1    -0.134157331742E+03   -0.58405E-04   -0.21262E-03  4635   0.954E-02    0.124E-02
RMM:   2    -0.134157349721E+03   -0.17979E-04   -0.12456E-04  3254   0.240E-02    0.188E-02
RMM:   3    -0.134157341659E+03    0.80625E-05   -0.12545E-05  2250   0.162E-02
  48 F= -.13415734E+03 E0= -.13415575E+03  d E =-.703079E-04
quench:  g(F)=  0.000E+00 g(S)=  0.000E+00 dE (1.order)= 0.000E+00
 bond charge predicted
       N       E                     dE             d eps       ncg     rms          rms(c)
DAV:   1    -0.134157400309E+03   -0.50588E-04   -0.19544E-03  4464   0.884E-02    0.105E-02
RMM:   2    -0.134157411752E+03   -0.11442E-04   -0.11852E-04  3128   0.218E-02    0.937E-03
RMM:   3    -0.134157410125E+03    0.16265E-05   -0.75809E-06  2193   0.127E-02
  49 F= -.13415741E+03 E0= -.13415582E+03  d E =-.684668E-04
quench:  g(F)=  0.000E+00 g(S)=  0.000E+00 dE (1.order)= 0.000E+00
 bond charge predicted
       N       E                     dE             d eps       ncg     rms          rms(c)
DAV:   1    -0.134157467813E+03   -0.56061E-04   -0.19364E-03  4617   0.954E-02    0.114E-02
RMM:   2    -0.134157483645E+03   -0.15832E-04   -0.11315E-04  3193   0.216E-02    0.148E-02
RMM:   3    -0.134157477237E+03    0.64080E-05   -0.10419E-05  2269   0.151E-02
  50 F= -.13415748E+03 E0= -.13415589E+03  d E =-.671118E-04
quench:  g(F)=  0.000E+00 g(S)=  0.000E+00 dE (1.order)= 0.000E+00
 bond charge predicted
       N       E                     dE             d eps       ncg     rms          rms(c)
DAV:   1    -0.134157529010E+03   -0.45365E-04   -0.18713E-03  4581   0.886E-02    0.105E-02
RMM:   2    -0.134157539646E+03   -0.10636E-04   -0.11271E-04  3103   0.212E-02    0.861E-03
RMM:   3    -0.134157537883E+03    0.17635E-05   -0.70678E-06  2139   0.120E-02
  51 F= -.13415754E+03 E0= -.13415595E+03  d E =-.606454E-04
quench:  g(F)=  0.000E+00 g(S)=  0.000E+00 dE (1.order)= 0.000E+00
 bond charge predicted
       N       E                     dE             d eps       ncg     rms          rms(c)
DAV:   1    -0.134157590396E+03   -0.50750E-04   -0.18600E-03  4572   0.876E-02    0.115E-02
RMM:   2    -0.134157605025E+03   -0.14629E-04   -0.10536E-04  3135   0.223E-02    0.171E-02
RMM:   3    -0.134157598990E+03    0.60347E-05   -0.11603E-05  2243   0.158E-02
  52 F= -.13415760E+03 E0= -.13415601E+03  d E =-.611076E-04
quench:  g(F)=  0.000E+00 g(S)=  0.000E+00 dE (1.order)= 0.000E+00
 bond charge predicted
       N       E                     dE             d eps       ncg     rms          rms(c)
DAV:   1    -0.134157652571E+03   -0.47546E-04   -0.17900E-03  4482   0.849E-02    0.993E-03
RMM:   2    -0.134157662966E+03   -0.10394E-04   -0.10797E-04  3058   0.208E-02    0.883E-03
RMM:   3    -0.134157661545E+03    0.14211E-05   -0.73909E-06  2177   0.125E-02
  53 F= -.13415766E+03 E0= -.13415607E+03  d E =-.625543E-04
quench:  g(F)=  0.000E+00 g(S)=  0.000E+00 dE (1.order)= 0.000E+00
 bond charge predicted
       N       E                     dE             d eps       ncg     rms          rms(c)
DAV:   1    -0.134157720028E+03   -0.57062E-04   -0.18676E-03  4608   0.921E-02    0.110E-02
RMM:   2    -0.134157735486E+03   -0.15458E-04   -0.10936E-04  3171   0.211E-02    0.147E-02
RMM:   3    -0.134157729050E+03    0.64363E-05   -0.98134E-06  2266   0.149E-02
  54 F= -.13415773E+03 E0= -.13415614E+03  d E =-.675051E-04
quench:  g(F)=  0.000E+00 g(S)=  0.000E+00 dE (1.order)= 0.000E+00
 bond charge predicted
       N       E                     dE             d eps       ncg     rms          rms(c)
DAV:   1    -0.134157781859E+03   -0.46373E-04   -0.19625E-03  4491   0.892E-02    0.106E-02
RMM:   2    -0.134157792942E+03   -0.11082E-04   -0.11710E-04  3139   0.219E-02    0.873E-03
RMM:   3    -0.134157791125E+03    0.18168E-05   -0.74631E-06  2144   0.123E-02
  55 F= -.13415779E+03 E0= -.13415620E+03  d E =-.620753E-04
quench:  g(F)=  0.000E+00 g(S)=  0.000E+00 dE (1.order)= 0.000E+00
 bond charge predicted
       N       E                     dE             d eps       ncg     rms          rms(c)
DAV:   1    -0.134157844545E+03   -0.51603E-04   -0.20373E-03  4590   0.919E-02    0.119E-02
RMM:   2    -0.134157860218E+03   -0.15673E-04   -0.11679E-04  3211   0.227E-02    0.169E-02
RMM:   3    -0.134157854091E+03    0.61271E-05   -0.11176E-05  2246   0.156E-02
  56 F= -.13415785E+03 E0= -.13415626E+03  d E =-.629664E-04
quench:  g(F)=  0.000E+00 g(S)=  0.000E+00 dE (1.order)= 0.000E+00
 bond charge predicted
       N       E                     dE             d eps       ncg     rms          rms(c)
DAV:   1    -0.134157908429E+03   -0.48211E-04   -0.19539E-03  4464   0.889E-02    0.105E-02
RMM:   2    -0.134157920072E+03   -0.11642E-04   -0.12116E-04  3161   0.217E-02    0.941E-03
RMM:   3    -0.134157918250E+03    0.18220E-05   -0.74117E-06  2184   0.124E-02
  57 F= -.13415792E+03 E0= -.13415633E+03  d E =-.641583E-04
quench:  g(F)=  0.000E+00 g(S)=  0.000E+00 dE (1.order)= 0.000E+00
 bond charge predicted
       N       E                     dE             d eps       ncg     rms          rms(c)
DAV:   1    -0.134157984644E+03   -0.64573E-04   -0.20804E-03  4572   0.973E-02    0.116E-02
RMM:   2    -0.134158000238E+03   -0.15594E-04   -0.11883E-04  3225   0.223E-02    0.156E-02
RMM:   3    -0.134157994408E+03    0.58299E-05   -0.10794E-05  2243   0.154E-02
  58 F= -.13415799E+03 E0= -.13415641E+03  d E =-.761584E-04
quench:  g(F)=  0.000E+00 g(S)=  0.000E+00 dE (1.order)= 0.000E+00
 bond charge predicted
       N       E                     dE             d eps       ncg     rms          rms(c)
DAV:   1    -0.134158063151E+03   -0.62913E-04   -0.22611E-03  4374   0.942E-02    0.114E-02
RMM:   2    -0.134158075709E+03   -0.12558E-04   -0.13318E-04  3257   0.234E-02    0.951E-03
RMM:   3    -0.134158073619E+03    0.20903E-05   -0.85315E-06  2153   0.127E-02
  59 F= -.13415807E+03 E0= -.13415648E+03  d E =-.792108E-04
quench:  g(F)=  0.000E+00 g(S)=  0.000E+00 dE (1.order)= 0.000E+00
 bond charge predicted
       N       E                     dE             d eps       ncg     rms          rms(c)
DAV:   1    -0.134158129751E+03   -0.54042E-04   -0.22514E-03  4635   0.979E-02    0.126E-02
RMM:   2    -0.134158147768E+03   -0.18017E-04   -0.13113E-04  3306   0.239E-02    0.181E-02
RMM:   3    -0.134158140279E+03    0.74887E-05   -0.11577E-05  2250   0.157E-02
  60 F= -.13415814E+03 E0= -.13415655E+03  d E =-.666604E-04
quench:  g(F)=  0.000E+00 g(S)=  0.000E+00 dE (1.order)= 0.000E+00
 bond charge predicted
       N       E                     dE             d eps       ncg     rms          rms(c)
DAV:   1    -0.134158185566E+03   -0.37798E-04   -0.18649E-03  4545   0.879E-02    0.106E-02
RMM:   2    -0.134158196877E+03   -0.11311E-04   -0.11757E-04  3143   0.213E-02    0.945E-03
RMM:   3    -0.134158195181E+03    0.16957E-05   -0.78811E-06  2186   0.126E-02
  61 F= -.13415820E+03 E0= -.13415660E+03  d E =-.549020E-04
quench:  g(F)=  0.000E+00 g(S)=  0.000E+00 dE (1.order)= 0.000E+00
 bond charge predicted
       N       E                     dE             d eps       ncg     rms          rms(c)
DAV:   1    -0.134158246266E+03   -0.49389E-04   -0.18110E-03  4653   0.936E-02    0.110E-02
RMM:   2    -0.134158260593E+03   -0.14327E-04   -0.10578E-04  3148   0.213E-02    0.155E-02
RMM:   3    -0.134158254927E+03    0.56658E-05   -0.10563E-05  2237   0.153E-02
  62 F= -.13415825E+03 E0= -.13415667E+03  d E =-.597456E-04
quench:  g(F)=  0.000E+00 g(S)=  0.000E+00 dE (1.order)= 0.000E+00
 bond charge predicted
       N       E                     dE             d eps       ncg     rms          rms(c)
DAV:   1    -0.134158308089E+03   -0.47496E-04   -0.20431E-03  4329   0.892E-02    0.108E-02
RMM:   2    -0.134158319527E+03   -0.11438E-04   -0.12072E-04  3164   0.225E-02    0.904E-03
RMM:   3    -0.134158317702E+03    0.18243E-05   -0.79462E-06  2154   0.127E-02
  63 F= -.13415832E+03 E0= -.13415673E+03  d E =-.627756E-04
quench:  g(F)=  0.000E+00 g(S)=  0.000E+00 dE (1.order)= 0.000E+00
 bond charge predicted
       N       E                     dE             d eps       ncg     rms          rms(c)
DAV:   1    -0.134158369848E+03   -0.50321E-04   -0.22164E-03  4617   0.963E-02    0.122E-02
RMM:   2    -0.134158386195E+03   -0.16347E-04   -0.12752E-04  3294   0.231E-02    0.162E-02
RMM:   3    -0.134158380439E+03    0.57562E-05   -0.10924E-05  2250   0.152E-02
  64 F= -.13415838E+03 E0= -.13415679E+03  d E =-.627365E-04
quench:  g(F)=  0.000E+00 g(S)=  0.000E+00 dE (1.order)= 0.000E+00
 bond charge predicted
       N       E                     dE             d eps       ncg     rms          rms(c)
DAV:   1    -0.134158427609E+03   -0.41414E-04   -0.19758E-03  4563   0.910E-02    0.107E-02
RMM:   2    -0.134158439551E+03   -0.11943E-04   -0.12448E-04  3193   0.217E-02    0.944E-03
RMM:   3    -0.134158437573E+03    0.19781E-05   -0.75112E-06  2183   0.123E-02
  65 F= -.13415844E+03 E0= -.13415685E+03  d E =-.571343E-04
quench:  g(F)=  0.000E+00 g(S)=  0.000E+00 dE (1.order)= 0.000E+00
 bond charge predicted
       N       E                     dE             d eps       ncg     rms          rms(c)
DAV:   1    -0.134158489817E+03   -0.50265E-04   -0.19512E-03  4608   0.964E-02    0.114E-02
RMM:   2    -0.134158507559E+03   -0.17743E-04   -0.11387E-04  3202   0.223E-02    0.171E-02
RMM:   3    -0.134158498845E+03    0.87145E-05   -0.11052E-05  2271   0.157E-02
  66 F= -.13415850E+03 E0= -.13415691E+03  d E =-.612717E-04
quench:  g(F)=  0.000E+00 g(S)=  0.000E+00 dE (1.order)= 0.000E+00
 bond charge predicted
       N       E                     dE             d eps       ncg     rms          rms(c)
DAV:   1    -0.134158551676E+03   -0.44117E-04   -0.21433E-03  4338   0.902E-02    0.111E-02
RMM:   2    -0.134158563606E+03   -0.11930E-04   -0.12587E-04  3201   0.231E-02    0.934E-03
RMM:   3    -0.134158561719E+03    0.18866E-05   -0.83643E-06  2164   0.130E-02
  67 F= -.13415856E+03 E0= -.13415697E+03  d E =-.628746E-04
quench:  g(F)=  0.000E+00 g(S)=  0.000E+00 dE (1.order)= 0.000E+00
 bond charge predicted
       N       E                     dE             d eps       ncg     rms          rms(c)
DAV:   1    -0.134158607662E+03   -0.44056E-04   -0.22347E-03  4590   0.981E-02    0.124E-02
RMM:   2    -0.134158624412E+03   -0.16750E-04   -0.13008E-04  3310   0.233E-02    0.164E-02
RMM:   3    -0.134158618448E+03    0.59639E-05   -0.10978E-05  2247   0.153E-02
  68 F= -.13415862E+03 E0= -.13415703E+03  d E =-.567282E-04
quench:  g(F)=  0.000E+00 g(S)=  0.000E+00 dE (1.order)= 0.000E+00
 bond charge predicted
       N       E                     dE             d eps       ncg     rms          rms(c)
DAV:   1    -0.134158656156E+03   -0.31744E-04   -0.19324E-03  4518   0.907E-02    0.107E-02
RMM:   2    -0.134158668005E+03   -0.11849E-04   -0.12310E-04  3192   0.216E-02    0.938E-03
RMM:   3    -0.134158666037E+03    0.19686E-05   -0.76045E-06  2183   0.123E-02
  69 F= -.13415867E+03 E0= -.13415708E+03  d E =-.475889E-04
quench:  g(F)=  0.000E+00 g(S)=  0.000E+00 dE (1.order)= 0.000E+00
 bond charge predicted
       N       E                     dE             d eps       ncg     rms          rms(c)
DAV:   1    -0.134158709646E+03   -0.41641E-04   -0.19380E-03  4617   0.967E-02    0.114E-02
RMM:   2    -0.134158727379E+03   -0.17733E-04   -0.11369E-04  3209   0.223E-02    0.171E-02
RMM:   3    -0.134158718632E+03    0.87464E-05   -0.10887E-05  2273   0.156E-02
  70 F= -.13415872E+03 E0= -.13415713E+03  d E =-.525959E-04
quench:  g(F)=  0.000E+00 g(S)=  0.000E+00 dE (1.order)= 0.000E+00
 bond charge predicted
       N       E                     dE             d eps       ncg     rms          rms(c)
DAV:   1    -0.134158757257E+03   -0.29878E-04   -0.21791E-03  4320   0.912E-02    0.112E-02
RMM:   2    -0.134158769517E+03   -0.12260E-04   -0.12886E-04  3247   0.236E-02    0.931E-03
RMM:   3    -0.134158767567E+03    0.19499E-05   -0.87229E-06  2165   0.131E-02
  71 F= -.13415877E+03 E0= -.13415718E+03  d E =-.489348E-04
quench:  g(F)=  0.000E+00 g(S)=  0.000E+00 dE (1.order)= 0.000E+00
 bond charge predicted
       N       E                     dE             d eps       ncg     rms          rms(c)
DAV:   1    -0.134158805500E+03   -0.35983E-04   -0.21372E-03  4626   0.971E-02    0.123E-02
RMM:   2    -0.134158822172E+03   -0.16672E-04   -0.12765E-04  3292   0.231E-02    0.166E-02
RMM:   3    -0.134158816014E+03    0.61577E-05   -0.10932E-05  2250   0.153E-02
  72 F= -.13415882E+03 E0= -.13415723E+03  d E =-.484471E-04
quench:  g(F)=  0.000E+00 g(S)=  0.000E+00 dE (1.order)= 0.000E+00
 bond charge predicted
       N       E                     dE             d eps       ncg     rms          rms(c)
DAV:   1    -0.134158851411E+03   -0.29239E-04   -0.19260E-03  4509   0.905E-02    0.106E-02
RMM:   2    -0.134158863101E+03   -0.11690E-04   -0.12086E-04  3181   0.217E-02    0.927E-03
RMM:   3    -0.134158861300E+03    0.18009E-05   -0.80901E-06  2187   0.126E-02
  73 F= -.13415886E+03 E0= -.13415727E+03  d E =-.452859E-04
quench:  g(F)=  0.000E+00 g(S)=  0.000E+00 dE (1.order)= 0.000E+00
 bond charge predicted
       N       E                     dE             d eps       ncg     rms          rms(c)
DAV:   1    -0.134158901769E+03   -0.38668E-04   -0.20233E-03  4599   0.980E-02    0.117E-02
RMM:   2    -0.134158917668E+03   -0.15899E-04   -0.11737E-04  3241   0.224E-02    0.163E-02
RMM:   3    -0.134158911271E+03    0.63971E-05   -0.10789E-05  2245   0.155E-02
  74 F= -.13415891E+03 E0= -.13415733E+03  d E =-.499710E-04
quench:  g(F)=  0.000E+00 g(S)=  0.000E+00 dE (1.order)= 0.000E+00
 bond charge predicted
       N       E                     dE             d eps       ncg     rms          rms(c)
DAV:   1    -0.134158942180E+03   -0.24512E-04   -0.22111E-03  4374   0.934E-02    0.114E-02
RMM:   2    -0.134158954859E+03   -0.12679E-04   -0.13318E-04  3292   0.236E-02    0.930E-03
RMM:   3    -0.134158952651E+03    0.22074E-05   -0.82052E-06  2147   0.126E-02
  75 F= -.13415895E+03 E0= -.13415737E+03  d E =-.413803E-04
quench:  g(F)=  0.000E+00 g(S)=  0.000E+00 dE (1.order)= 0.000E+00
 bond charge predicted
       N       E                     dE             d eps       ncg     rms          rms(c)
DAV:   1    -0.134158978720E+03   -0.23861E-04   -0.20761E-03  4662   0.954E-02    0.125E-02
RMM:   2    -0.134158996065E+03   -0.17345E-04   -0.12485E-04  3280   0.236E-02    0.181E-02
RMM:   3    -0.134158988763E+03    0.73018E-05   -0.11694E-05  2254   0.157E-02
  76 F= -.13415899E+03 E0= -.13415740E+03  d E =-.361117E-04
quench:  g(F)=  0.000E+00 g(S)=  0.000E+00 dE (1.order)= 0.000E+00
 bond charge predicted
       N       E                     dE             d eps       ncg     rms          rms(c)
DAV:   1    -0.134159012242E+03   -0.16177E-04   -0.18275E-03  4518   0.879E-02    0.104E-02
RMM:   2    -0.134159023461E+03   -0.11219E-04   -0.11534E-04  3154   0.212E-02    0.920E-03
RMM:   3    -0.134159021788E+03    0.16730E-05   -0.76241E-06  2186   0.125E-02
  77 F= -.13415902E+03 E0= -.13415743E+03  d E =-.330251E-04
quench:  g(F)=  0.000E+00 g(S)=  0.000E+00 dE (1.order)= 0.000E+00
 bond charge predicted
       N       E                     dE             d eps       ncg     rms          rms(c)
DAV:   1    -0.134159053548E+03   -0.30087E-04   -0.18665E-03  4635   0.946E-02    0.113E-02
RMM:   2    -0.134159067723E+03   -0.14175E-04   -0.10953E-04  3191   0.214E-02    0.150E-02
RMM:   3    -0.134159062592E+03    0.51307E-05   -0.99400E-06  2238   0.150E-02
  78 F= -.13415906E+03 E0= -.13415748E+03  d E =-.408040E-04
quench:  g(F)=  0.000E+00 g(S)=  0.000E+00 dE (1.order)= 0.000E+00
 bond charge predicted
       N       E                     dE             d eps       ncg     rms          rms(c)
DAV:   1    -0.134159088941E+03   -0.21218E-04   -0.20358E-03  4356   0.911E-02    0.109E-02
RMM:   2    -0.134159100425E+03   -0.11483E-04   -0.12052E-04  3206   0.224E-02    0.870E-03
RMM:   3    -0.134159098529E+03    0.18958E-05   -0.83035E-06  2139   0.127E-02
  79 F= -.13415910E+03 E0= -.13415751E+03  d E =-.359366E-04
quench:  g(F)=  0.000E+00 g(S)=  0.000E+00 dE (1.order)= 0.000E+00
 bond charge predicted
       N       E                     dE             d eps       ncg     rms          rms(c)
DAV:   1    -0.134159125392E+03   -0.24968E-04   -0.19762E-03  4635   0.915E-02    0.121E-02
RMM:   2    -0.134159141120E+03   -0.15728E-04   -0.11641E-04  3211   0.229E-02    0.172E-02
RMM:   3    -0.134159134878E+03    0.62417E-05   -0.11262E-05  2254   0.155E-02
  80 F= -.13415913E+03 E0= -.13415755E+03  d E =-.363495E-04
quench:  g(F)=  0.000E+00 g(S)=  0.000E+00 dE (1.order)= 0.000E+00
 bond charge predicted
       N       E                     dE             d eps       ncg     rms          rms(c)
DAV:   1    -0.134159160553E+03   -0.19433E-04   -0.18029E-03  4518   0.869E-02    0.102E-02
RMM:   2    -0.134159171230E+03   -0.10677E-04   -0.11017E-04  3111   0.209E-02    0.882E-03
RMM:   3    -0.134159169714E+03    0.15160E-05   -0.75402E-06  2178   0.125E-02
  81 F= -.13415917E+03 E0= -.13415758E+03  d E =-.348362E-04
quench:  g(F)=  0.000E+00 g(S)=  0.000E+00 dE (1.order)= 0.000E+00
 bond charge predicted
       N       E                     dE             d eps       ncg     rms          rms(c)
DAV:   1    -0.134159202118E+03   -0.30888E-04   -0.18468E-03  4626   0.934E-02    0.112E-02
RMM:   2    -0.134159216125E+03   -0.14007E-04   -0.10670E-04  3174   0.213E-02    0.150E-02
RMM:   3    -0.134159210935E+03    0.51902E-05   -0.10274E-05  2237   0.152E-02
  82 F= -.13415921E+03 E0= -.13415763E+03  d E =-.412203E-04
quench:  g(F)=  0.000E+00 g(S)=  0.000E+00 dE (1.order)= 0.000E+00
 bond charge predicted
       N       E                     dE             d eps       ncg     rms          rms(c)
DAV:   1    -0.134159237060E+03   -0.20935E-04   -0.20936E-03  4338   0.916E-02    0.110E-02
RMM:   2    -0.134159248845E+03   -0.11785E-04   -0.12360E-04  3220   0.228E-02    0.885E-03
RMM:   3    -0.134159246939E+03    0.19066E-05   -0.85155E-06  2146   0.129E-02
  83 F= -.13415925E+03 E0= -.13415766E+03  d E =-.360040E-04
quench:  g(F)=  0.000E+00 g(S)=  0.000E+00 dE (1.order)= 0.000E+00
 bond charge predicted
       N       E                     dE             d eps       ncg     rms          rms(c)
DAV:   1    -0.134159268983E+03   -0.20138E-04   -0.19986E-03  4644   0.929E-02    0.122E-02
RMM:   2    -0.134159285065E+03   -0.16082E-04   -0.11967E-04  3257   0.229E-02    0.171E-02
RMM:   3    -0.134159278750E+03    0.63153E-05   -0.11216E-05  2257   0.154E-02
  84 F= -.13415928E+03 E0= -.13415769E+03  d E =-.318109E-04
quench:  g(F)=  0.000E+00 g(S)=  0.000E+00 dE (1.order)= 0.000E+00
 bond charge predicted
       N       E                     dE             d eps       ncg     rms          rms(c)
DAV:   1    -0.134159295804E+03   -0.10739E-04   -0.18551E-03  4518   0.886E-02    0.105E-02
RMM:   2    -0.134159307236E+03   -0.11432E-04   -0.11745E-04  3182   0.213E-02    0.916E-03
RMM:   3    -0.134159305450E+03    0.17860E-05   -0.73893E-06  2183   0.123E-02
  85 F= -.13415931E+03 E0= -.13415772E+03  d E =-.267004E-04
quench:  g(F)=  0.000E+00 g(S)=  0.000E+00 dE (1.order)= 0.000E+00
 bond charge predicted
       N       E                     dE             d eps       ncg     rms          rms(c)
DAV:   1    -0.134159330084E+03   -0.22848E-04   -0.19274E-03  4608   0.957E-02    0.116E-02
RMM:   2    -0.134159344716E+03   -0.14632E-04   -0.11173E-04  3228   0.218E-02    0.154E-02
RMM:   3    -0.134159339296E+03    0.54199E-05   -0.10733E-05  2241   0.154E-02
  86 F= -.13415934E+03 E0= -.13415776E+03  d E =-.338458E-04
quench:  g(F)=  0.000E+00 g(S)=  0.000E+00 dE (1.order)= 0.000E+00
 bond charge predicted
       N       E                     dE             d eps       ncg     rms          rms(c)
DAV:   1    -0.134159365626E+03   -0.20910E-04   -0.22756E-03  4329   0.956E-02    0.116E-02
RMM:   2    -0.134159378552E+03   -0.12926E-04   -0.13548E-04  3321   0.238E-02    0.928E-03
RMM:   3    -0.134159376331E+03    0.22211E-05   -0.86176E-06  2152   0.128E-02
  87 F= -.13415938E+03 E0= -.13415779E+03  d E =-.370352E-04
quench:  g(F)=  0.000E+00 g(S)=  0.000E+00 dE (1.order)= 0.000E+00
 bond charge predicted
       N       E                     dE             d eps       ncg     rms          rms(c)
DAV:   1    -0.134159405394E+03   -0.26841E-04   -0.22470E-03  4626   0.980E-02    0.129E-02
RMM:   2    -0.134159423183E+03   -0.17790E-04   -0.13304E-04  3331   0.242E-02    0.179E-02
RMM:   3    -0.134159416249E+03    0.69345E-05   -0.12201E-05  2260   0.157E-02
  88 F= -.13415942E+03 E0= -.13415783E+03  d E =-.399178E-04
quench:  g(F)=  0.000E+00 g(S)=  0.000E+00 dE (1.order)= 0.000E+00
 bond charge predicted
       N       E                     dE             d eps       ncg     rms          rms(c)
DAV:   1    -0.134159437150E+03   -0.13967E-04   -0.20856E-03  4509   0.939E-02    0.111E-02
RMM:   2    -0.134159449857E+03   -0.12707E-04   -0.13079E-04  3278   0.225E-02    0.959E-03
RMM:   3    -0.134159447833E+03    0.20233E-05   -0.81991E-06  2191   0.126E-02
  89 F= -.13415945E+03 E0= -.13415786E+03  d E =-.315844E-04
quench:  g(F)=  0.000E+00 g(S)=  0.000E+00 dE (1.order)= 0.000E+00
 bond charge predicted
       N       E                     dE             d eps       ncg     rms          rms(c)
DAV:   1    -0.134159474702E+03   -0.24845E-04   -0.20985E-03  4635   0.101E-01    0.122E-02
RMM:   2    -0.134159491346E+03   -0.16644E-04   -0.12324E-04  3296   0.230E-02    0.168E-02
RMM:   3    -0.134159484631E+03    0.67149E-05   -0.11453E-05  2252   0.158E-02
  90 F= -.13415948E+03 E0= -.13415790E+03  d E =-.367979E-04
quench:  g(F)=  0.000E+00 g(S)=  0.000E+00 dE (1.order)= 0.000E+00
 bond charge predicted
       N       E                     dE             d eps       ncg     rms          rms(c)
DAV:   1    -0.134159515092E+03   -0.23746E-04   -0.23849E-03  4338   0.976E-02    0.118E-02
RMM:   2    -0.134159528526E+03   -0.13434E-04   -0.14069E-04  3340   0.243E-02    0.944E-03
RMM:   3    -0.134159526247E+03    0.22792E-05   -0.89050E-06  2157   0.129E-02
  91 F= -.13415953E+03 E0= -.13415794E+03  d E =-.416160E-04
quench:  g(F)=  0.000E+00 g(S)=  0.000E+00 dE (1.order)= 0.000E+00
 bond charge predicted
       N       E                     dE             d eps       ncg     rms          rms(c)
DAV:   1    -0.134159555493E+03   -0.26966E-04   -0.24239E-03  4635   0.102E-01    0.133E-02
RMM:   2    -0.134159574573E+03   -0.19080E-04   -0.14268E-04  3391   0.249E-02    0.183E-02
RMM:   3    -0.134159567111E+03    0.74611E-05   -0.12663E-05  2263   0.159E-02
  92 F= -.13415957E+03 E0= -.13415798E+03  d E =-.408643E-04
quench:  g(F)=  0.000E+00 g(S)=  0.000E+00 dE (1.order)= 0.000E+00
 bond charge predicted
       N       E                     dE             d eps       ncg     rms          rms(c)
DAV:   1    -0.134159591709E+03   -0.17137E-04   -0.22882E-03  4491   0.978E-02    0.116E-02
RMM:   2    -0.134159605635E+03   -0.13926E-04   -0.14355E-04  3353   0.234E-02    0.101E-02
RMM:   3    -0.134159603223E+03    0.24126E-05   -0.80459E-06  2192   0.125E-02
  93 F= -.13415960E+03 E0= -.13415802E+03  d E =-.361112E-04
quench:  g(F)=  0.000E+00 g(S)=  0.000E+00 dE (1.order)= 0.000E+00
 bond charge predicted
       N       E                     dE             d eps       ncg     rms          rms(c)
DAV:   1    -0.134159635225E+03   -0.29589E-04   -0.22926E-03  4608   0.105E-01    0.128E-02
RMM:   2    -0.134159655283E+03   -0.20059E-04   -0.13327E-04  3360   0.241E-02    0.180E-02
RMM:   3    -0.134159645821E+03    0.94622E-05   -0.12538E-05  2281   0.163E-02
  94 F= -.13415965E+03 E0= -.13415807E+03  d E =-.425985E-04
quench:  g(F)=  0.000E+00 g(S)=  0.000E+00 dE (1.order)= 0.000E+00
 bond charge predicted
       N       E                     dE             d eps       ncg     rms          rms(c)
DAV:   1    -0.134159678252E+03   -0.22968E-04   -0.25818E-03  4401   0.101E-01    0.124E-02
RMM:   2    -0.134159693082E+03   -0.14830E-04   -0.15521E-04  3451   0.254E-02    0.100E-02
RMM:   3    -0.134159690462E+03    0.26201E-05   -0.90152E-06  2169   0.128E-02
  95 F= -.13415969E+03 E0= -.13415811E+03  d E =-.446405E-04
quench:  g(F)=  0.000E+00 g(S)=  0.000E+00 dE (1.order)= 0.000E+00
 bond charge predicted
       N       E                     dE             d eps       ncg     rms          rms(c)
DAV:   1    -0.134159719459E+03   -0.26378E-04   -0.25643E-03  4617   0.106E-01    0.137E-02
RMM:   2    -0.134159740071E+03   -0.20611E-04   -0.15356E-04  3450   0.256E-02    0.189E-02
RMM:   3    -0.134159731804E+03    0.82670E-05   -0.12576E-05  2269   0.159E-02
  96 F= -.13415973E+03 E0= -.13415815E+03  d E =-.413421E-04
quench:  g(F)=  0.000E+00 g(S)=  0.000E+00 dE (1.order)= 0.000E+00
 bond charge predicted
       N       E                     dE             d eps       ncg     rms          rms(c)
DAV:   1    -0.134159750471E+03   -0.10400E-04   -0.23718E-03  4473   0.100E-01    0.119E-02
RMM:   2    -0.134159764865E+03   -0.14394E-04   -0.14807E-04  3395   0.238E-02    0.101E-02
RMM:   3    -0.134159762412E+03    0.24525E-05   -0.84257E-06  2197   0.126E-02
  97 F= -.13415976E+03 E0= -.13415818E+03  d E =-.306084E-04
quench:  g(F)=  0.000E+00 g(S)=  0.000E+00 dE (1.order)= 0.000E+00
 bond charge predicted
       N       E                     dE             d eps       ncg     rms          rms(c)
DAV:   1    -0.134159782810E+03   -0.17945E-04   -0.23215E-03  4644   0.107E-01    0.130E-02
RMM:   2    -0.134159803944E+03   -0.21135E-04   -0.13779E-04  3398   0.246E-02    0.188E-02
RMM:   3    -0.134159793612E+03    0.10333E-04   -0.12949E-05  2286   0.164E-02    0.108E-02
RMM:   4    -0.134159792347E+03    0.12650E-05   -0.35450E-06  2156   0.954E-03
  98 F= -.13415979E+03 E0= -.13415821E+03  d E =-.299346E-04
quench:  g(F)=  0.000E+00 g(S)=  0.000E+00 dE (1.order)= 0.000E+00
 bond charge predicted
       N       E                     dE             d eps       ncg     rms          rms(c)
DAV:   1    -0.134159810933E+03   -0.17321E-04   -0.29952E-03  4176   0.974E-02    0.122E-02
RMM:   2    -0.134159824537E+03   -0.13604E-04   -0.13832E-04  3390   0.233E-02    0.910E-03
RMM:   3    -0.134159823230E+03    0.13072E-05   -0.95735E-06  2224   0.134E-02
  99 F= -.13415982E+03 E0= -.13415824E+03  d E =-.308830E-04
quench:  g(F)=  0.000E+00 g(S)=  0.000E+00 dE (1.order)= 0.000E+00
 bond charge predicted
       N       E                     dE             d eps       ncg     rms          rms(c)
DAV:   1    -0.134159836870E+03   -0.12333E-04   -0.31779E-03  4572   0.122E-01    0.143E-02
RMM:   2    -0.134159856767E+03   -0.19897E-04   -0.18511E-04  3727   0.275E-02    0.148E-02
RMM:   3    -0.134159852529E+03    0.42383E-05   -0.12121E-05  2263   0.148E-02
 100 F= -.13415985E+03 E0= -.13415828E+03  d E =-.292992E-04
quench:  g(F)=  0.000E+00 g(S)=  0.000E+00 dE (1.order)= 0.000E+00
 bond charge predicted
       N       E                     dE             d eps       ncg     rms          rms(c)
DAV:   1    -0.134159862811E+03   -0.60434E-05   -0.27049E-03  4626   0.115E-01    0.131E-02
RMM:   2    -0.134159879788E+03   -0.16977E-04   -0.17503E-04  3649   0.255E-02    0.104E-02
RMM:   3    -0.134159876564E+03    0.32235E-05   -0.86968E-06  2216   0.116E-02
 101 F= -.13415988E+03 E0= -.13415829E+03  d E =-.240353E-04
quench:  g(F)=  0.000E+00 g(S)=  0.000E+00 dE (1.order)= 0.000E+00
 bond charge predicted
       N       E                     dE             d eps       ncg     rms          rms(c)
DAV:   1    -0.134159891088E+03   -0.11300E-04   -0.22561E-03  4698   0.108E-01    0.131E-02
RMM:   2    -0.134159912968E+03   -0.21880E-04   -0.13678E-04  3376   0.257E-02    0.200E-02
RMM:   3    -0.134159901464E+03    0.11504E-04   -0.13305E-05  2282   0.166E-02    0.105E-02
RMM:   4    -0.134159900341E+03    0.11229E-05   -0.36080E-06  2155   0.974E-03
 102 F= -.13415990E+03 E0= -.13415832E+03  d E =-.237768E-04
quench:  g(F)=  0.000E+00 g(S)=  0.000E+00 dE (1.order)= 0.000E+00
 bond charge predicted
       N       E                     dE             d eps       ncg     rms          rms(c)
DAV:   1    -0.134159917683E+03   -0.16219E-04   -0.31400E-03  4158   0.101E-01    0.125E-02
RMM:   2    -0.134159931971E+03   -0.14289E-04   -0.14346E-04  3459   0.240E-02    0.929E-03
RMM:   3    -0.134159930659E+03    0.13119E-05   -0.10295E-05  2234   0.137E-02
 103 F= -.13415993E+03 E0= -.13415835E+03  d E =-.303183E-04
quench:  g(F)=  0.000E+00 g(S)=  0.000E+00 dE (1.order)= 0.000E+00
 bond charge predicted
       N       E                     dE             d eps       ncg     rms          rms(c)
DAV:   1    -0.134159939879E+03   -0.79082E-05   -0.38925E-03  4518   0.131E-01    0.157E-02
RMM:   2    -0.134159963093E+03   -0.23213E-04   -0.22534E-04  3925   0.303E-02    0.154E-02
RMM:   3    -0.134159958345E+03    0.47478E-05   -0.12235E-05  2273   0.148E-02
 104 F= -.13415996E+03 E0= -.13415838E+03  d E =-.276856E-04
quench:  g(F)=  0.000E+00 g(S)=  0.000E+00 dE (1.order)= 0.000E+00
 bond charge predicted
       N       E                     dE             d eps       ncg     rms          rms(c)
DAV:   1    -0.134159956323E+03    0.67696E-05   -0.34727E-03  4599   0.129E-01    0.152E-02
RMM:   2    -0.134159978446E+03   -0.22123E-04   -0.22323E-04  3929   0.287E-02    0.122E-02
RMM:   3    -0.134159974600E+03    0.38460E-05   -0.11540E-05  2278   0.124E-02
 105 F= -.13415997E+03 E0= -.13415839E+03  d E =-.162553E-04
quench:  g(F)=  0.000E+00 g(S)=  0.000E+00 dE (1.order)= 0.000E+00
 bond charge predicted
       N       E                     dE             d eps       ncg     rms          rms(c)
DAV:   1    -0.134159978007E+03    0.43965E-06   -0.22068E-03  5013   0.117E-01    0.137E-02
RMM:   2    -0.134159997312E+03   -0.19306E-04   -0.13581E-04  3332   0.250E-02    0.181E-02
RMM:   3    -0.134159989038E+03    0.82740E-05   -0.13239E-05  2281   0.165E-02
 106 F= -.13415999E+03 E0= -.13415841E+03  d E =-.144381E-04
quench:  g(F)=  0.000E+00 g(S)=  0.000E+00 dE (1.order)= 0.000E+00
 bond charge predicted
       N       E                     dE             d eps       ncg     rms          rms(c)
DAV:   1    -0.134159986772E+03    0.10541E-04   -0.25095E-03  4437   0.104E-01    0.125E-02
RMM:   2    -0.134160000913E+03   -0.14141E-04   -0.14579E-04  3480   0.255E-02    0.919E-03
RMM:   3    -0.134159998545E+03    0.23682E-05   -0.96869E-06  2153   0.134E-02
 107 F= -.13416000E+03 E0= -.13415842E+03  d E =-.950648E-05
quench:  g(F)=  0.000E+00 g(S)=  0.000E+00 dE (1.order)= 0.000E+00
 bond charge predicted
       N       E                     dE             d eps       ncg     rms          rms(c)
DAV:   1    -0.134159996805E+03    0.41082E-05   -0.31353E-03  4302   0.109E-01    0.147E-02
RMM:   2    -0.134160016018E+03   -0.19213E-04   -0.17835E-04  3686   0.267E-02    0.155E-02
RMM:   3    -0.134160011866E+03    0.41527E-05   -0.10978E-05  2263   0.145E-02
 108 F= -.13416001E+03 E0= -.13415843E+03  d E =-.133206E-04
quench:  g(F)=  0.000E+00 g(S)=  0.000E+00 dE (1.order)= 0.000E+00
 bond charge predicted
       N       E                     dE             d eps       ncg     rms          rms(c)
DAV:   1    -0.134160003179E+03    0.12840E-04   -0.28103E-03  4653   0.115E-01    0.132E-02
RMM:   2    -0.134160021072E+03   -0.17893E-04   -0.18535E-04  3695   0.259E-02    0.102E-02
RMM:   3    -0.134160017271E+03    0.38007E-05   -0.89920E-06  2160   0.114E-02
 109 F= -.13416002E+03 E0= -.13415844E+03  d E =-.540580E-05
quench:  g(F)=  0.000E+00 g(S)=  0.000E+00 dE (1.order)= 0.000E+00
 bond charge predicted
       N       E                     dE             d eps       ncg     rms          rms(c)
DAV:   1    -0.134160018943E+03    0.21288E-05   -0.20516E-03  4185   0.824E-02    0.125E-02
RMM:   2    -0.134160030865E+03   -0.11922E-04   -0.11535E-04  3201   0.217E-02    0.121E-02
RMM:   3    -0.134160028629E+03    0.22365E-05   -0.80794E-06  2233   0.130E-02
 110 F= -.13416003E+03 E0= -.13415845E+03  d E =-.113574E-04
quench:  g(F)=  0.000E+00 g(S)=  0.000E+00 dE (1.order)= 0.000E+00
 bond charge predicted
       N       E                     dE             d eps       ncg     rms          rms(c)
DAV:   1    -0.134160022071E+03    0.87943E-05   -0.25305E-03  4590   0.109E-01    0.119E-02
RMM:   2    -0.134160036862E+03   -0.14791E-04   -0.15052E-04  3556   0.243E-02    0.849E-03
RMM:   3    -0.134160034334E+03    0.25277E-05   -0.85512E-06  2175   0.121E-02
 111 F= -.13416003E+03 E0= -.13415846E+03  d E =-.570527E-05
quench:  g(F)=  0.000E+00 g(S)=  0.000E+00 dE (1.order)= 0.000E+00
 bond charge predicted
       N       E                     dE             d eps       ncg     rms          rms(c)
DAV:   1    -0.134160025346E+03    0.11516E-04   -0.29648E-03  4410   0.107E-01    0.145E-02
RMM:   2    -0.134160044809E+03   -0.19463E-04   -0.17499E-04  3672   0.263E-02    0.158E-02
RMM:   3    -0.134160040191E+03    0.46180E-05   -0.12381E-05  2268   0.150E-02
 112 F= -.13416004E+03 E0= -.13415846E+03  d E =-.585734E-05
quench:  g(F)=  0.000E+00 g(S)=  0.000E+00 dE (1.order)= 0.000E+00
 bond charge predicted
       N       E                     dE             d eps       ncg     rms          rms(c)
DAV:   1    -0.134160028231E+03    0.16578E-04   -0.27250E-03  4635   0.113E-01    0.130E-02
RMM:   2    -0.134160045430E+03   -0.17199E-04   -0.17778E-04  3657   0.254E-02    0.102E-02
RMM:   3    -0.134160041836E+03    0.35935E-05   -0.92669E-06  2169   0.117E-02
 113 F= -.13416004E+03 E0= -.13415846E+03  d E =-.164512E-05
quench:  g(F)=  0.000E+00 g(S)=  0.000E+00 dE (1.order)= 0.000E+00
 bond charge predicted
       N       E                     dE             d eps       ncg     rms          rms(c)
DAV:   1    -0.134160041650E+03    0.37794E-05   -0.22342E-03  4590   0.982E-02    0.135E-02
RMM:   2    -0.134160066670E+03   -0.25020E-04   -0.13010E-04  3392   0.252E-02    0.229E-02
RMM:   3    -0.134160050593E+03    0.16077E-04   -0.14330E-05  2315   0.172E-02    0.104E-02
RMM:   4    -0.134160049582E+03    0.10108E-05   -0.39962E-06  2177   0.101E-02
 114 F= -.13416005E+03 E0= -.13415848E+03  d E =-.774589E-05
quench:  g(F)=  0.000E+00 g(S)=  0.000E+00 dE (1.order)= 0.000E+00
 bond charge predicted
       N       E                     dE             d eps       ncg     rms          rms(c)
DAV:   1    -0.134160047466E+03    0.31270E-05   -0.32205E-03  4158   0.104E-01    0.131E-02
RMM:   2    -0.134160062996E+03   -0.15530E-04   -0.15285E-04  3614   0.251E-02    0.101E-02
RMM:   3    -0.134160061096E+03    0.19007E-05   -0.10582E-05  2238   0.139E-02
 115 F= -.13416006E+03 E0= -.13415848E+03  d E =-.115132E-04
quench:  g(F)=  0.000E+00 g(S)=  0.000E+00 dE (1.order)= 0.000E+00
 bond charge predicted
       N       E                     dE             d eps       ncg     rms          rms(c)
DAV:   1    -0.134160049134E+03    0.13863E-04   -0.38704E-03  4527   0.131E-01    0.165E-02
RMM:   2    -0.134160073014E+03   -0.23881E-04   -0.22682E-04  3939   0.310E-02    0.174E-02
RMM:   3    -0.134160067219E+03    0.57949E-05   -0.13693E-05  2279   0.159E-02
 116 F= -.13416007E+03 E0= -.13415850E+03  d E =-.612369E-05
quench:  g(F)=  0.000E+00 g(S)=  0.000E+00 dE (1.order)= 0.000E+00
 bond charge predicted
       N       E                     dE             d eps       ncg     rms          rms(c)
DAV:   1    -0.134160048844E+03    0.24170E-04   -0.32993E-03  4662   0.128E-01    0.152E-02
RMM:   2    -0.134160070160E+03   -0.21316E-04   -0.21318E-04  3905   0.282E-02    0.123E-02
RMM:   3    -0.134160066614E+03    0.35456E-05   -0.11920E-05  2286   0.125E-02
 117 F= -.13416007E+03 E0= -.13415849E+03  d E =0.604879E-06
quench:  g(F)=  0.000E+00 g(S)=  0.000E+00 dE (1.order)= 0.000E+00
 bond charge predicted
       N       E                     dE             d eps       ncg     rms          rms(c)
DAV:   1    -0.134160061139E+03    0.90210E-05   -0.20565E-03  5031   0.115E-01    0.135E-02
RMM:   2    -0.134160080163E+03   -0.19024E-04   -0.12756E-04  3295   0.247E-02    0.180E-02
RMM:   3    -0.134160072885E+03    0.72779E-05   -0.13185E-05  2273   0.166E-02
 118 F= -.13416007E+03 E0= -.13415850E+03  d E =-.627095E-05
quench:  g(F)=  0.000E+00 g(S)=  0.000E+00 dE (1.order)= 0.000E+00
 bond charge predicted
       N       E                     dE             d eps       ncg     rms          rms(c)
DAV:   1    -0.134160063831E+03    0.16332E-04   -0.25857E-03  4446   0.105E-01    0.127E-02
RMM:   2    -0.134160076919E+03   -0.13088E-04   -0.14862E-04  3566   0.258E-02    0.939E-03
RMM:   3    -0.134160074500E+03    0.24195E-05   -0.10301E-05  2201   0.136E-02
 119 F= -.13416007E+03 E0= -.13415850E+03  d E =-.161454E-05
quench:  g(F)=  0.000E+00 g(S)=  0.000E+00 dE (1.order)= 0.000E+00
 bond charge predicted
       N       E                     dE             d eps       ncg     rms          rms(c)
DAV:   1    -0.134160067152E+03    0.97669E-05   -0.31616E-03  4284   0.106E-01    0.148E-02
RMM:   2    -0.134160085062E+03   -0.17910E-04   -0.18057E-04  3653   0.265E-02    0.140E-02
RMM:   3    -0.134160081881E+03    0.31809E-05   -0.10093E-05  2242   0.137E-02
 120 F= -.13416008E+03 E0= -.13415851E+03  d E =-.738125E-05
quench:  g(F)=  0.000E+00 g(S)=  0.000E+00 dE (1.order)= 0.000E+00
 bond charge predicted
       N       E                     dE             d eps       ncg     rms          rms(c)
DAV:   1    -0.134160070252E+03    0.14810E-04   -0.31799E-03  4680   0.119E-01    0.138E-02
RMM:   2    -0.134160090104E+03   -0.19852E-04   -0.20068E-04  3801   0.271E-02    0.107E-02
RMM:   3    -0.134160087109E+03    0.29943E-05   -0.10567E-05  2258   0.121E-02
 121 F= -.13416009E+03 E0= -.13415852E+03  d E =-.522823E-05
quench:  g(F)=  0.000E+00 g(S)=  0.000E+00 dE (1.order)= 0.000E+00
 bond charge predicted
       N       E                     dE             d eps       ncg     rms          rms(c)
DAV:   1    -0.134160077980E+03    0.12123E-04   -0.24897E-03  4806   0.113E-01    0.138E-02
RMM:   2    -0.134160095093E+03   -0.17113E-04   -0.15414E-04  3460   0.243E-02    0.145E-02
RMM:   3    -0.134160091176E+03    0.39173E-05   -0.10392E-05  2251   0.145E-02
 122 F= -.13416009E+03 E0= -.13415852E+03  d E =-.406635E-05
quench:  g(F)=  0.000E+00 g(S)=  0.000E+00 dE (1.order)= 0.000E+00
 bond charge predicted
       N       E                     dE             d eps       ncg     rms          rms(c)
DAV:   1    -0.134160076663E+03    0.18430E-04   -0.27220E-03  4626   0.113E-01    0.130E-02
RMM:   2    -0.134160093049E+03   -0.16386E-04   -0.16869E-04  3618   0.252E-02    0.970E-03
RMM:   3    -0.134160089869E+03    0.31806E-05   -0.92312E-06  2165   0.119E-02
 123 F= -.13416009E+03 E0= -.13415852E+03  d E =0.130693E-05
quench:  g(F)=  0.000E+00 g(S)=  0.000E+00 dE (1.order)= 0.000E+00
 bond charge predicted
       N       E                     dE             d eps       ncg     rms          rms(c)
DAV:   1    -0.134160085038E+03    0.80116E-05   -0.29372E-03  4464   0.109E-01    0.149E-02
RMM:   2    -0.134160113101E+03   -0.28063E-04   -0.17274E-04  3667   0.277E-02    0.226E-02
RMM:   3    -0.134160097579E+03    0.15522E-04   -0.14725E-05  2333   0.169E-02    0.122E-02
RMM:   4    -0.134160095957E+03    0.16223E-05   -0.46097E-06  2177   0.109E-02
 124 F= -.13416010E+03 E0= -.13415853E+03  d E =-.608790E-05
quench:  g(F)=  0.000E+00 g(S)=  0.000E+00 dE (1.order)= 0.000E+00
 bond charge predicted
       N       E                     dE             d eps       ncg     rms          rms(c)
DAV:   1    -0.134160092975E+03    0.46043E-05   -0.36365E-03  4167   0.109E-01    0.141E-02
RMM:   2    -0.134160111043E+03   -0.18069E-04   -0.17908E-04  3752   0.267E-02    0.113E-02
RMM:   3    -0.134160108519E+03    0.25246E-05   -0.11675E-05  2258   0.143E-02
 125 F= -.13416011E+03 E0= -.13415853E+03  d E =-.125620E-04
quench:  g(F)=  0.000E+00 g(S)=  0.000E+00 dE (1.order)= 0.000E+00
 bond charge predicted
       N       E                     dE             d eps       ncg     rms          rms(c)
DAV:   1    -0.134160105031E+03    0.60126E-05   -0.34781E-03  4626   0.129E-01    0.158E-02
RMM:   2    -0.134160130115E+03   -0.25084E-04   -0.21292E-04  3837   0.302E-02    0.182E-02
RMM:   3    -0.134160121982E+03    0.81325E-05   -0.13794E-05  2302   0.160E-02
 126 F= -.13416012E+03 E0= -.13415856E+03  d E =-.134637E-04
quench:  g(F)=  0.000E+00 g(S)=  0.000E+00 dE (1.order)= 0.000E+00
 bond charge predicted
       N       E                     dE             d eps       ncg     rms          rms(c)
DAV:   1    -0.134160106806E+03    0.23309E-04   -0.31009E-03  4716   0.122E-01    0.144E-02
RMM:   2    -0.134160126325E+03   -0.19520E-04   -0.19874E-04  3822   0.276E-02    0.113E-02
RMM:   3    -0.134160122792E+03    0.35334E-05   -0.10589E-05  2247   0.121E-02
 127 F= -.13416012E+03 E0= -.13415855E+03  d E =-.809683E-06
quench:  g(F)=  0.000E+00 g(S)=  0.000E+00 dE (1.order)= 0.000E+00
 bond charge predicted
       N       E                     dE             d eps       ncg     rms          rms(c)
DAV:   1    -0.134160113309E+03    0.13017E-04   -0.25732E-03  4734   0.117E-01    0.144E-02
RMM:   2    -0.134160138043E+03   -0.24734E-04   -0.15825E-04  3516   0.276E-02    0.208E-02
RMM:   3    -0.134160126794E+03    0.11249E-04   -0.14915E-05  2290   0.171E-02    0.118E-02
RMM:   4    -0.134160123846E+03    0.29488E-05   -0.43112E-06  2245   0.106E-02
 128 F= -.13416012E+03 E0= -.13415856E+03  d E =-.105353E-05
quench:  g(F)=  0.000E+00 g(S)=  0.000E+00 dE (1.order)= 0.000E+00
 bond charge predicted
       N       E                     dE             d eps       ncg     rms          rms(c)
DAV:   1    -0.134160111719E+03    0.15076E-04   -0.36565E-03  4113   0.109E-01    0.138E-02
RMM:   2    -0.134160128152E+03   -0.16433E-04   -0.16595E-04  3711   0.259E-02    0.959E-03
RMM:   3    -0.134160127345E+03    0.80685E-06   -0.11166E-05  2264   0.138E-02
 129 F= -.13416013E+03 E0= -.13415856E+03  d E =-.349959E-05
quench:  g(F)=  0.000E+00 g(S)=  0.000E+00 dE (1.order)= 0.000E+00
 bond charge predicted
       N       E                     dE             d eps       ncg     rms          rms(c)
DAV:   1    -0.134160101294E+03    0.26858E-04   -0.45330E-03  4554   0.144E-01    0.174E-02
RMM:   2    -0.134160128014E+03   -0.26720E-04   -0.26758E-04  4156   0.321E-02    0.156E-02
RMM:   3    -0.134160122671E+03    0.53433E-05   -0.12466E-05  2289   0.143E-02
 130 F= -.13416012E+03 E0= -.13415856E+03  d E =0.467450E-05
quench:  g(F)=  0.000E+00 g(S)=  0.000E+00 dE (1.order)= 0.000E+00
 bond charge predicted
       N       E                     dE             d eps       ncg     rms          rms(c)
DAV:   1    -0.134160094026E+03    0.33988E-04   -0.42685E-03  4599   0.143E-01    0.169E-02
RMM:   2    -0.134160121395E+03   -0.27369E-04   -0.26890E-04  4205   0.315E-02    0.137E-02
RMM:   3    -0.134160117316E+03    0.40785E-05   -0.15140E-05  2313   0.134E-02
 131 F= -.13416012E+03 E0= -.13415855E+03  d E =0.535443E-05
quench:  g(F)=  0.000E+00 g(S)=  0.000E+00 dE (1.order)= 0.000E+00
 bond charge predicted
       N       E                     dE             d eps       ncg     rms          rms(c)
DAV:   1    -0.134160103131E+03    0.18264E-04   -0.25992E-03  5094   0.129E-01    0.150E-02
RMM:   2    -0.134160123393E+03   -0.20262E-04   -0.16393E-04  3505   0.261E-02    0.162E-02
RMM:   3    -0.134160118335E+03    0.50575E-05   -0.12624E-05  2282   0.158E-02
 132 F= -.13416012E+03 E0= -.13415856E+03  d E =-.101915E-05
quench:  g(F)=  0.000E+00 g(S)=  0.000E+00 dE (1.order)= 0.000E+00
 bond charge predicted
       N       E                     dE             d eps       ncg     rms          rms(c)
DAV:   1    -0.134160094344E+03    0.29049E-04   -0.31105E-03  4671   0.123E-01    0.141E-02
RMM:   2    -0.134160111082E+03   -0.16738E-04   -0.18122E-04  3830   0.276E-02    0.102E-02
RMM:   3    -0.134160108733E+03    0.23496E-05   -0.11247E-05  2248   0.123E-02
 133 F= -.13416011E+03 E0= -.13415854E+03  d E =0.960258E-05
quench:  g(F)=  0.000E+00 g(S)=  0.000E+00 dE (1.order)= 0.000E+00
 bond charge predicted
       N       E                     dE             d eps       ncg     rms          rms(c)
DAV:   1    -0.134160077295E+03    0.33788E-04   -0.41385E-03  4599   0.134E-01    0.175E-02
RMM:   2    -0.134160106651E+03   -0.29356E-04   -0.24393E-04  4052   0.322E-02    0.192E-02
RMM:   3    -0.134160098444E+03    0.82068E-05   -0.15474E-05  2318   0.167E-02
 134 F= -.13416010E+03 E0= -.13415854E+03  d E =0.102889E-04
quench:  g(F)=  0.000E+00 g(S)=  0.000E+00 dE (1.order)= 0.000E+00
 bond charge predicted
       N       E                     dE             d eps       ncg     rms          rms(c)
DAV:   1    -0.134160054994E+03    0.51657E-04   -0.45626E-03  4518   0.145E-01    0.175E-02
RMM:   2    -0.134160083054E+03   -0.28060E-04   -0.28759E-04  4283   0.334E-02    0.130E-02
RMM:   3    -0.134160077611E+03    0.54432E-05   -0.15132E-05  2280   0.127E-02
 135 F= -.13416008E+03 E0= -.13415851E+03  d E =0.208329E-04
quench:  g(F)=  0.000E+00 g(S)=  0.000E+00 dE (1.order)= 0.000E+00
 bond charge predicted
       N       E                     dE             d eps       ncg     rms          rms(c)
DAV:   1    -0.134160055177E+03    0.27877E-04   -0.33029E-03  4824   0.128E-01    0.170E-02
RMM:   2    -0.134160090310E+03   -0.35133E-04   -0.20739E-04  3819   0.322E-02    0.263E-02
RMM:   3    -0.134160069754E+03    0.20556E-04   -0.18977E-05  2361   0.184E-02    0.133E-02
RMM:   4    -0.134160067936E+03    0.18187E-05   -0.61509E-06  2190   0.124E-02
 136 F= -.13416007E+03 E0= -.13415851E+03  d E =0.967525E-05
quench:  g(F)=  0.000E+00 g(S)=  0.000E+00 dE (1.order)= 0.000E+00
 bond charge predicted
       N       E                     dE             d eps       ncg     rms          rms(c)
DAV:   1    -0.134160040760E+03    0.28995E-04   -0.41223E-03  4185   0.119E-01    0.155E-02
RMM:   2    -0.134160061076E+03   -0.20316E-04   -0.19849E-04  3986   0.289E-02    0.121E-02
RMM:   3    -0.134160058439E+03    0.26372E-05   -0.11979E-05  2261   0.148E-02
 137 F= -.13416006E+03 E0= -.13415849E+03  d E =0.949682E-05
quench:  g(F)=  0.000E+00 g(S)=  0.000E+00 dE (1.order)= 0.000E+00
 bond charge predicted
       N       E                     dE             d eps       ncg     rms          rms(c)
DAV:   1    -0.134160008366E+03    0.52710E-04   -0.50871E-03  4545   0.152E-01    0.194E-02
RMM:   2    -0.134160043354E+03   -0.34988E-04   -0.31248E-04  4268   0.364E-02    0.206E-02
RMM:   3    -0.134160034028E+03    0.93261E-05   -0.17600E-05  2337   0.174E-02
 138 F= -.13416003E+03 E0= -.13415848E+03  d E =0.244106E-04
quench:  g(F)=  0.000E+00 g(S)=  0.000E+00 dE (1.order)= 0.000E+00
 bond charge predicted
       N       E                     dE             d eps       ncg     rms          rms(c)
DAV:   1    -0.134159978946E+03    0.64408E-04   -0.51289E-03  4590   0.157E-01    0.190E-02
RMM:   2    -0.134160011789E+03   -0.32843E-04   -0.32881E-04  4409   0.352E-02    0.151E-02
RMM:   3    -0.134160005983E+03    0.58062E-05   -0.17010E-05  2348   0.133E-02
 139 F= -.13416001E+03 E0= -.13415844E+03  d E =0.280451E-04
quench:  g(F)=  0.000E+00 g(S)=  0.000E+00 dE (1.order)= 0.000E+00
 bond charge predicted
       N       E                     dE             d eps       ncg     rms          rms(c)
DAV:   1    -0.134159978499E+03    0.33290E-04   -0.30938E-03  5085   0.142E-01    0.171E-02
RMM:   2    -0.134160008340E+03   -0.29840E-04   -0.19919E-04  3721   0.311E-02    0.237E-02
RMM:   3    -0.134159993699E+03    0.14640E-04   -0.18035E-05  2365   0.181E-02    0.140E-02
RMM:   4    -0.134159991309E+03    0.23902E-05   -0.54941E-06  2183   0.120E-02
 140 F= -.13415999E+03 E0= -.13415843E+03  d E =0.146741E-04
quench:  g(F)=  0.000E+00 g(S)=  0.000E+00 dE (1.order)= 0.000E+00
 bond charge predicted
       N       E                     dE             d eps       ncg     rms          rms(c)
DAV:   1    -0.134159958190E+03    0.35509E-04   -0.40590E-03  4149   0.114E-01    0.148E-02
RMM:   2    -0.134159975066E+03   -0.16876E-04   -0.17486E-04  3756   0.270E-02    0.925E-03
RMM:   3    -0.134159973788E+03    0.12783E-05   -0.12346E-05  2240   0.143E-02
 141 F= -.13415997E+03 E0= -.13415841E+03  d E =0.175215E-04
quench:  g(F)=  0.000E+00 g(S)=  0.000E+00 dE (1.order)= 0.000E+00
 bond charge predicted
       N       E                     dE             d eps       ncg     rms          rms(c)
DAV:   1    -0.134159915245E+03    0.59821E-04   -0.55497E-03  4464   0.154E-01    0.194E-02
RMM:   2    -0.134159950893E+03   -0.35648E-04   -0.31688E-04  4432   0.347E-02    0.182E-02
RMM:   3    -0.134159943161E+03    0.77321E-05   -0.15354E-05  2346   0.155E-02
 142 F= -.13415994E+03 E0= -.13415839E+03  d E =0.306264E-04
quench:  g(F)=  0.000E+00 g(S)=  0.000E+00 dE (1.order)= 0.000E+00
 bond charge predicted
       N       E                     dE             d eps       ncg     rms          rms(c)
DAV:   1    -0.134159876104E+03    0.74789E-04   -0.55487E-03  4626   0.165E-01    0.196E-02
RMM:   2    -0.134159910063E+03   -0.33959E-04   -0.35073E-04  4530   0.361E-02    0.142E-02
RMM:   3    -0.134159903736E+03    0.63274E-05   -0.17922E-05  2360   0.125E-02
 143 F= -.13415990E+03 E0= -.13415834E+03  d E =0.394257E-04
quench:  g(F)=  0.000E+00 g(S)=  0.000E+00 dE (1.order)= 0.000E+00
 bond charge predicted
       N       E                     dE             d eps       ncg     rms          rms(c)
DAV:   1    -0.134159876057E+03    0.34006E-04   -0.28468E-03  5085   0.136E-01    0.175E-02
RMM:   2    -0.134159921526E+03   -0.45469E-04   -0.18943E-04  3784   0.335E-02    0.341E-02
RMM:   3    -0.134159887017E+03    0.34510E-04   -0.23392E-05  2387   0.208E-02    0.121E-02
RMM:   4    -0.134159885916E+03    0.11002E-05   -0.62891E-06  2198   0.123E-02
 144 F= -.13415989E+03 E0= -.13415833E+03  d E =0.178192E-04
quench:  g(F)=  0.000E+00 g(S)=  0.000E+00 dE (1.order)= 0.000E+00
 bond charge predicted
       N       E                     dE             d eps       ncg     rms          rms(c)
DAV:   1    -0.134159846890E+03    0.40127E-04   -0.36020E-03  4167   0.113E-01    0.150E-02
RMM:   2    -0.134159864446E+03   -0.17556E-04   -0.16976E-04  3859   0.280E-02    0.117E-02
RMM:   3    -0.134159862255E+03    0.21907E-05   -0.11930E-05  2247   0.152E-02
 145 F= -.13415986E+03 E0= -.13415830E+03  d E =0.236612E-04
quench:  g(F)=  0.000E+00 g(S)=  0.000E+00 dE (1.order)= 0.000E+00
 bond charge predicted
       N       E                     dE             d eps       ncg     rms          rms(c)
DAV:   1    -0.134159791217E+03    0.73229E-04   -0.55000E-03  4455   0.155E-01    0.205E-02
RMM:   2    -0.134159826894E+03   -0.35677E-04   -0.32603E-04  4377   0.376E-02    0.208E-02
RMM:   3    -0.134159817773E+03    0.91214E-05   -0.18249E-05  2343   0.177E-02
 146 F= -.13415982E+03 E0= -.13415826E+03  d E =0.444822E-04
quench:  g(F)=  0.000E+00 g(S)=  0.000E+00 dE (1.order)= 0.000E+00
 bond charge predicted
       N       E                     dE             d eps       ncg     rms          rms(c)
DAV:   1    -0.134159738073E+03    0.88821E-04   -0.58607E-03  4599   0.167E-01    0.205E-02
RMM:   2    -0.134159775312E+03   -0.37239E-04   -0.36841E-04  4591   0.374E-02    0.165E-02
RMM:   3    -0.134159769264E+03    0.60483E-05   -0.19760E-05  2392   0.138E-02
 147 F= -.13415977E+03 E0= -.13415820E+03  d E =0.485088E-04
quench:  g(F)=  0.000E+00 g(S)=  0.000E+00 dE (1.order)= 0.000E+00
 bond charge predicted
       N       E                     dE             d eps       ncg     rms          rms(c)
DAV:   1    -0.134159736111E+03    0.39202E-04   -0.25471E-03  5202   0.142E-01    0.166E-02
RMM:   2    -0.134159762131E+03   -0.26020E-04   -0.17091E-04  3593   0.302E-02    0.230E-02
RMM:   3    -0.134159749404E+03    0.12727E-04   -0.17454E-05  2349   0.181E-02    0.133E-02
RMM:   4    -0.134159747184E+03    0.22200E-05   -0.50649E-06  2178   0.115E-02
 148 F= -.13415975E+03 E0= -.13415819E+03  d E =0.220803E-04
quench:  g(F)=  0.000E+00 g(S)=  0.000E+00 dE (1.order)= 0.000E+00
 bond charge predicted
       N       E                     dE             d eps       ncg     rms          rms(c)
DAV:   1    -0.134159704873E+03    0.44531E-04   -0.31818E-03  4149   0.103E-01    0.135E-02
RMM:   2    -0.134159717618E+03   -0.12745E-04   -0.13296E-04  3471   0.247E-02    0.774E-03
RMM:   3    -0.134159716415E+03    0.12034E-05   -0.10703E-05  2172   0.132E-02
 149 F= -.13415972E+03 E0= -.13415816E+03  d E =0.307691E-04
quench:  g(F)=  0.000E+00 g(S)=  0.000E+00 dE (1.order)= 0.000E+00
 bond charge predicted
       N       E                     dE             d eps       ncg     rms          rms(c)
DAV:   1    -0.134159643071E+03    0.74547E-04   -0.54537E-03  4149   0.135E-01    0.191E-02
RMM:   2    -0.134159669333E+03   -0.26262E-04   -0.27811E-04  4324   0.335E-02    0.150E-02
RMM:   3    -0.134159663165E+03    0.61686E-05   -0.10779E-05  2197   0.117E-02
[...]
DAV:   1    -0.134152352786E+03    0.18384E-03   -0.88025E-03  4176   0.172E-01    0.239E-02
RMM:   2    -0.134152393533E+03   -0.40747E-04   -0.42672E-04  5032   0.412E-02    0.155E-02
RMM:   3    -0.134152387252E+03    0.62807E-05   -0.19350E-05  2364   0.134E-02
 235 F= -.13415239E+03 E0= -.13415087E+03  d E =0.141435E-03
quench:  g(F)=  0.000E+00 g(S)=  0.000E+00 dE (1.order)= 0.000E+00
 bond charge predicted
       N       E                     dE             d eps       ncg     rms          rms(c)
DAV:   1    -0.134152214992E+03    0.17854E-03   -0.73330E-03  4392   0.165E-01    0.255E-02
RMM:   2    -0.134152263443E+03   -0.48451E-04   -0.44384E-04  4623   0.434E-02    0.277E-02
RMM:   3    -0.134152249817E+03    0.13626E-04   -0.29813E-05  2513   0.222E-02    0.201E-02
RMM:   4    -0.134152243375E+03    0.64419E-05   -0.98184E-06  2256   0.161E-02
 236 F= -.13415224E+03 E0= -.13415073E+03  d E =0.143877E-03
quench:  g(F)=  0.000E+00 g(S)=  0.000E+00 dE (1.order)= 0.000E+00
 bond charge predicted
       N       E                     dE             d eps       ncg     rms          rms(c)
DAV:   1    -0.134152061668E+03    0.18815E-03   -0.91061E-03  4095   0.180E-01    0.241E-02
RMM:   2    -0.134152107582E+03   -0.45914E-04   -0.44560E-04  5167   0.434E-02    0.155E-02
RMM:   3    -0.134152105087E+03    0.24953E-05   -0.20826E-05  2462   0.130E-02
 237 F= -.13415211E+03 E0= -.13415059E+03  d E =0.138288E-03
quench:  g(F)=  0.000E+00 g(S)=  0.000E+00 dE (1.order)= 0.000E+00
 bond charge predicted
       N       E                     dE             d eps       ncg     rms          rms(c)
DAV:   1    -0.134151908244E+03    0.19934E-03   -0.83243E-03  4842   0.201E-01    0.264E-02
RMM:   2    -0.134151961879E+03   -0.53635E-04   -0.54912E-04  4733   0.452E-02    0.229E-02
RMM:   3    -0.134151950711E+03    0.11168E-04   -0.25614E-05  2459   0.171E-02    0.213E-02
RMM:   4    -0.134151944580E+03    0.61310E-05   -0.10441E-05  2199   0.167E-02
 238 F= -.13415194E+03 E0= -.13415043E+03  d E =0.160507E-03
quench:  g(F)=  0.000E+00 g(S)=  0.000E+00 dE (1.order)= 0.000E+00
 bond charge predicted
       N       E                     dE             d eps       ncg     rms          rms(c)
DAV:   1    -0.134151775324E+03    0.17539E-03   -0.88230E-03  4176   0.172E-01    0.237E-02
RMM:   2    -0.134151816938E+03   -0.41614E-04   -0.43786E-04  4986   0.425E-02    0.151E-02
RMM:   3    -0.134151810531E+03    0.64075E-05   -0.23774E-05  2415   0.129E-02
 239 F= -.13415181E+03 E0= -.13415029E+03  d E =0.134050E-03
quench:  g(F)=  0.000E+00 g(S)=  0.000E+00 dE (1.order)= 0.000E+00
 bond charge predicted
       N       E                     dE             d eps       ncg     rms          rms(c)
DAV:   1    -0.134151639861E+03    0.17708E-03   -0.73481E-03  4689   0.181E-01    0.257E-02
RMM:   2    -0.134151709009E+03   -0.69148E-04   -0.47019E-04  4701   0.456E-02    0.354E-02
RMM:   3    -0.134151673018E+03    0.35991E-04   -0.35342E-05  2574   0.234E-02    0.213E-02
RMM:   4    -0.134151666879E+03    0.61389E-05   -0.11495E-05  2217   0.172E-02
 240 F= -.13415167E+03 E0= -.13415016E+03  d E =0.143651E-03
quench:  g(F)=  0.000E+00 g(S)=  0.000E+00 dE (1.order)= 0.000E+00
 bond charge predicted
       N       E                     dE             d eps       ncg     rms          rms(c)
DAV:   1    -0.134151470244E+03    0.20277E-03   -0.94449E-03  4149   0.180E-01    0.248E-02
RMM:   2    -0.134151512897E+03   -0.42653E-04   -0.43458E-04  5209   0.426E-02    0.167E-02
RMM:   3    -0.134151511653E+03    0.12440E-05   -0.24040E-05  2442   0.195E-02
 241 F= -.13415151E+03 E0= -.13414999E+03  d E =0.155226E-03
quench:  g(F)=  0.000E+00 g(S)=  0.000E+00 dE (1.order)= 0.000E+00
 bond charge predicted
       N       E                     dE             d eps       ncg     rms          rms(c)
DAV:   1    -0.134151279051E+03    0.23385E-03   -0.93790E-03  4635   0.216E-01    0.288E-02
RMM:   2    -0.134151349742E+03   -0.70691E-04   -0.61415E-04  4815   0.518E-02    0.323E-02
RMM:   3    -0.134151326689E+03    0.23053E-04   -0.38323E-05  2685   0.231E-02    0.248E-02
RMM:   4    -0.134151317745E+03    0.89440E-05   -0.12666E-05  2226   0.187E-02
 242 F= -.13415132E+03 E0= -.13414981E+03  d E =0.193908E-03
quench:  g(F)=  0.000E+00 g(S)=  0.000E+00 dE (1.order)= 0.000E+00
 bond charge predicted
       N       E                     dE             d eps       ncg     rms          rms(c)
DAV:   1    -0.134151116418E+03    0.21027E-03   -0.10250E-02  4122   0.187E-01    0.258E-02
RMM:   2    -0.134151166446E+03   -0.50027E-04   -0.50076E-04  5233   0.456E-02    0.160E-02
RMM:   3    -0.134151160113E+03    0.63322E-05   -0.26663E-05  2471   0.135E-02
 243 F= -.13415116E+03 E0= -.13414965E+03  d E =0.157631E-03
quench:  g(F)=  0.000E+00 g(S)=  0.000E+00 dE (1.order)= 0.000E+00
 bond charge predicted
       N       E                     dE             d eps       ncg     rms          rms(c)
DAV:   1    -0.134150981680E+03    0.18477E-03   -0.75724E-03  4806   0.190E-01    0.268E-02
RMM:   2    -0.134151054352E+03   -0.72672E-04   -0.50543E-04  4695   0.465E-02    0.372E-02
RMM:   3    -0.134151017728E+03    0.36624E-04   -0.37468E-05  2630   0.223E-02    0.219E-02
RMM:   4    -0.134151011544E+03    0.61833E-05   -0.12154E-05  2199   0.177E-02
 244 F= -.13415101E+03 E0= -.13414950E+03  d E =0.148569E-03
quench:  g(F)=  0.000E+00 g(S)=  0.000E+00 dE (1.order)= 0.000E+00
 bond charge predicted
       N       E                     dE             d eps       ncg     rms          rms(c)
DAV:   1    -0.134150828380E+03    0.18935E-03   -0.90681E-03  4176   0.176E-01    0.242E-02
RMM:   2    -0.134150868555E+03   -0.40175E-04   -0.41796E-04  5097   0.412E-02    0.155E-02
RMM:   3    -0.134150863684E+03    0.48707E-05   -0.21297E-05  2357   0.145E-02
 245 F= -.13415086E+03 E0= -.13414935E+03  d E =0.147860E-03
quench:  g(F)=  0.000E+00 g(S)=  0.000E+00 dE (1.order)= 0.000E+00
 bond charge predicted
       N       E                     dE             d eps       ncg     rms          rms(c)
DAV:   1    -0.134150645903E+03    0.22265E-03   -0.95760E-03  4338   0.186E-01    0.281E-02
RMM:   2    -0.134150703310E+03   -0.57407E-04   -0.56355E-04  4953   0.463E-02    0.254E-02
RMM:   3    -0.134150690082E+03    0.13228E-04   -0.28320E-05  2464   0.197E-02    0.207E-02
RMM:   4    -0.134150684121E+03    0.59610E-05   -0.12211E-05  2259   0.182E-02
 246 F= -.13415068E+03 E0= -.13414918E+03  d E =0.179563E-03
quench:  g(F)=  0.000E+00 g(S)=  0.000E+00 dE (1.order)= 0.000E+00
 bond charge predicted
       N       E                     dE             d eps       ncg     rms          rms(c)
DAV:   1    -0.134150468730E+03    0.22135E-03   -0.11393E-02  4095   0.198E-01    0.273E-02
RMM:   2    -0.134150526221E+03   -0.57490E-04   -0.57594E-04  5313   0.492E-02    0.184E-02
RMM:   3    -0.134150517199E+03    0.90217E-05   -0.28009E-05  2559   0.158E-02
 247 F= -.13415052E+03 E0= -.13414901E+03  d E =0.166922E-03
quench:  g(F)=  0.000E+00 g(S)=  0.000E+00 dE (1.order)= 0.000E+00
 bond charge predicted
       N       E                     dE             d eps       ncg     rms          rms(c)
DAV:   1    -0.134150326568E+03    0.19965E-03   -0.79224E-03  4608   0.175E-01    0.272E-02
RMM:   2    -0.134150388425E+03   -0.61857E-04   -0.53040E-04  4669   0.473E-02    0.317E-02
RMM:   3    -0.134150367132E+03    0.21293E-04   -0.33321E-05  2551   0.205E-02    0.230E-02
RMM:   4    -0.134150359361E+03    0.77709E-05   -0.12239E-05  2208   0.178E-02
 248 F= -.13415036E+03 E0= -.13414885E+03  d E =0.157838E-03
quench:  g(F)=  0.000E+00 g(S)=  0.000E+00 dE (1.order)= 0.000E+00
 bond charge predicted
       N       E                     dE             d eps       ncg     rms          rms(c)
DAV:   1    -0.134150172768E+03    0.19436E-03   -0.83563E-03  4176   0.169E-01    0.236E-02
RMM:   2    -0.134150210615E+03   -0.37847E-04   -0.39505E-04  5049   0.406E-02    0.153E-02
RMM:   3    -0.134150205880E+03    0.47350E-05   -0.19213E-05  2370   0.143E-02
 249 F= -.13415021E+03 E0= -.13414870E+03  d E =0.153481E-03
quench:  g(F)=  0.000E+00 g(S)=  0.000E+00 dE (1.order)= 0.000E+00
 bond charge predicted
       N       E                     dE             d eps       ncg     rms          rms(c)
DAV:   1    -0.134149980271E+03    0.23034E-03   -0.90024E-03  4347   0.181E-01    0.273E-02
RMM:   2    -0.134150034652E+03   -0.54380E-04   -0.52967E-04  4923   0.453E-02    0.246E-02
RMM:   3    -0.134150022521E+03    0.12131E-04   -0.27126E-05  2452   0.195E-02    0.205E-02
RMM:   4    -0.134150016306E+03    0.62148E-05   -0.11628E-05  2258   0.179E-02
 250 F= -.13415002E+03 E0= -.13414851E+03  d E =0.189574E-03
quench:  g(F)=  0.000E+00 g(S)=  0.000E+00 dE (1.order)= 0.000E+00
 bond charge predicted
       N       E                     dE             d eps       ncg     rms          rms(c)
DAV:   1    -0.134149775272E+03    0.24725E-03   -0.12444E-02  4086   0.206E-01    0.283E-02
RMM:   2    -0.134149834793E+03   -0.59521E-04   -0.59958E-04  5407   0.507E-02    0.183E-02
RMM:   3    -0.134149825518E+03    0.92749E-05   -0.28265E-05  2532   0.168E-02
 251 F= -.13414983E+03 E0= -.13414832E+03  d E =0.190788E-03
quench:  g(F)=  0.000E+00 g(S)=  0.000E+00 dE (1.order)= 0.000E+00
 bond charge predicted
       N       E                     dE             d eps       ncg     rms          rms(c)
DAV:   1    -0.134149611577E+03    0.22322E-03   -0.92426E-03  4338   0.175E-01    0.294E-02
RMM:   2    -0.134149673357E+03   -0.61780E-04   -0.61081E-04  4787   0.485E-02    0.296E-02
RMM:   3    -0.134149656476E+03    0.16880E-04   -0.31934E-05  2558   0.178E-02    0.225E-02
RMM:   4    -0.134149649503E+03    0.69727E-05   -0.12229E-05  2219   0.176E-02
 252 F= -.13414965E+03 E0= -.13414815E+03  d E =0.176014E-03
quench:  g(F)=  0.000E+00 g(S)=  0.000E+00 dE (1.order)= 0.000E+00
 bond charge predicted
       N       E                     dE             d eps       ncg     rms          rms(c)
DAV:   1    -0.134149465637E+03    0.19084E-03   -0.86737E-03  4221   0.178E-01    0.244E-02
RMM:   2    -0.134149508101E+03   -0.42463E-04   -0.43951E-04  5133   0.430E-02    0.168E-02
RMM:   3    -0.134149505799E+03    0.23018E-05   -0.25769E-05  2516   0.167E-02
 253 F= -.13414951E+03 E0= -.13414800E+03  d E =0.143704E-03
quench:  g(F)=  0.000E+00 g(S)=  0.000E+00 dE (1.order)= 0.000E+00
 bond charge predicted
       N       E                     dE             d eps       ncg     rms          rms(c)
DAV:   1    -0.134149275584E+03    0.23252E-03   -0.85520E-03  4590   0.203E-01    0.269E-02
RMM:   2    -0.134149341345E+03   -0.65761E-04   -0.52943E-04  4814   0.465E-02    0.300E-02
RMM:   3    -0.134149318002E+03    0.23343E-04   -0.33109E-05  2542   0.214E-02    0.236E-02
RMM:   4    -0.134149309563E+03    0.84395E-05   -0.12713E-05  2216   0.188E-02
 254 F= -.13414931E+03 E0= -.13414781E+03  d E =0.196236E-03
quench:  g(F)=  0.000E+00 g(S)=  0.000E+00 dE (1.order)= 0.000E+00
 bond charge predicted
       N       E                     dE             d eps       ncg     rms          rms(c)
DAV:   1    -0.134149065935E+03    0.25207E-03   -0.12626E-02  4149   0.204E-01    0.283E-02
RMM:   2    -0.134149119800E+03   -0.53865E-04   -0.54816E-04  5476   0.471E-02    0.185E-02
RMM:   3    -0.134149122482E+03   -0.26820E-05   -0.29873E-05  2540   0.178E-02
 255 F= -.13414912E+03 E0= -.13414761E+03  d E =0.187081E-03
quench:  g(F)=  0.000E+00 g(S)=  0.000E+00 dE (1.order)= 0.000E+00
 bond charge predicted
       N       E                     dE             d eps       ncg     rms          rms(c)
DAV:   1    -0.134148889936E+03    0.22986E-03   -0.10430E-02  4977   0.241E-01    0.310E-02
RMM:   2    -0.134148966164E+03   -0.76228E-04   -0.71325E-04  4974   0.509E-02    0.313E-02
RMM:   3    -0.134148943728E+03    0.22436E-04   -0.38635E-05  2686   0.217E-02    0.264E-02
RMM:   4    -0.134148932357E+03    0.11371E-04   -0.14894E-05  2289   0.199E-02    0.129E-02
RMM:   5    -0.134148931951E+03    0.40667E-06   -0.58506E-06  2248   0.772E-03
 256 F= -.13414893E+03 E0= -.13414743E+03  d E =0.190532E-03
quench:  g(F)=  0.000E+00 g(S)=  0.000E+00 dE (1.order)= 0.000E+00
 bond charge predicted
       N       E                     dE             d eps       ncg     rms          rms(c)
DAV:   1    -0.134148765083E+03    0.16727E-03   -0.95369E-03  4149   0.176E-01    0.251E-02
RMM:   2    -0.134148811030E+03   -0.45947E-04   -0.47719E-04  5095   0.437E-02    0.176E-02
RMM:   3    -0.134148806282E+03    0.47481E-05   -0.24641E-05  2523   0.146E-02
 257 F= -.13414881E+03 E0= -.13414730E+03  d E =0.125669E-03
quench:  g(F)=  0.000E+00 g(S)=  0.000E+00 dE (1.order)= 0.000E+00
 bond charge predicted
       N       E                     dE             d eps       ncg     rms          rms(c)
DAV:   1    -0.134148607338E+03    0.20369E-03   -0.75458E-03  4608   0.188E-01    0.250E-02
RMM:   2    -0.134148679390E+03   -0.72052E-04   -0.50064E-04  4677   0.478E-02    0.350E-02
RMM:   3    -0.134148644071E+03    0.35319E-04   -0.38681E-05  2584   0.229E-02    0.208E-02
RMM:   4    -0.134148638407E+03    0.56641E-05   -0.10885E-05  2214   0.168E-02
 258 F= -.13414864E+03 E0= -.13414714E+03  d E =0.167875E-03
quench:  g(F)=  0.000E+00 g(S)=  0.000E+00 dE (1.order)= 0.000E+00
 bond charge predicted
       N       E                     dE             d eps       ncg     rms          rms(c)
DAV:   1    -0.134148417278E+03    0.22679E-03   -0.10507E-02  4176   0.186E-01    0.256E-02
RMM:   2    -0.134148461470E+03   -0.44192E-04   -0.45399E-04  5244   0.431E-02    0.163E-02
RMM:   3    -0.134148464205E+03   -0.27347E-05   -0.27155E-05  2470   0.174E-02
 259 F= -.13414846E+03 E0= -.13414695E+03  d E =0.174203E-03
quench:  g(F)=  0.000E+00 g(S)=  0.000E+00 dE (1.order)= 0.000E+00
 bond charge predicted
       N       E                     dE             d eps       ncg     rms          rms(c)
DAV:   1    -0.134148235902E+03    0.22557E-03   -0.10012E-02  4923   0.229E-01    0.293E-02
RMM:   2    -0.134148303995E+03   -0.68093E-04   -0.64485E-04  4963   0.483E-02    0.276E-02
RMM:   3    -0.134148286255E+03    0.17741E-04   -0.31608E-05  2561   0.200E-02    0.253E-02
RMM:   4    -0.134148275315E+03    0.10939E-04   -0.14322E-05  2282   0.200E-02    0.121E-02
RMM:   5    -0.134148274844E+03    0.47148E-06   -0.49156E-06  2230   0.763E-03
 260 F= -.13414827E+03 E0= -.13414678E+03  d E =0.189361E-03
quench:  g(F)=  0.000E+00 g(S)=  0.000E+00 dE (1.order)= 0.000E+00
 bond charge predicted
       N       E                     dE             d eps       ncg     rms          rms(c)
DAV:   1    -0.134148089318E+03    0.18600E-03   -0.10780E-02  4158   0.189E-01    0.258E-02
RMM:   2    -0.134148140067E+03   -0.50749E-04   -0.53393E-04  5253   0.470E-02    0.172E-02
RMM:   3    -0.134148131916E+03    0.81509E-05   -0.29025E-05  2428   0.158E-02
 261 F= -.13414813E+03 E0= -.13414663E+03  d E =0.142928E-03
quench:  g(F)=  0.000E+00 g(S)=  0.000E+00 dE (1.order)= 0.000E+00
 bond charge predicted
       N       E                     dE             d eps       ncg     rms          rms(c)
DAV:   1    -0.134147942093E+03    0.19797E-03   -0.83644E-03  4266   0.170E-01    0.258E-02
RMM:   2    -0.134147990474E+03   -0.48381E-04   -0.49948E-04  4789   0.433E-02    0.208E-02
RMM:   3    -0.134147977531E+03    0.12943E-04   -0.21263E-05  2389   0.157E-02    0.130E-02
RMM:   4    -0.134147976363E+03    0.11684E-05   -0.11206E-05  2254   0.170E-02
 262 F= -.13414798E+03 E0= -.13414648E+03  d E =0.155553E-03
quench:  g(F)=  0.000E+00 g(S)=  0.000E+00 dE (1.order)= 0.000E+00
 bond charge predicted
       N       E                     dE             d eps       ncg     rms          rms(c)
DAV:   1    -0.134147773826E+03    0.20370E-03   -0.10272E-02  4140   0.193E-01    0.255E-02
RMM:   2    -0.134147827126E+03   -0.53300E-04   -0.52591E-04  5127   0.486E-02    0.180E-02
RMM:   3    -0.134147821843E+03    0.52830E-05   -0.32065E-05  2527   0.212E-02
 263 F= -.13414782E+03 E0= -.13414632E+03  d E =0.154520E-03
quench:  g(F)=  0.000E+00 g(S)=  0.000E+00 dE (1.order)= 0.000E+00
 bond charge predicted
       N       E                     dE             d eps       ncg     rms          rms(c)
DAV:   1    -0.134147589797E+03    0.23733E-03   -0.96958E-03  4788   0.212E-01    0.284E-02
RMM:   2    -0.134147654273E+03   -0.64476E-04   -0.65420E-04  4816   0.499E-02    0.255E-02
RMM:   3    -0.134147639809E+03    0.14464E-04   -0.28456E-05  2519   0.164E-02    0.204E-02
RMM:   4    -0.134147633934E+03    0.58751E-05   -0.11110E-05  2250   0.173E-02
 264 F= -.13414763E+03 E0= -.13414614E+03  d E =0.187909E-03
quench:  g(F)=  0.000E+00 g(S)=  0.000E+00 dE (1.order)= 0.000E+00
 bond charge predicted
       N       E                     dE             d eps       ncg     rms          rms(c)
DAV:   1    -0.134147446743E+03    0.19307E-03   -0.10596E-02  4185   0.198E-01    0.264E-02
RMM:   2    -0.134147500469E+03   -0.53726E-04   -0.54581E-04  5335   0.475E-02    0.197E-02
RMM:   3    -0.134147498632E+03    0.18373E-05   -0.29817E-05  2546   0.187E-02
 265 F= -.13414750E+03 E0= -.13414599E+03  d E =0.135302E-03
quench:  g(F)=  0.000E+00 g(S)=  0.000E+00 dE (1.order)= 0.000E+00
 bond charge predicted
       N       E                     dE             d eps       ncg     rms          rms(c)
DAV:   1    -0.134147303016E+03    0.19745E-03   -0.80755E-03  5040   0.214E-01    0.263E-02
RMM:   2    -0.134147362638E+03   -0.59621E-04   -0.52299E-04  4731   0.446E-02    0.263E-02
RMM:   3    -0.134147344791E+03    0.17847E-04   -0.28174E-05  2487   0.186E-02    0.235E-02
RMM:   4    -0.134147334744E+03    0.10047E-04   -0.12885E-05  2265   0.191E-02    0.109E-02
RMM:   5    -0.134147335008E+03   -0.26492E-06   -0.58767E-06  2210   0.996E-03
 266 F= -.13414734E+03 E0= -.13414584E+03  d E =0.163623E-03
quench:  g(F)=  0.000E+00 g(S)=  0.000E+00 dE (1.order)= 0.000E+00
 bond charge predicted
       N       E                     dE             d eps       ncg     rms          rms(c)
DAV:   1    -0.134147128300E+03    0.20644E-03   -0.11141E-02  4140   0.201E-01    0.260E-02
RMM:   2    -0.134147182416E+03   -0.54116E-04   -0.54787E-04  5340   0.487E-02    0.153E-02
RMM:   3    -0.134147175568E+03    0.68475E-05   -0.26628E-05  2457   0.151E-02
 267 F= -.13414718E+03 E0= -.13414568E+03  d E =0.159440E-03
quench:  g(F)=  0.000E+00 g(S)=  0.000E+00 dE (1.order)= 0.000E+00
 bond charge predicted
       N       E                     dE             d eps       ncg     rms          rms(c)
DAV:   1    -0.134146909774E+03    0.27264E-03   -0.11576E-02  4653   0.220E-01    0.312E-02
RMM:   2    -0.134146993462E+03   -0.83688E-04   -0.72936E-04  5017   0.525E-02    0.339E-02
RMM:   3    -0.134146970175E+03    0.23287E-04   -0.48542E-05  2736   0.223E-02    0.271E-02
RMM:   4    -0.134146959478E+03    0.10697E-04   -0.14873E-05  2301   0.198E-02    0.126E-02
RMM:   5    -0.134146958446E+03    0.10322E-05   -0.70140E-06  2291   0.106E-02
 268 F= -.13414696E+03 E0= -.13414547E+03  d E =0.217122E-03
quench:  g(F)=  0.000E+00 g(S)=  0.000E+00 dE (1.order)= 0.000E+00
 bond charge predicted
       N       E                     dE             d eps       ncg     rms          rms(c)
DAV:   1    -0.134146714703E+03    0.24478E-03   -0.14289E-02  4068   0.219E-01    0.299E-02
RMM:   2    -0.134146782769E+03   -0.68067E-04   -0.69445E-04  5563   0.533E-02    0.212E-02
RMM:   3    -0.134146781227E+03    0.15419E-05   -0.37161E-05  2633   0.186E-02
 269 F= -.13414678E+03 E0= -.13414527E+03  d E =0.177219E-03
quench:  g(F)=  0.000E+00 g(S)=  0.000E+00 dE (1.order)= 0.000E+00
 bond charge predicted
       N       E                     dE             d eps       ncg     rms          rms(c)
DAV:   1    -0.134146542843E+03    0.23993E-03   -0.98964E-03  5094   0.246E-01    0.292E-02
RMM:   2    -0.134146621185E+03   -0.78342E-04   -0.67157E-04  4934   0.501E-02    0.331E-02
