 vasp.5.4.4.18Apr17-6-g9f103f2a35 (build Feb 06 2024 13:54:16) complex          
  
 POSCAR found type information on POSCAR  Pd N  O 
 04/POSCAR found :  3 types and      40 ions
 scaLAPACK will be used

 ----------------------------------------------------------------------------- 
|                                                                             |
|  ADVICE TO THIS USER RUNNING 'VASP/VAMP'   (HEAR YOUR MASTER'S VOICE ...):  |
|                                                                             |
|      You enforced a specific xc-type in the INCAR file,                     |
|      a different type was found on the POTCAR file                          |
|          I HOPE YOU KNOW, WHAT YOU ARE  DOING                               |
|                                                                             |
 ----------------------------------------------------------------------------- 

 LDA part: xc-table for Pade appr. of Perdew
 POSCAR found type information on POSCAR  Pd N  O 
 00/POSCAR found :  3 types and      40 ions
 POSCAR found type information on POSCAR  Pd N  O 
 06/POSCAR found :  3 types and      40 ions
 Jacobian:    21.7506536142030     
 POSCAR, INCAR and KPOINTS ok, starting setup
 FFT: planning ...
 WAVECAR not read
 entering main loop
       N       E                     dE             d eps       ncg     rms          rms(c)
  Solvation turned off during non-self-consistent phase (first NELMDL steps)
DAV:   1     0.264406557584E+04    0.26441E+04   -0.17599E+05  3696   0.147E+03
DAV:   2     0.459952866849E+01   -0.26395E+04   -0.24671E+04  4086   0.314E+02
DAV:   3    -0.179965862456E+03   -0.18457E+03   -0.16550E+03  4485   0.730E+01
DAV:   4    -0.188835624101E+03   -0.88698E+01   -0.83512E+01  4413   0.151E+01
DAV:   5    -0.189049900854E+03   -0.21428E+00   -0.20989E+00  4554   0.251E+00    0.371E+01
 Begin Solvation calculations
  rms_SCF =    2.48676243740207      tol =   0.248676243740207     
 Begin minimization
 Creating dielectric and ionic cavities
  area:      196.768787142681     
  volume:    849.798212678293     
  Acav:     0.103303613249908     
  Solving linear dielectric/ionic screening model
        iter                  A_solv                     rms
   LPB:       -0.586585833702068E+03   0.287849661392236E+03
   LPB:    0  -0.347861727753546E+01   0.165980862226644E+02  -0.565746E+01   0.000000E+00   0.364364E+02  -0.206137E+03
   LPB:    1  -0.998108954668737E+00   0.570186617722169E+01   0.128394E-01   0.000000E+00   0.921693E+02  -0.547315E-14
   LPB:    2  -0.534489683922288E+00   0.136935951925250E+01   0.146360E-01   0.163962E+00   0.154310E+03  -0.287732E-13
   LPB:    3  -0.338734340632527E+00   0.799051276973961E+00   0.260142E-01   0.237555E+00   0.267313E+03  -0.299114E-13
   LPB:    4  -0.265869670985580E+00   0.685258001039737E+00   0.299841E-01   0.322940E+00   0.852077E+02  -0.315339E-13
   LPB:    5  -0.231493121112521E+00   0.733919401029754E+00   0.254060E-01   0.556802E+00   0.438897E+03  -0.255420E-13
   LPB:    6  -0.209894420214141E+00   0.280046870194160E+00   0.269662E-01   0.591945E+00   0.652932E+02  -0.227546E-13
   LPB:    7  -0.196472393341992E+00   0.160115499283654E+00   0.322700E-01   0.519293E+00   0.210770E+03  -0.315137E-13
  Finished solving LPB equations
  A_corr:   -9.316878009208419E-002
 End minimization
 Ecorr=   2004.13984508200     
 A_corr= -9.316878009208419E-002
 Ecorr_band=  -2004.23301386209     
 End Solvation calculations
RMM:   6    -0.184605272671E+03    0.44446E+01   -0.38771E+01  3700   0.130E+01    0.277E+01
 Begin Solvation calculations
  rms_SCF =    2.48676243740207      tol =   0.248676243740207     
 Begin minimization
 Creating dielectric and ionic cavities
  area:      193.354761094761     
  volume:    869.168218357369     
  Acav:     0.101511249574749     
  Solving linear dielectric/ionic screening model
        iter                  A_solv                     rms
   LPB:       -0.667351007962014E+01   0.395044680368962E+02
   LPB:    0  -0.472839303893355E+01   0.329822813955874E+02   0.330903E+00   0.000000E+00   0.355283E+02   0.117564E+02
   LPB:    1  -0.632466723114486E+00   0.293829287730520E+01   0.938148E-02   0.000000E+00   0.832622E+02  -0.223950E-15
   LPB:    2  -0.301009387395048E+00   0.115352886194906E+01   0.159052E-01   0.477317E-01   0.205800E+03   0.183001E-13
   LPB:    3  -0.225452010458596E+00   0.834742811746149E+00   0.236304E-01   0.153432E+00   0.135312E+03   0.192193E-13
   LPB:    4  -0.195795402544195E+00   0.508813785414551E+00   0.229713E-01   0.403768E+00   0.273769E+03   0.106330E-13
   LPB:    5  -0.178847456336783E+00   0.181383559074043E+00   0.279735E-01   0.469283E+00   0.207921E+03   0.800006E-14
  Finished solving LPB equations
  A_corr:   -7.733620676203351E-002
 End minimization
 Ecorr=   1913.30252712249     
 A_corr= -7.733620676203351E-002
 Ecorr_band=  -1913.37986332925     
 End Solvation calculations
RMM:   7    -0.192979178755E+03   -0.83739E+01   -0.30837E+01  3714   0.726E+00    0.292E+01
 Begin Solvation calculations
  rms_SCF =    2.48676243740207      tol =   0.248676243740207     
 Begin minimization
 Creating dielectric and ionic cavities
  area:      202.489150764004     
  volume:    866.020928606960     
  Acav:     0.106306804151102     
  Solving linear dielectric/ionic screening model
        iter                  A_solv                     rms
   LPB:       -0.119107673269523E+02   0.558741873691383E+02
   LPB:    0  -0.119068660815108E+02   0.558773106047316E+02   0.147887E-01   0.000000E+00   0.356759E+02   0.527599E+00
   LPB:    1  -0.121686816517888E+01   0.524208800684412E+01   0.911277E-02   0.000000E+00   0.824546E+02  -0.936946E-17
   LPB:    2  -0.411113800958793E+00   0.103739534055002E+01   0.163437E-01   0.420267E-01   0.146393E+03  -0.452015E-15
   LPB:    3  -0.287184197675824E+00   0.444896922289207E+00   0.226826E-01   0.110823E+00   0.226117E+03   0.680893E-16
   LPB:    4  -0.255333575345498E+00   0.252750237213582E+00   0.269721E-01   0.216133E+00   0.295320E+03   0.258989E-14
   LPB:    5  -0.243587689871667E+00   0.319206333662995E+00   0.271469E-01   0.366405E+00   0.400159E+03  -0.928753E-15
   LPB:    6  -0.237585083830485E+00   0.226122860370308E+00   0.271975E-01   0.510089E+00   0.104165E+03  -0.289558E-15
  Finished solving LPB equations
  A_corr:   -0.131278279679383     
 End minimization
 Ecorr=   1898.95098966937     
 A_corr= -0.131278279679383     
 Ecorr_band=  -1899.08226794904     
 End Solvation calculations
RMM:   8    -0.200226643787E+03   -0.72475E+01   -0.13860E+01  3700   0.656E+00    0.375E+01
 Begin Solvation calculations
  rms_SCF =    2.48676243740207      tol =   0.248676243740207     
 Begin minimization
 Creating dielectric and ionic cavities
  area:      203.408503961518     
  volume:    859.592744774888     
  Acav:     0.106789464579797     
  Solving linear dielectric/ionic screening model
        iter                  A_solv                     rms
   LPB:       -0.514408755503718E+01   0.359419930013564E+02
   LPB:    0  -0.514141993295174E+01   0.358797859396148E+02  -0.121776E-01   0.000000E+00   0.359772E+02  -0.438118E+00
   LPB:    1  -0.718652505333880E+00   0.375526127420356E+01   0.911195E-02   0.000000E+00   0.821008E+02   0.102964E-16
   LPB:    2  -0.294967753929754E+00   0.634948890319552E+00   0.177444E-01   0.491924E-01   0.120580E+03  -0.711133E-15
   LPB:    3  -0.228794525697935E+00   0.329385238106491E+00   0.232604E-01   0.119147E+00   0.296492E+03   0.210676E-14
   LPB:    4  -0.208737468950184E+00   0.190545356306448E+00   0.267427E-01   0.263631E+00   0.212541E+03   0.477958E-14
  Finished solving LPB equations
  A_corr:   -0.101948004370387     
 End minimization
 Ecorr=   1856.95527781707     
 A_corr= -0.101948004370387     
 Ecorr_band=  -1857.05722582144     
 End Solvation calculations
RMM:   9    -0.183427292409E+03    0.16799E+02   -0.12961E+01  3696   0.664E+00    0.185E+01
 Begin Solvation calculations
  rms_SCF =    2.48676243740207      tol =   0.248676243740207     
 Begin minimization
 Creating dielectric and ionic cavities
  area:      196.598382131578     
  volume:    855.127572440577     
  Acav:     0.103214150619078     
  Solving linear dielectric/ionic screening model
        iter                  A_solv                     rms
   LPB:       -0.960130364977600E+00   0.132822606843341E+02
   LPB:    0  -0.960052113233599E+00   0.132903588691791E+02   0.207964E-02   0.000000E+00   0.361866E+02   0.752550E-01
   LPB:    1  -0.315696133174965E+00   0.126614579832862E+01   0.933942E-02   0.000000E+00   0.832622E+02   0.633986E-17
   LPB:    2  -0.252481370899683E+00   0.272877069242397E+00   0.162472E-01   0.563941E-01   0.199568E+03  -0.143193E-14
   LPB:    3  -0.238407324912604E+00   0.232422296620388E+00   0.251847E-01   0.143629E+00   0.417008E+03   0.216789E-14
   LPB:    4  -0.232844560643269E+00   0.162074108390239E+00   0.319040E-01   0.312007E+00   0.129558E+03   0.281027E-14
  Finished solving LPB equations
  A_corr:   -0.129630410024191     
 End minimization
 Ecorr=   1839.33786813842     
 A_corr= -0.129630410024191     
 Ecorr_band=  -1839.46749854844     
 End Solvation calculations
RMM:  10    -0.181002544244E+03    0.24247E+01   -0.63344E+00  3698   0.475E+00    0.133E+01
 Begin Solvation calculations
  rms_SCF =    2.48676243740207      tol =   0.248676243740207     
 Begin minimization
 Creating dielectric and ionic cavities
  area:      175.029382728572     
  volume:    850.018721412593     
  Acav:     9.189042593250013E-002
  Solving linear dielectric/ionic screening model
        iter                  A_solv                     rms
   LPB:       -0.281612667870894E+00   0.229823650451066E+01
   LPB:    0  -0.281086191787145E+00   0.215347593622193E+01  -0.537648E-02   0.000000E+00   0.364261E+02  -0.195844E+00
   LPB:    1  -0.252592920005773E+00   0.475338067049057E+00   0.113502E-01   0.000000E+00   0.792300E+02   0.595567E-17
   LPB:    2  -0.243679245103201E+00   0.270972519103418E+00   0.210308E-01   0.168836E+00   0.210435E+03   0.983783E-14
   LPB:    3  -0.239577452872951E+00   0.307964271758003E+00   0.251523E-01   0.384764E+00   0.240902E+03   0.130256E-13
   LPB:    4  -0.236221347709889E+00   0.181597757875703E+00   0.319132E-01   0.644866E+00   0.806829E+02   0.149737E-13
  Finished solving LPB equations
  A_corr:   -0.144330921777389     
 End minimization
 Ecorr=   1826.48514837324     
 A_corr= -0.144330921777389     
 Ecorr_band=  -1826.62947929502     
 End Solvation calculations
RMM:  11    -0.179268389956E+03    0.17342E+01   -0.30291E+00  3698   0.324E+00    0.845E+00
 Begin Solvation calculations
  rms_SCF =    2.04855250159076      tol =   0.204855250159076     
 Begin minimization
 Creating dielectric and ionic cavities
  area:      177.417201014166     
  volume:    845.524052796292     
  Acav:     9.314403053243740E-002
  Solving linear dielectric/ionic screening model
        iter                  A_solv                     rms
   LPB:       -0.332629541165036E+00   0.341952603066267E+01
   LPB:    0  -0.331321516278880E+00   0.325522213615645E+01  -0.845015E-02   0.000000E+00   0.366368E+02  -0.309586E+00
   LPB:    1  -0.270860328138905E+00   0.620667654472157E+00   0.106063E-01   0.000000E+00   0.940093E+02   0.226763E-16
   LPB:    2  -0.262236344413607E+00   0.164819935847068E+00   0.151220E-01   0.100043E+00   0.254559E+03   0.559252E-14
   LPB:    3  -0.258372775327886E+00   0.202305079118724E+00   0.316959E-01   0.213740E+00   0.381644E+03   0.681248E-14
   LPB:    4  -0.255890096207286E+00   0.183680780890921E+00   0.303212E-01   0.671721E+00   0.861281E+02   0.717163E-14
  Finished solving LPB equations
  A_corr:   -0.162746065674849     
 End minimization
 Ecorr=   1815.35445903860     
 A_corr= -0.162746065674849     
 Ecorr_band=  -1815.51720510427     
 End Solvation calculations
RMM:  12    -0.179039374622E+03    0.22902E+00   -0.13923E+00  3700   0.220E+00    0.834E+00
 Begin Solvation calculations
  rms_SCF =    2.04855250159076      tol =   0.204855250159076     
 Begin minimization
 Creating dielectric and ionic cavities
  area:      184.688816104832     
  volume:    842.558951982946     
  Acav:     9.696162845503674E-002
  Solving linear dielectric/ionic screening model
        iter                  A_solv                     rms
   LPB:       -0.280843118427374E+00   0.158258480382848E+01
   LPB:    0  -0.268083740220855E+00   0.582692318544389E+00   0.263420E-01   0.000000E+00   0.367758E+02   0.968748E+00
   LPB:    1  -0.259035746596474E+00   0.426527989810247E+00   0.182766E-01   0.000000E+00   0.146674E+03  -0.406802E-16
   LPB:    2  -0.256048150359539E+00   0.188410208649336E+00   0.172955E-01   0.348924E+00   0.253956E+03   0.537481E-15
   LPB:    3  -0.254075181701476E+00   0.113426981804273E+00   0.276343E-01   0.413317E+00   0.336167E+03   0.104956E-14
   LPB:    4  -0.252275785971307E+00   0.158371421398115E+00   0.360061E-01   0.699969E+00   0.319147E+03   0.115364E-14
  Finished solving LPB equations
  A_corr:   -0.155314157516270     
 End minimization
 Ecorr=   1805.38811703146     
 A_corr= -0.155314157516270     
 Ecorr_band=  -1805.54343118897     
 End Solvation calculations
RMM:  13    -0.178820835634E+03    0.21854E+00   -0.51468E-01  3702   0.139E+00    0.578E+00
 Begin Solvation calculations
  rms_SCF =    2.04855250159076      tol =   0.204855250159076     
 Begin minimization
 Creating dielectric and ionic cavities
  area:      179.716824962823     
  volume:    839.230332497097     
  Acav:     9.435133310548217E-002
  Solving linear dielectric/ionic screening model
        iter                  A_solv                     rms
   LPB:       -0.302508894535719E+00   0.200910249927340E+01
   LPB:    0  -0.299967770803467E+00   0.154158220842617E+01  -0.117308E-01   0.000000E+00   0.369318E+02  -0.433240E+00
   LPB:    1  -0.271195332756890E+00   0.480001151716469E+00   0.127458E-01   0.000000E+00   0.109358E+03  -0.304830E-16
   LPB:    2  -0.267100366976613E+00   0.174728438443596E+00   0.159742E-01   0.113559E+00   0.204524E+03  -0.190057E-14
   LPB:    3  -0.265433504266270E+00   0.160933407809386E+00   0.236898E-01   0.274478E+00   0.328160E+03  -0.202766E-14
   LPB:    4  -0.264559502737500E+00   0.135099339896927E+00   0.226280E-01   0.548944E+00   0.109401E+03  -0.220475E-14
  Finished solving LPB equations
  A_corr:   -0.170208169632018     
 End minimization
 Ecorr=   1798.07683125487     
 A_corr= -0.170208169632018     
 Ecorr_band=  -1798.24703942451     
 End Solvation calculations
RMM:  14    -0.178590679195E+03    0.23016E+00   -0.23056E-01  3702   0.914E-01    0.381E+00
 Begin Solvation calculations
  rms_SCF =    2.04855250159076      tol =   0.204855250159076     
 Begin minimization
 Creating dielectric and ionic cavities
  area:      181.547915504077     
  volume:    836.549482800326     
  Acav:     9.531265563964060E-002
  Solving linear dielectric/ionic screening model
        iter                  A_solv                     rms
   LPB:       -0.301050550438375E+00   0.268975970620443E+01
   LPB:    0  -0.290361587166751E+00   0.234654150306156E+01   0.240184E-01   0.000000E+00   0.370575E+02   0.890063E+00
   LPB:    1  -0.265809364567376E+00   0.384503029845453E+00   0.105330E-01   0.000000E+00   0.800857E+02   0.149513E-16
   LPB:    2  -0.260550370565124E+00   0.818738032936229E-01   0.169141E-01   0.133387E+00   0.260315E+03   0.540493E-15
   LPB:    3  -0.258947048659683E+00   0.383742822107283E-01   0.285740E-01   0.180466E+00   0.640838E+03  -0.151851E-15
   LPB:    4  -0.258032811706367E+00   0.416351646816853E-01   0.376961E-01   0.432228E+00   0.568744E+03  -0.117702E-15
  Finished solving LPB equations
  A_corr:   -0.162720156066727     
 End minimization
 Ecorr=   1790.79640304764     
 A_corr= -0.162720156066727     
 Ecorr_band=  -1790.95912320371     
 End Solvation calculations
RMM:  15    -0.178639671597E+03   -0.48992E-01   -0.12012E-01  3700   0.614E-01    0.370E+00
 Begin Solvation calculations
  rms_SCF =    1.95795522859548      tol =   0.195795522859548     
 Begin minimization
 Creating dielectric and ionic cavities
  area:      182.843775140185     
  volume:    832.498672463902     
  Acav:     9.599298194859737E-002
  Solving linear dielectric/ionic screening model
        iter                  A_solv                     rms
   LPB:       -0.301903781914150E+00   0.141261792498573E+01
   LPB:    0  -0.301831322976834E+00   0.146342906577953E+01   0.197248E-02   0.000000E+00   0.372474E+02   0.734698E-01
   LPB:    1  -0.275260861232697E+00   0.565872662680485E+00   0.119652E-01   0.000000E+00   0.149151E+03   0.251813E-18
   LPB:    2  -0.271594082887823E+00   0.145652877023079E+00   0.144698E-01   0.114116E+00   0.158916E+03   0.841835E-15
   LPB:    3  -0.270271476565846E+00   0.126547972254022E+00   0.233547E-01   0.223477E+00   0.351101E+03   0.954407E-15
   LPB:    4  -0.269514703546754E+00   0.109755360784579E+00   0.258130E-01   0.517691E+00   0.130490E+03   0.113253E-14
  Finished solving LPB equations
  A_corr:   -0.173521721598156     
 End minimization
 Ecorr=   1783.27420944675     
 A_corr= -0.173521721598156     
 Ecorr_band=  -1783.44773116835     
 End Solvation calculations
RMM:  16    -0.178557254372E+03    0.82417E-01   -0.95597E-02  3700   0.599E-01    0.240E+00
 Begin Solvation calculations
  rms_SCF =    1.08953452722557      tol =   0.108953452722557     
 Begin minimization
 Creating dielectric and ionic cavities
  area:      181.071687229892     
  volume:    828.712395232033     
  Acav:     9.506263579569332E-002
  Solving linear dielectric/ionic screening model
        iter                  A_solv                     rms
   LPB:       -0.307345017962296E+00   0.125016565779570E+01
   LPB:    0  -0.306992966165737E+00   0.108797087413252E+01  -0.433748E-02   0.000000E+00   0.374249E+02  -0.162330E+00
   LPB:    1  -0.286501091355608E+00   0.458050497910972E+00   0.130217E-01   0.000000E+00   0.159407E+03   0.798048E-17
   LPB:    2  -0.283571060528033E+00   0.159920691824355E+00   0.161722E-01   0.115130E+00   0.128755E+03   0.747748E-15
   LPB:    3  -0.282265873430896E+00   0.142073632047754E+00   0.247379E-01   0.291211E+00   0.316882E+03   0.173849E-14
   LPB:    4  -0.281434762466048E+00   0.140308564970604E+00   0.242892E-01   0.648539E+00   0.138517E+03   0.210037E-14
   LPB:    5  -0.280615839765060E+00   0.933931493801077E-01   0.302432E-01   0.791353E+00   0.298625E+03   0.321390E-14
  Finished solving LPB equations
  A_corr:   -0.185553203969367     
 End minimization
 Ecorr=   1778.67997926540     
 A_corr= -0.185553203969367     
 Ecorr_band=  -1778.86553246937     
 End Solvation calculations
RMM:  17    -0.178512427117E+03    0.44827E-01   -0.37800E-02  3704   0.353E-01    0.130E+00
 Begin Solvation calculations
  rms_SCF =   0.276671663394551      tol =   2.766716633945506E-002
 Begin minimization
 Creating dielectric and ionic cavities
  area:      177.082874540069     
  volume:    825.798668565167     
  Acav:     9.296850913353610E-002
  Solving linear dielectric/ionic screening model
        iter                  A_solv                     rms
   LPB:       -0.314403091424501E+00   0.106619378078175E+01
   LPB:    0  -0.313875083120571E+00   0.117724104439297E+01   0.530229E-02   0.000000E+00   0.375615E+02   0.199162E+00
   LPB:    1  -0.295864095545673E+00   0.500017681630673E+00   0.117544E-01   0.000000E+00   0.166505E+03   0.138669E-17
   LPB:    2  -0.293279006656556E+00   0.112572772889883E+00   0.141296E-01   0.119401E+00   0.145937E+03  -0.497780E-14
   LPB:    3  -0.292596517897388E+00   0.951276499226919E-01   0.213443E-01   0.174771E+00   0.328550E+03  -0.593156E-14
   LPB:    4  -0.292119747015969E+00   0.887241679198351E-01   0.291887E-01   0.510836E+00   0.130425E+03  -0.648114E-14
   LPB:    5  -0.291517042080554E+00   0.759771504462476E-01   0.378569E-01   0.974686E+00   0.279618E+03  -0.630773E-14
   LPB:    6  -0.291013476527667E+00   0.339742766967876E-01   0.362204E-01   0.873259E+00   0.950524E+02  -0.624795E-14
   LPB:    7  -0.290721793518287E+00   0.255080568168449E-01   0.332106E-01   0.631729E+00   0.356129E+03  -0.609633E-14
  Finished solving LPB equations
  A_corr:   -0.197753284384750     
 End minimization
 Ecorr=   1770.14513179501     
 A_corr= -0.197753284384750     
 Ecorr_band=  -1770.34288507940     
 End Solvation calculations
RMM:  18    -0.178512299754E+03    0.12736E-03   -0.29998E-02  3706   0.337E-01    0.161E+00
 Begin Solvation calculations
  rms_SCF =   0.276671663394551      tol =   2.766716633945506E-002
 Begin minimization
 Creating dielectric and ionic cavities
  area:      177.597679697608     
  volume:    823.678570715619     
  Acav:     9.323878184124441E-002
  Solving linear dielectric/ionic screening model
        iter                  A_solv                     rms
   LPB:       -0.317920206552113E+00   0.108256093188759E+01
   LPB:    0  -0.317589431248575E+00   0.115291885504174E+01   0.419118E-02   0.000000E+00   0.376609E+02   0.157844E+00
   LPB:    1  -0.300689076461215E+00   0.329468664165128E+00   0.139181E-01   0.000000E+00   0.121502E+03   0.721023E-17
   LPB:    2  -0.298395155503904E+00   0.143415110262915E+00   0.142828E-01   0.132267E+00   0.235403E+03  -0.123937E-14
   LPB:    3  -0.297861381011983E+00   0.884709722961165E-01   0.181807E-01   0.182802E+00   0.168699E+03  -0.210609E-14
   LPB:    4  -0.297687255807882E+00   0.524350441393215E-01   0.190965E-01   0.310572E+00   0.217532E+03  -0.248965E-14
   LPB:    5  -0.297577243000091E+00   0.322050581075061E-01   0.275395E-01   0.438105E+00   0.206687E+03  -0.267194E-14
   LPB:    6  -0.297470838505922E+00   0.162013852022091E-01   0.401508E-01   0.663406E+00   0.131393E+03  -0.302372E-14
  Finished solving LPB equations
  A_corr:   -0.204232056664678     
 End minimization
 Ecorr=   1765.51403964038     
 A_corr= -0.204232056664678     
 Ecorr_band=  -1765.71827169705     
 End Solvation calculations
RMM:  19    -0.178495835488E+03    0.16464E-01   -0.98717E-03  3702   0.188E-01    0.775E-01
 Begin Solvation calculations
  rms_SCF =   0.276671663394551      tol =   2.766716633945506E-002
 Begin minimization
 Creating dielectric and ionic cavities
  area:      177.147246697890     
  volume:    823.039404909376     
  Acav:     9.300230451639215E-002
  Solving linear dielectric/ionic screening model
        iter                  A_solv                     rms
   LPB:       -0.302040570526481E+00   0.385151643979474E+00
   LPB:    0  -0.302037117185111E+00   0.393129242908544E+00   0.428072E-03   0.000000E+00   0.376909E+02   0.161344E-01
   LPB:    1  -0.299767378995477E+00   0.998223377292469E-01   0.139473E-01   0.000000E+00   0.141772E+03   0.304813E-18
   LPB:    2  -0.299503638505413E+00   0.525290364779801E-01   0.149518E-01   0.108392E+00   0.223293E+03  -0.216888E-15
   LPB:    3  -0.299436038952467E+00   0.363490288655831E-01   0.196092E-01   0.195434E+00   0.118449E+03  -0.356182E-16
   LPB:    4  -0.299381054268540E+00   0.430134678093005E-01   0.310849E-01   0.513109E+00   0.182351E+03  -0.608641E-16
   LPB:    5  -0.299303855311825E+00   0.371569568539077E-01   0.351200E-01   0.124270E+01   0.116751E+03  -0.943167E-16
   LPB:    6  -0.299220686340454E+00   0.147939842365655E-01   0.342477E-01   0.110477E+01   0.768347E+02  -0.408291E-15
  Finished solving LPB equations
  A_corr:   -0.206218381824061     
 End minimization
 Ecorr=   1763.67395110723     
 A_corr= -0.206218381824061     
 Ecorr_band=  -1763.88016948906     
 End Solvation calculations
RMM:  20    -0.178493862292E+03    0.19732E-02   -0.37489E-03  3704   0.125E-01    0.611E-01
 Begin Solvation calculations
  rms_SCF =   0.276671663394551      tol =   2.766716633945506E-002
 Begin minimization
 Creating dielectric and ionic cavities
  area:      177.360450247847     
  volume:    822.300727384955     
  Acav:     9.311423638011981E-002
  Solving linear dielectric/ionic screening model
        iter                  A_solv                     rms
   LPB:       -0.307972989749564E+00   0.584866414144467E+00
   LPB:    0  -0.307960959576601E+00   0.597810237261377E+00   0.798607E-03   0.000000E+00   0.377255E+02   0.301279E-01
   LPB:    1  -0.303138157543522E+00   0.148902863103605E+00   0.140248E-01   0.000000E+00   0.130656E+03   0.183308E-18
   LPB:    2  -0.302607411495381E+00   0.712865088350283E-01   0.141159E-01   0.109339E+00   0.238190E+03  -0.974082E-15
   LPB:    3  -0.302502312768132E+00   0.376356099389754E-01   0.169844E-01   0.164577E+00   0.143143E+03  -0.190952E-15
   LPB:    4  -0.302462422840119E+00   0.286848229799991E-01   0.210998E-01   0.305519E+00   0.245256E+03  -0.100168E-15
   LPB:    5  -0.302435234266001E+00   0.197025021671605E-01   0.271362E-01   0.529970E+00   0.138583E+03  -0.822942E-16
  Finished solving LPB equations
  A_corr:   -0.209320997885881     
 End minimization
 Ecorr=   1762.29572643094     
 A_corr= -0.209320997885881     
 Ecorr_band=  -1762.50504742883     
 End Solvation calculations
RMM:  21    -0.178492359131E+03    0.15032E-02   -0.21650E-03  3700   0.850E-02    0.488E-01
 Begin Solvation calculations
  rms_SCF =   0.276671663394551      tol =   2.766716633945506E-002
 Begin minimization
 Creating dielectric and ionic cavities
  area:      177.902863892823     
  volume:    820.767652581992     
  Acav:     9.339900354373198E-002
  Solving linear dielectric/ionic screening model
        iter                  A_solv                     rms
   LPB:       -0.338511772366087E+00   0.107305376149651E+01
   LPB:    0  -0.338510250448421E+00   0.106547054725791E+01  -0.283779E-03   0.000000E+00   0.377974E+02  -0.107261E-01
   LPB:    1  -0.316121293372999E+00   0.374697041025354E+00   0.140401E-01   0.000000E+00   0.178287E+03  -0.706302E-18
   LPB:    2  -0.313657527387775E+00   0.112836960857574E+00   0.154119E-01   0.100249E+00   0.127098E+03   0.204206E-14
   LPB:    3  -0.313073968249386E+00   0.599946578653604E-01   0.218182E-01   0.167310E+00   0.220735E+03   0.326187E-14
   LPB:    4  -0.312840099430762E+00   0.573322610694585E-01   0.253443E-01   0.345005E+00   0.227294E+03   0.387966E-14
   LPB:    5  -0.312726424994980E+00   0.667271439832554E-01   0.218269E-01   0.564391E+00   0.230327E+03   0.495034E-14
   LPB:    6  -0.312636118703067E+00   0.255564446330113E-01   0.242559E-01   0.714874E+00   0.113410E+03   0.547208E-14
  Finished solving LPB equations
  A_corr:   -0.219237115159335     
 End minimization
 Ecorr=   1759.04122523216     
 A_corr= -0.219237115159335     
 Ecorr_band=  -1759.26046234732     
 End Solvation calculations
RMM:  22    -0.178493072837E+03   -0.71371E-03   -0.21474E-03  3702   0.814E-02    0.550E-01
 Begin Solvation calculations
  rms_SCF =   0.276671663394551      tol =   2.766716633945506E-002
 Begin minimization
 Creating dielectric and ionic cavities
  area:      178.029928904298     
  volume:    819.966834344301     
  Acav:     9.346571267475652E-002
  Solving linear dielectric/ionic screening model
        iter                  A_solv                     rms
   LPB:       -0.332513395786577E+00   0.919321853046767E+00
   LPB:    0  -0.332513384533802E+00   0.919757346526551E+00   0.243892E-04   0.000000E+00   0.378349E+02   0.922766E-03
   LPB:    1  -0.320395042465467E+00   0.219438715560952E+00   0.141341E-01   0.000000E+00   0.136659E+03   0.111955E-19
   LPB:    2  -0.319139130753567E+00   0.105109481236890E+00   0.147479E-01   0.993234E-01   0.206267E+03   0.118392E-14
   LPB:    3  -0.318862215809491E+00   0.659422803754073E-01   0.187119E-01   0.173780E+00   0.127332E+03   0.189261E-16
   LPB:    4  -0.318726372561975E+00   0.629098944672367E-01   0.232120E-01   0.395455E+00   0.258099E+03  -0.286481E-15
   LPB:    5  -0.318621108908826E+00   0.419956503103494E-01   0.263166E-01   0.683474E+00   0.103265E+03  -0.245015E-15
   LPB:    6  -0.318523450451188E+00   0.172134845573325E-01   0.323758E-01   0.754122E+00   0.140690E+03  -0.234182E-15
  Finished solving LPB equations
  A_corr:   -0.225057737776432     
 End minimization
 Ecorr=   1757.10931454371     
 A_corr= -0.225057737776432     
 Ecorr_band=  -1757.33437228149     
 End Solvation calculations
RMM:  23    -0.178493342467E+03   -0.26963E-03   -0.15617E-03  3700   0.827E-02    0.490E-01
 Begin Solvation calculations
  rms_SCF =   0.276671663394551      tol =   2.766716633945506E-002
 Begin minimization
 Creating dielectric and ionic cavities
  area:      178.247785767390     
  volume:    819.535520686793     
  Acav:     9.358008752787997E-002
  Solving linear dielectric/ionic screening model
        iter                  A_solv                     rms
   LPB:       -0.335283347657514E+00   0.930756951195452E+00
   LPB:    0  -0.335282303810602E+00   0.933981503853330E+00   0.234839E-03   0.000000E+00   0.378552E+02   0.888988E-02
   LPB:    1  -0.324920198838168E+00   0.200899089715068E+00   0.139727E-01   0.000000E+00   0.118305E+03  -0.106615E-19
   LPB:    2  -0.323905478176663E+00   0.106011965042438E+00   0.138054E-01   0.991132E-01   0.257266E+03   0.117421E-14
   LPB:    3  -0.323695644949996E+00   0.505386911823513E-01   0.168959E-01   0.168964E+00   0.126457E+03   0.661360E-15
   LPB:    4  -0.323597045240909E+00   0.477040436088547E-01   0.239726E-01   0.331183E+00   0.258663E+03   0.362790E-15
   LPB:    5  -0.323519590940177E+00   0.372544765121866E-01   0.291575E-01   0.645856E+00   0.956442E+02   0.220816E-15
   LPB:    6  -0.323440678053261E+00   0.163803286470817E-01   0.345858E-01   0.858924E+00   0.116631E+03   0.549827E-16
  Finished solving LPB equations
  A_corr:   -0.229860590525381     
 End minimization
 Ecorr=   1755.42385365296     
 A_corr= -0.229860590525381     
 Ecorr_band=  -1755.65371424349     
 End Solvation calculations
RMM:  24    -0.178494538737E+03   -0.11963E-02   -0.10734E-03  3706   0.594E-02    0.491E-01
 Begin Solvation calculations
  rms_SCF =   0.276671663394551      tol =   2.766716633945506E-002
 Begin minimization
 Creating dielectric and ionic cavities
  area:      178.359501204758     
  volume:    819.291014352993     
  Acav:     9.363873813249812E-002
  Solving linear dielectric/ionic screening model
        iter                  A_solv                     rms
   LPB:       -0.336272774267399E+00   0.818992211938668E+00
   LPB:    0  -0.336272243510823E+00   0.821091018180299E+00   0.167430E-03   0.000000E+00   0.378666E+02   0.634003E-02
   LPB:    1  -0.329032498444646E+00   0.174904139367380E+00   0.138955E-01   0.000000E+00   0.108598E+03  -0.364075E-18
   LPB:    2  -0.328316619286712E+00   0.897041963030694E-01   0.133722E-01   0.102751E+00   0.281593E+03  -0.175314E-15
   LPB:    3  -0.328168576476241E+00   0.383883914402354E-01   0.166800E-01   0.165788E+00   0.132976E+03  -0.456024E-16
   LPB:    4  -0.328099000228050E+00   0.383104625178381E-01   0.251742E-01   0.311397E+00   0.249955E+03  -0.369735E-15
   LPB:    5  -0.328042876669197E+00   0.329558501638661E-01   0.304978E-01   0.665843E+00   0.940079E+02  -0.582690E-15
   LPB:    6  -0.327983761212645E+00   0.149865468971889E-01   0.347440E-01   0.924578E+00   0.107679E+03  -0.585336E-15
  Finished solving LPB equations
  A_corr:   -0.234345023080147     
 End minimization
 Ecorr=   1753.94748362799     
 A_corr= -0.234345023080147     
 Ecorr_band=  -1754.18182865107     
 End Solvation calculations
RMM:  25    -0.178494861078E+03   -0.32234E-03   -0.72552E-04  3700   0.506E-02    0.447E-01
 Begin Solvation calculations
  rms_SCF =   0.276671663394551      tol =   2.766716633945506E-002
 Begin minimization
 Creating dielectric and ionic cavities
  area:      178.576406885281     
  volume:    819.093345913286     
  Acav:     9.375261361477265E-002
  Solving linear dielectric/ionic screening model
        iter                  A_solv                     rms
   LPB:       -0.345533908549315E+00   0.108260127840697E+01
   LPB:    0  -0.345500335627421E+00   0.106376833272674E+01  -0.133146E-02   0.000000E+00   0.378759E+02  -0.504302E-01
   LPB:    1  -0.335131822586267E+00   0.230165261399661E+00   0.135688E-01   0.000000E+00   0.968926E+02   0.240039E-17
   LPB:    2  -0.334051810542750E+00   0.103270020652366E+00   0.128214E-01   0.110235E+00   0.292631E+03   0.471116E-15
   LPB:    3  -0.333841369526830E+00   0.401707108650407E-01   0.167218E-01   0.149402E+00   0.144072E+03   0.950635E-15
   LPB:    4  -0.333756730229666E+00   0.390405735906533E-01   0.241998E-01   0.277914E+00   0.244658E+03   0.100699E-14
   LPB:    5  -0.333700516515695E+00   0.309404598196062E-01   0.284624E-01   0.564691E+00   0.101888E+03   0.118188E-14
   LPB:    6  -0.333646780114443E+00   0.141427241031142E-01   0.340643E-01   0.798728E+00   0.117539E+03   0.130281E-14
  Finished solving LPB equations
  A_corr:   -0.239894166499671     
 End minimization
 Ecorr=   1752.49118397679     
 A_corr= -0.239894166499671     
 Ecorr_band=  -1752.73107814329     
 End Solvation calculations
RMM:  26    -0.178494902180E+03   -0.41102E-04   -0.64191E-04  3702   0.435E-02    0.280E-01
 Begin Solvation calculations
  rms_SCF =   0.276671663394551      tol =   2.766716633945506E-002
 Begin minimization
 Creating dielectric and ionic cavities
  area:      178.772766525584     
  volume:    819.011237068527     
  Acav:     9.385570242593171E-002
  Solving linear dielectric/ionic screening model
        iter                  A_solv                     rms
   LPB:       -0.355764377514659E+00   0.127908068698188E+01
   LPB:    0  -0.355709516531676E+00   0.125653779461985E+01  -0.170194E-02   0.000000E+00   0.378797E+02  -0.644689E-01
   LPB:    1  -0.342209710426735E+00   0.268409150514117E+00   0.134557E-01   0.000000E+00   0.922919E+02  -0.605326E-20
   LPB:    2  -0.340799795830500E+00   0.115377476796724E+00   0.126314E-01   0.111256E+00   0.298205E+03   0.801284E-15
   LPB:    3  -0.340524358367370E+00   0.426208203994114E-01   0.168934E-01   0.146071E+00   0.148421E+03   0.938100E-15
   LPB:    4  -0.340414665243600E+00   0.431013250169647E-01   0.247201E-01   0.272160E+00   0.249267E+03   0.101433E-14
   LPB:    5  -0.340345398444113E+00   0.346744730423939E-01   0.280075E-01   0.557342E+00   0.102061E+03   0.105998E-14
   LPB:    6  -0.340283007725864E+00   0.155604584922618E-01   0.326927E-01   0.771647E+00   0.123268E+03   0.132142E-14
  Finished solving LPB equations
  A_corr:   -0.246427305299932     
 End minimization
 Ecorr=   1750.94118142358     
 A_corr= -0.246427305299932     
 Ecorr_band=  -1751.18760872888     
 End Solvation calculations
RMM:  27    -0.178495692258E+03   -0.79008E-03   -0.71479E-04  3700   0.405E-02    0.165E-01
 Begin Solvation calculations
  rms_SCF =   0.164366638224009      tol =   1.643666382240088E-002
 Begin minimization
 Creating dielectric and ionic cavities
  area:      178.988970343150     
  volume:    818.967872010991     
  Acav:     9.396920943015379E-002
  Solving linear dielectric/ionic screening model
        iter                  A_solv                     rms
   LPB:       -0.364707444315805E+00   0.131933301839729E+01
   LPB:    0  -0.364622623311404E+00   0.128979216355054E+01  -0.211617E-02   0.000000E+00   0.378818E+02  -0.801645E-01
   LPB:    1  -0.350051234021734E+00   0.267819305759912E+00   0.135487E-01   0.000000E+00   0.930413E+02  -0.568014E-17
   LPB:    2  -0.348589581346001E+00   0.121087453068333E+00   0.127168E-01   0.106872E+00   0.300137E+03   0.877359E-15
   LPB:    3  -0.348302000705200E+00   0.448056845344109E-01   0.166936E-01   0.149880E+00   0.143501E+03   0.510743E-15
   LPB:    4  -0.348183334945996E+00   0.452895536508054E-01   0.249614E-01   0.275961E+00   0.246865E+03   0.685229E-15
   LPB:    5  -0.348106371847892E+00   0.371171013506775E-01   0.282822E-01   0.572416E+00   0.101474E+03   0.767432E-15
   LPB:    6  -0.348035962069135E+00   0.165135940343875E-01   0.326182E-01   0.793239E+00   0.121865E+03   0.945544E-15
   LPB:    7  -0.347980378059838E+00   0.838657018039048E-02   0.368025E-01   0.699680E+00   0.215612E+03   0.515135E-15
  Finished solving LPB equations
  A_corr:   -0.254011168629684     
 End minimization
 Ecorr=   1749.35181824620     
 A_corr= -0.254011168629684     
 Ecorr_band=  -1749.60582941483     
 End Solvation calculations
RMM:  28    -0.178496844445E+03   -0.11522E-02   -0.70529E-04  3694   0.400E-02    0.140E-01
 Begin Solvation calculations
  rms_SCF =   0.164366638224009      tol =   1.643666382240088E-002
 Begin minimization
 Creating dielectric and ionic cavities
  area:      179.167912070608     
  volume:    818.961187457277     
  Acav:     9.406315383706916E-002
  Solving linear dielectric/ionic screening model
        iter                  A_solv                     rms
   LPB:       -0.367477459558086E+00   0.119872151917227E+01
   LPB:    0  -0.367369703250345E+00   0.116370849124549E+01  -0.238517E-02   0.000000E+00   0.378821E+02  -0.903552E-01
   LPB:    1  -0.356494762574859E+00   0.242262530437097E+00   0.133393E-01   0.000000E+00   0.876934E+02   0.365819E-17
   LPB:    2  -0.355370317776173E+00   0.992108516876584E-01   0.125125E-01   0.110230E+00   0.301247E+03  -0.719278E-15
   LPB:    3  -0.355156903438074E+00   0.363048167407129E-01   0.168059E-01   0.141309E+00   0.157419E+03  -0.864028E-15
   LPB:    4  -0.355086205973594E+00   0.333779869753224E-01   0.226433E-01   0.245867E+00   0.250621E+03  -0.990930E-15
   LPB:    5  -0.355045328523289E+00   0.264722057963781E-01   0.276854E-01   0.472901E+00   0.109318E+03  -0.898158E-15
   LPB:    6  -0.355003120632239E+00   0.130961874043280E-01   0.361840E-01   0.790030E+00   0.114269E+03  -0.865729E-15
  Finished solving LPB equations
  A_corr:   -0.260939966795169     
 End minimization
 Ecorr=   1747.97019334826     
 A_corr= -0.260939966795169     
 Ecorr_band=  -1748.23113331506     
 End Solvation calculations
RMM:  29    -0.178497453579E+03   -0.60913E-03   -0.65969E-04  3707   0.349E-02    0.759E-02
 Begin Solvation calculations
  rms_SCF =   0.101256436355287      tol =   1.012564363552874E-002
 Begin minimization
 Creating dielectric and ionic cavities
  area:      179.184148331037     
  volume:    819.210106883948     
  Acav:     9.407167787379436E-002
  Solving linear dielectric/ionic screening model
        iter                  A_solv                     rms
   LPB:       -0.357126440602657E+00   0.465104906811870E+00
   LPB:    0  -0.357093925701326E+00   0.455730670281116E+00  -0.131041E-02   0.000000E+00   0.378704E+02  -0.496257E-01
   LPB:    1  -0.355780563272372E+00   0.835200309238774E-01   0.120939E-01   0.000000E+00   0.860342E+02   0.233498E-17
   LPB:    2  -0.355664507097532E+00   0.306145075638507E-01   0.118572E-01   0.901299E-01   0.289137E+03   0.246119E-15
   LPB:    3  -0.355639194435047E+00   0.726499231331611E-02   0.189681E-01   0.136342E+00   0.134624E+03   0.279553E-15
   LPB:    4  -0.355620290448520E+00   0.714284677554415E-02   0.489415E-01   0.289442E+00   0.266210E+03   0.206716E-15
  Finished solving LPB equations
  A_corr:   -0.261548612574725     
 End minimization
 Ecorr=   1747.75438536511     
 A_corr= -0.261548612574725     
 Ecorr_band=  -1748.01593397769     
 End Solvation calculations
RMM:  30    -0.178498340947E+03   -0.88737E-03   -0.24982E-04  3725   0.265E-02    0.232E-01
 Begin Solvation calculations
  rms_SCF =   0.101256436355287      tol =   1.012564363552874E-002
 Begin minimization
 Creating dielectric and ionic cavities
  area:      179.273040202075     
  volume:    819.319688464025     
  Acav:     9.411834610608942E-002
  Solving linear dielectric/ionic screening model
        iter                  A_solv                     rms
   LPB:       -0.363208354558450E+00   0.794904445179497E+00
   LPB:    0  -0.363095600226772E+00   0.760353969397432E+00  -0.244040E-02   0.000000E+00   0.378653E+02  -0.924064E-01
   LPB:    1  -0.359580513712142E+00   0.146903930014876E+00   0.124314E-01   0.000000E+00   0.765675E+02  -0.127693E-17
   LPB:    2  -0.359211593484050E+00   0.479894680068983E-01   0.119412E-01   0.109262E+00   0.295909E+03   0.744650E-15
   LPB:    3  -0.359145934782232E+00   0.159439916544817E-01   0.184519E-01   0.115177E+00   0.157404E+03   0.828170E-15
   LPB:    4  -0.359115636847614E+00   0.198441438603760E-01   0.300217E-01   0.283614E+00   0.165453E+03   0.818486E-15
   LPB:    5  -0.359094132441757E+00   0.209134102405057E-01   0.306515E-01   0.695182E+00   0.116001E+03   0.826553E-15
   LPB:    6  -0.359072326870725E+00   0.114056204625676E-01   0.333809E-01   0.931093E+00   0.968124E+02   0.726352E-15
   LPB:    7  -0.359051937425350E+00   0.527629923865937E-02   0.375096E-01   0.832134E+00   0.171869E+03   0.778133E-15
  Finished solving LPB equations
  A_corr:   -0.264933591319261     
 End minimization
 Ecorr=   1746.90510080028     
 A_corr= -0.264933591319261     
 Ecorr_band=  -1747.17003439160     
 End Solvation calculations
RMM:  31    -0.178499981428E+03   -0.16405E-02   -0.27660E-04  3710   0.227E-02    0.436E-01
 Begin Solvation calculations
  rms_SCF =   0.101256436355287      tol =   1.012564363552874E-002
 Begin minimization
 Creating dielectric and ionic cavities
  area:      179.330806458651     
  volume:    819.387562104117     
  Acav:     9.414867339079171E-002
  Solving linear dielectric/ionic screening model
        iter                  A_solv                     rms
   LPB:       -0.363068940653268E+00   0.606501386023939E+00
   LPB:    0  -0.363047610198073E+00   0.596431359682979E+00  -0.106148E-02   0.000000E+00   0.378621E+02  -0.401899E-01
   LPB:    1  -0.361308731404733E+00   0.107344424555539E+00   0.114862E-01   0.000000E+00   0.731179E+02  -0.765676E-18
   LPB:    2  -0.361084459972923E+00   0.259828916735839E-01   0.124855E-01   0.118652E+00   0.277944E+03   0.440532E-15
   LPB:    3  -0.361053278746987E+00   0.781974477272942E-02   0.184024E-01   0.943302E-01   0.230407E+03   0.504757E-15
   LPB:    4  -0.361045158068134E+00   0.910281604143215E-02   0.250215E-01   0.191540E+00   0.282403E+03   0.501189E-15
  Finished solving LPB equations
  A_corr:   -0.266896484677343     
 End minimization
 Ecorr=   1746.45835631261     
 A_corr= -0.266896484677343     
 Ecorr_band=  -1746.72525279729     
 End Solvation calculations
RMM:  32    -0.178499320991E+03    0.66044E-03   -0.19910E-04  3277   0.215E-02    0.336E-01
 Begin Solvation calculations
  rms_SCF =   0.101256436355287      tol =   1.012564363552874E-002
 Begin minimization
 Creating dielectric and ionic cavities
  area:      179.353124909969     
  volume:    819.419278945940     
  Acav:     9.416039057773397E-002
  Solving linear dielectric/ionic screening model
        iter                  A_solv                     rms
   LPB:       -0.362262714703226E+00   0.277577300795918E+00
   LPB:    0  -0.362258389781637E+00   0.274113632915999E+00  -0.477981E-03   0.000000E+00   0.378606E+02  -0.180966E-01
   LPB:    1  -0.361915709237360E+00   0.476495380708288E-01   0.112070E-01   0.000000E+00   0.721306E+02   0.231622E-18
   LPB:    2  -0.361870552162914E+00   0.125384783579401E-01   0.127389E-01   0.115930E+00   0.248036E+03   0.108176E-17
   LPB:    3  -0.361860891696207E+00   0.466318445657901E-02   0.244599E-01   0.111416E+00   0.146872E+03   0.626860E-17
   LPB:    4  -0.361852722884142E+00   0.616103484131563E-02   0.417829E-01   0.495013E+00   0.148026E+03   0.107885E-17
  Finished solving LPB equations
  A_corr:   -0.267692332306408     
 End minimization
 Ecorr=   1746.26093190395     
 A_corr= -0.267692332306408     
 Ecorr_band=  -1746.52862423626     
 End Solvation calculations
RMM:  33    -0.178499075797E+03    0.24519E-03   -0.42567E-05  2614   0.723E-03    0.286E-01
 Begin Solvation calculations
  rms_SCF =   0.101256436355287      tol =   1.012564363552874E-002
 Begin minimization
 Creating dielectric and ionic cavities
  area:      179.381287958626     
  volume:    819.457961192590     
  Acav:     9.417517617827849E-002
  Solving linear dielectric/ionic screening model
        iter                  A_solv                     rms
   LPB:       -0.365997709174326E+00   0.635711964561226E+00
   LPB:    0  -0.365961948644444E+00   0.622561952061878E+00  -0.137446E-02   0.000000E+00   0.378588E+02  -0.520356E-01
   LPB:    1  -0.364228991488573E+00   0.104623389107943E+00   0.110512E-01   0.000000E+00   0.722451E+02   0.156028E-17
   LPB:    2  -0.364008378651189E+00   0.242743853318364E-01   0.125852E-01   0.111788E+00   0.253002E+03  -0.404161E-15
   LPB:    3  -0.363979200292862E+00   0.763858979336451E-02   0.196397E-01   0.847532E-01   0.195641E+03  -0.432673E-15
   LPB:    4  -0.363966780003963E+00   0.965714020939183E-02   0.320134E-01   0.261140E+00   0.177174E+03  -0.437624E-15
  Finished solving LPB equations
  A_corr:   -0.269791603825685     
 End minimization
 Ecorr=   1745.81029967860     
 A_corr= -0.269791603825685     
 Ecorr_band=  -1746.08009128243     
 End Solvation calculations
RMM:  34    -0.178498610251E+03    0.46555E-03   -0.29126E-04  3661   0.220E-02    0.247E-01
 Begin Solvation calculations
  rms_SCF =   0.101256436355287      tol =   1.012564363552874E-002
 Begin minimization
 Creating dielectric and ionic cavities
  area:      179.420765871419     
  volume:    819.451963461811     
  Acav:     9.419590208249491E-002
  Solving linear dielectric/ionic screening model
        iter                  A_solv                     rms
   LPB:       -0.364377577375669E+00   0.106348989243583E+00
   LPB:    0  -0.364361013778712E+00   0.836361245836073E-01  -0.935421E-03   0.000000E+00   0.378591E+02  -0.354142E-01
   LPB:    1  -0.364296752856498E+00   0.220795955922888E-01   0.113946E-01   0.000000E+00   0.128875E+03   0.501882E-18
   LPB:    2  -0.364289976078664E+00   0.832607717086974E-02   0.136920E-01   0.877626E-01   0.163530E+03   0.934360E-16
   LPB:    3  -0.364284133778677E+00   0.586790683875841E-02   0.370413E-01   0.318669E+00   0.139529E+03   0.666348E-16
   LPB:    4  -0.364276046354602E+00   0.848972905330531E-02   0.506611E-01   0.101213E+01   0.172359E+03   0.602915E-16
  Finished solving LPB equations
  A_corr:   -0.270080144272107     
 End minimization
 Ecorr=   1745.65762287516     
 A_corr= -0.270080144272107     
 Ecorr_band=  -1745.92770301943     
 End Solvation calculations
RMM:  35    -0.178498719269E+03   -0.10902E-03   -0.89136E-05  3015   0.251E-02    0.206E-01
 Begin Solvation calculations
  rms_SCF =   0.101256436355287      tol =   1.012564363552874E-002
 Begin minimization
 Creating dielectric and ionic cavities
  area:      179.406356641497     
  volume:    819.464280308716     
  Acav:     9.418833723678588E-002
  Solving linear dielectric/ionic screening model
        iter                  A_solv                     rms
   LPB:       -0.363915823745441E+00   0.107141894297657E+00
   LPB:    0  -0.363906232999988E+00   0.985587395567940E-01  -0.711802E-03   0.000000E+00   0.378585E+02  -0.269478E-01
   LPB:    1  -0.363788137783501E+00   0.230567850303160E-01   0.136346E-01   0.000000E+00   0.127878E+03  -0.244503E-18
   LPB:    2  -0.363776698375307E+00   0.129257411177748E-01   0.131132E-01   0.100717E+00   0.307505E+03   0.201448E-19
   LPB:    3  -0.363772959924503E+00   0.597628712350498E-02   0.195711E-01   0.218969E+00   0.141368E+03  -0.414840E-16
   LPB:    4  -0.363770409529339E+00   0.531592992402964E-02   0.337728E-01   0.395334E+00   0.754196E+03  -0.796786E-16
  Finished solving LPB equations
  A_corr:   -0.269582072292553     
 End minimization
 Ecorr=   1745.75695986285     
 A_corr= -0.269582072292553     
 Ecorr_band=  -1746.02654193514     
 End Solvation calculations
RMM:  36    -0.178498655449E+03    0.63820E-04   -0.68376E-05  2996   0.121E-02    0.407E-02
 Begin Solvation calculations
  rms_SCF =   5.236986397078022E-002 tol =   5.236986397078021E-003
 Begin minimization
 Creating dielectric and ionic cavities
  area:      179.355443911707     
  volume:    819.489965502152     
  Acav:     9.416160805364625E-002
  Solving linear dielectric/ionic screening model
        iter                  A_solv                     rms
   LPB:       -0.364259057472025E+00   0.162059806675491E+00
   LPB:    0  -0.364252719575720E+00   0.154172013392115E+00  -0.578646E-03   0.000000E+00   0.378573E+02  -0.219060E-01
   LPB:    1  -0.364146277464223E+00   0.240751802870798E-01   0.105979E-01   0.000000E+00   0.773103E+02   0.210085E-18
   LPB:    2  -0.364134306024747E+00   0.655522847819095E-02   0.127909E-01   0.931862E-01   0.227294E+03   0.262987E-15
   LPB:    3  -0.364132129435772E+00   0.210834625594626E-02   0.209796E-01   0.110850E+00   0.163574E+03   0.288155E-15
   LPB:    4  -0.364130793847999E+00   0.278547225768534E-02   0.421983E-01   0.305069E+00   0.159921E+03   0.294129E-15
  Finished solving LPB equations
  A_corr:   -0.269969185794352     
 End minimization
 Ecorr=   1745.58156261849     
 A_corr= -0.269969185794352     
 Ecorr_band=  -1745.85153180429     
 End Solvation calculations
RMM:  37    -0.178498730889E+03   -0.75440E-04   -0.27412E-05  2345   0.150E-02    0.624E-02
 Begin Solvation calculations
  rms_SCF =   5.236986397078022E-002 tol =   5.236986397078021E-003
 Begin minimization
 Creating dielectric and ionic cavities
  area:      179.359998155054     
  volume:    819.490702713130     
  Acav:     9.416399903140345E-002
  Solving linear dielectric/ionic screening model
        iter                  A_solv                     rms
   LPB:       -0.364304363271748E+00   0.843709206315955E-01
   LPB:    0  -0.364289033757847E+00   0.496199943568310E-01  -0.899921E-03   0.000000E+00   0.378573E+02  -0.340686E-01
   LPB:    1  -0.364229214317390E+00   0.216147353268422E-01   0.123282E-01   0.000000E+00   0.221671E+03  -0.104095E-17
   LPB:    2  -0.364224936968089E+00   0.817449850827019E-02   0.141922E-01   0.621127E-01   0.904481E+02   0.144714E-16
   LPB:    3  -0.364223001093404E+00   0.199497646687801E-02   0.196604E-01   0.326709E+00   0.334002E+03   0.262415E-16
   LPB:    4  -0.364221802507100E+00   0.268459602147127E-02   0.380612E-01   0.319817E+00   0.580450E+03   0.285524E-16
  Finished solving LPB equations
  A_corr:   -0.270057803475696     
 End minimization
 Ecorr=   1745.48153543326     
 A_corr= -0.270057803475696     
 Ecorr_band=  -1745.75159323674     
 End Solvation calculations
RMM:  38    -0.178498873962E+03   -0.14307E-03   -0.30632E-05  2436   0.716E-03    0.374E-02
 Begin Solvation calculations
  rms_SCF =   5.236986397078022E-002 tol =   5.236986397078021E-003
 Begin minimization
 Creating dielectric and ionic cavities
  area:      179.362844112061     
  volume:    819.492381725313     
  Acav:     9.416549315883221E-002
  Solving linear dielectric/ionic screening model
        iter                  A_solv                     rms
   LPB:       -0.364722894450025E+00   0.119866111212658E+00
   LPB:    0  -0.364715679439974E+00   0.106515954987984E+00  -0.617390E-03   0.000000E+00   0.378572E+02  -0.233726E-01
   LPB:    1  -0.364662207186207E+00   0.174307418665500E-01   0.105740E-01   0.000000E+00   0.775420E+02   0.156215E-17
   LPB:    2  -0.364656634675570E+00   0.479976280434256E-02   0.126031E-01   0.874349E-01   0.192096E+03  -0.126767E-15
   LPB:    3  -0.364655598993006E+00   0.213480803251076E-02   0.211435E-01   0.110784E+00   0.151974E+03  -0.115070E-15
   LPB:    4  -0.364654799724978E+00   0.305410428988536E-02   0.448969E-01   0.363434E+00   0.818827E+02  -0.114787E-15
  Finished solving LPB equations
  A_corr:   -0.270489306566146     
 End minimization
 Ecorr=   1745.28421397959     
 A_corr= -0.270489306566146     
 Ecorr_band=  -1745.55470328615     
 End Solvation calculations
RMM:  39    -0.178498926933E+03   -0.52972E-04   -0.97914E-06  2158   0.607E-03    0.311E-02
 Begin Solvation calculations
  rms_SCF =   4.781699201971960E-002 tol =   4.781699201971960E-003
 Begin minimization
 Creating dielectric and ionic cavities
  area:      179.383686958712     
  volume:    819.497857440092     
  Acav:     9.417643565332384E-002
  Solving linear dielectric/ionic screening model
        iter                  A_solv                     rms
   LPB:       -0.366216973614644E+00   0.294491269096262E+00
   LPB:    0  -0.366185219984112E+00   0.270767603259449E+00  -0.129521E-02   0.000000E+00   0.378569E+02  -0.490325E-01
   LPB:    1  -0.365857141218185E+00   0.432967002227830E-01   0.106295E-01   0.000000E+00   0.748943E+02   0.342646E-17
   LPB:    2  -0.365820971897760E+00   0.106239090735878E-01   0.125257E-01   0.935563E-01   0.212548E+03   0.455808E-15
   LPB:    3  -0.365816615646479E+00   0.381180668639311E-02   0.179976E-01   0.838220E-01   0.186302E+03   0.487408E-15
   LPB:    4  -0.365815142083933E+00   0.353623795071519E-02   0.302234E-01   0.201432E+00   0.102172E+03   0.502005E-15
  Finished solving LPB equations
  A_corr:   -0.271638706430609     
 End minimization
 Ecorr=   1744.96540863879     
 A_corr= -0.271638706430609     
 Ecorr_band=  -1745.23704734522     
 End Solvation calculations
RMM:  40    -0.178498991015E+03   -0.64082E-04   -0.20306E-05  2301   0.525E-03    0.330E-02
 Begin Solvation calculations
  rms_SCF =   4.597602519058947E-002 tol =   4.597602519058947E-003
 Begin minimization
 Creating dielectric and ionic cavities
  area:      179.383688708228     
  volume:    819.488322689742     
  Acav:     9.417643657181979E-002
  Solving linear dielectric/ionic screening model
        iter                  A_solv                     rms
   LPB:       -0.365838385876485E+00   0.578658746240434E-01
   LPB:    0  -0.365834544790768E+00   0.451239302577768E-01  -0.450471E-03   0.000000E+00   0.378574E+02  -0.170536E-01
   LPB:    1  -0.365801955219432E+00   0.561110684616155E-02   0.141528E-01   0.000000E+00   0.133650E+03  -0.156716E-18
   LPB:    2  -0.365799226026127E+00   0.526222709533820E-02   0.186957E-01   0.633952E-01   0.373857E+03   0.138841E-16
   LPB:    3  -0.365798516574521E+00   0.552482195323500E-02   0.177363E-01   0.274010E+00   0.149082E+03   0.135472E-16
   LPB:    4  -0.365797854066910E+00   0.251686889745317E-02   0.288087E-01   0.574918E+00   0.106199E+03   0.124598E-16
  Finished solving LPB equations
  A_corr:   -0.271621417495090     
 End minimization
 Ecorr=   1744.84934628798     
 A_corr= -0.271621417495090     
 Ecorr_band=  -1745.12096770547     
 End Solvation calculations
RMM:  41    -0.178499031184E+03   -0.40168E-04   -0.11668E-05  2175   0.450E-03    0.527E-03
 Begin Solvation calculations
  rms_SCF =   4.303248664370448E-003 tol =   4.303248664370448E-004
 Begin minimization
 Creating dielectric and ionic cavities
  area:      179.383917251294     
  volume:    819.480357571674     
  Acav:     9.417655655692948E-002
  Solving linear dielectric/ionic screening model
        iter                  A_solv                     rms
   LPB:       -0.365860599042707E+00   0.415817141575781E-01
   LPB:    0  -0.365858710430262E+00   0.301682935075565E-01  -0.315870E-03   0.000000E+00   0.378578E+02  -0.119581E-01
   LPB:    1  -0.365846156512436E+00   0.396834381962830E-02   0.137485E-01   0.000000E+00   0.107456E+03  -0.644364E-18
   LPB:    2  -0.365845352056740E+00   0.296980567602011E-02   0.193863E-01   0.454448E-01   0.235689E+03  -0.163802E-15
   LPB:    3  -0.365844900988759E+00   0.372978055844375E-02   0.313749E-01   0.346459E+00   0.826175E+02  -0.155612E-15
   LPB:    4  -0.365844342087231E+00   0.328322756521192E-02   0.330744E-01   0.117539E+01   0.104075E+03  -0.173789E-15
   LPB:    5  -0.365843863556108E+00   0.372444101442632E-02   0.283166E-01   0.100006E+01   0.106757E+03  -0.195278E-15
   LPB:    6  -0.365843449725700E+00   0.252331173799598E-02   0.265156E-01   0.923533E+00   0.670488E+02  -0.213936E-15
   LPB:    7  -0.365843047790230E+00   0.131340555196281E-02   0.312725E-01   0.823516E+00   0.194085E+03  -0.236078E-15
   LPB:    8  -0.365842739113377E+00   0.835866978967409E-03   0.354359E-01   0.677746E+00   0.111851E+03  -0.258872E-15
   LPB:    9  -0.365842531021170E+00   0.562715400144195E-03   0.364232E-01   0.655870E+00   0.248686E+03  -0.267276E-15
   LPB:   10  -0.365842386991498E+00   0.525285006006116E-03   0.354916E-01   0.710312E+00   0.300195E+03  -0.274628E-15
   LPB:   11  -0.365842280777617E+00   0.384066914043073E-03   0.364648E-01   0.717762E+00   0.389875E+03  -0.279551E-15
  Finished solving LPB equations
  A_corr:   -0.271665724220688     
 End minimization
 Ecorr=   1744.54393752912     
 A_corr= -0.271665724220688     
 Ecorr_band=  -1744.81560325334     
 End Solvation calculations
RMM:  42    -0.178499065154E+03   -0.33970E-04   -0.10813E-05  2158   0.410E-03    0.303E-02
 Begin Solvation calculations
  rms_SCF =   4.303248664370448E-003 tol =   4.303248664370448E-004
 Begin minimization
 Creating dielectric and ionic cavities
  area:      179.392083585684     
  volume:    819.470910135193     
  Acav:     9.418084388248396E-002
  Solving linear dielectric/ionic screening model
        iter                  A_solv                     rms
   LPB:       -0.366346741825009E+00   0.834351733364657E-01
   LPB:    0  -0.366341123182169E+00   0.652045007806031E-01  -0.544817E-03   0.000000E+00   0.378582E+02  -0.206258E-01
   LPB:    1  -0.366319916813631E+00   0.110148933372863E-01   0.105241E-01   0.000000E+00   0.725083E+02   0.114087E-18
   LPB:    2  -0.366317589895117E+00   0.364011072661622E-02   0.132332E-01   0.872638E-01   0.169367E+03  -0.151819E-15
   LPB:    3  -0.366317258358032E+00   0.176265813112376E-02   0.170893E-01   0.110329E+00   0.187489E+03  -0.186331E-15
   LPB:    4  -0.366317146371977E+00   0.912911977017073E-03   0.230710E-01   0.250202E+00   0.129962E+03  -0.197114E-15
   LPB:    5  -0.366317089333024E+00   0.464689097564007E-03   0.249463E-01   0.471049E+00   0.528578E+03  -0.207372E-15
   LPB:    6  -0.366317046789779E+00   0.298725160962310E-03   0.361782E-01   0.514303E+00   0.277260E+03  -0.205876E-15
  Finished solving LPB equations
  A_corr:   -0.272136202907295     
 End minimization
 Ecorr=   1744.40001803123     
 A_corr= -0.272136202907295     
 Ecorr_band=  -1744.67215423414     
 End Solvation calculations
RMM:  43    -0.178499073855E+03   -0.87008E-05   -0.46141E-06  1600   0.263E-03
 Begin Solvation calculations
  rms_SCF =   4.303248664370448E-003 tol =   4.303248664370448E-004
 Begin minimization
 Creating dielectric and ionic cavities
  area:      179.396781964984     
  volume:    819.469641957728     
  Acav:     9.418331053161680E-002
  Solving linear dielectric/ionic screening model
        iter                  A_solv                     rms
   LPB:       -0.366653787353633E+00   0.681852455421072E-01
   LPB:    0  -0.366650006968992E+00   0.533193720932625E-01  -0.446892E-03   0.000000E+00   0.378583E+02  -0.169186E-01
   LPB:    1  -0.366636899113932E+00   0.847013496361080E-02   0.986033E-02   0.000000E+00   0.760527E+02   0.846238E-18
   LPB:    2  -0.366635691193614E+00   0.250977670380086E-02   0.132843E-01   0.684004E-01   0.124714E+03   0.106809E-15
   LPB:    3  -0.366635532821180E+00   0.119370645461678E-02   0.170006E-01   0.102451E+00   0.189781E+03   0.134675E-15
   LPB:    4  -0.366635481301148E+00   0.635487100664753E-03   0.241305E-01   0.229190E+00   0.937982E+02   0.132359E-15
   LPB:    5  -0.366635441648065E+00   0.415380284817570E-03   0.306455E-01   0.606039E+00   0.234994E+03   0.125334E-15
  Finished solving LPB equations
  A_corr:   -0.272452131116448     
 End minimization
 Ecorr=   1744.28256109604     
 A_corr= -0.272452131116448     
 Ecorr_band=  -1744.55501322716     
 End Solvation calculations
   1 F= -.17849907E+03 E0= -.17847769E+03  d E =-.178499E+03
quench:  g(F)=  0.000E+00 g(S)=  0.000E+00 dE (1.order)= 0.000E+00
 bond charge predicted
       N       E                     dE             d eps       ncg     rms          rms(c)
 Begin Solvation calculations
  rms_SCF =   4.303248664370448E-003 tol =   4.303248664370448E-004
 Begin minimization
 Creating dielectric and ionic cavities
  area:      179.461736234326     
  volume:    819.537000998038     
  Acav:     9.421741152302114E-002
  Solving linear dielectric/ionic screening model
        iter                  A_solv                     rms
   LPB:       -0.376524954658154E+00   0.874338006408113E-02
   LPB:    0  -0.376524954307747E+00   0.878923906228007E-02   0.430268E-05   0.000000E+00   0.378551E+02   0.162878E-03
   LPB:    1  -0.367979899416960E+00   0.336648127537232E-02   0.159231E-01   0.000000E+00   0.820531E+06  -0.669084E-20
   LPB:    2  -0.367006035097555E+00   0.362877530378618E-02   0.276640E-01   0.655987E-01   0.203026E+06  -0.105196E-18
   LPB:    3  -0.366683939272674E+00   0.619143051807413E-02   0.325985E-01   0.280676E+00   0.402145E+05  -0.726547E-17
   LPB:    4  -0.366550683799133E+00   0.138145644156807E-01   0.344806E-01   0.391131E+00   0.627613E+04   0.651899E-17
   LPB:    5  -0.366491333224681E+00   0.280740466069271E-01   0.328045E-01   0.468147E+00   0.613997E+03   0.708682E-16
   LPB:    6  -0.366464668415178E+00   0.264455946441200E-01   0.223597E-01   0.659144E+00   0.200763E+03   0.136693E-16
   LPB:    7  -0.366444450052069E+00   0.157775081042284E-01   0.245787E-01   0.689788E+00   0.370092E+03   0.119516E-15
   LPB:    8  -0.366432567869313E+00   0.184728744878328E-01   0.264556E-01   0.545999E+00   0.269492E+03   0.225936E-15
   LPB:    9  -0.366424272694396E+00   0.830927601670940E-02   0.230009E-01   0.802975E+00   0.238590E+03   0.287744E-15
   LPB:   10  -0.366417317620213E+00   0.222102987526599E-02   0.350008E-01   0.550989E+00   0.107448E+04   0.268139E-15
   LPB:   11  -0.366412884820539E+00   0.123042386802040E-02   0.397571E-01   0.561098E+00   0.675192E+04   0.256877E-15
   LPB:   12  -0.366409955133303E+00   0.171467848099261E-02   0.403307E-01   0.651512E+00   0.434282E+04   0.264283E-15
   LPB:   13  -0.366408045991800E+00   0.215445097971282E-02   0.366867E-01   0.716382E+00   0.202129E+04   0.271441E-15
   LPB:   14  -0.366406754128443E+00   0.162653954945303E-02   0.326767E-01   0.759711E+00   0.136238E+04   0.281856E-15
   LPB:   15  -0.366405776189528E+00   0.914150285337359E-03   0.361236E-01   0.684766E+00   0.244237E+04   0.288010E-15
   LPB:   16  -0.366405056526865E+00   0.603189696117007E-03   0.389665E-01   0.682207E+00   0.432888E+04   0.291286E-15
   LPB:   17  -0.366404567226964E+00   0.690068834480378E-03   0.401142E-01   0.660449E+00   0.435084E+04   0.297296E-15
   LPB:   18  -0.366404199038397E+00   0.756035994900603E-03   0.391075E-01   0.771850E+00   0.246670E+04   0.303366E-15
   LPB:   19  -0.366403933782328E+00   0.581955601232511E-03   0.357388E-01   0.788344E+00   0.215629E+04   0.309206E-15
   LPB:   20  -0.366403728853271E+00   0.368393204531596E-03   0.385564E-01   0.716113E+00   0.325885E+04   0.313218E-15
  Finished solving LPB equations
  A_corr:   -0.272186317330250     
 End minimization
 Ecorr=   1744.21633442601     
 A_corr= -0.272186317330250     
 Ecorr_band=  -1744.48852074334     
 End Solvation calculations
DAV:   1    -0.178515885684E+03   -0.16821E-01   -0.71154E-01  3774   0.110E+00    0.119E+00
 Begin Solvation calculations
  rms_SCF =   4.303248664370448E-003 tol =   4.303248664370448E-004
 Begin minimization
 Creating dielectric and ionic cavities
  area:      179.773484097870     
  volume:    817.586022966880     
  Acav:     9.438107915138193E-002
  Solving linear dielectric/ionic screening model
        iter                  A_solv                     rms
   LPB:       -0.538241239597358E+00   0.556658855994830E+01
   LPB:    0  -0.513708451232974E+00   0.476967003617344E+01  -0.359586E-01   0.000000E+00   0.379466E+02  -0.136450E+01
   LPB:    1  -0.409287234269056E+00   0.668850031676857E+00   0.984475E-02   0.000000E+00   0.897893E+02   0.271276E-16
   LPB:    2  -0.397456749903002E+00   0.166595953258257E+00   0.139345E-01   0.800434E-01   0.305213E+03  -0.809066E-14
   LPB:    3  -0.395076112120507E+00   0.160829827137956E+00   0.232612E-01   0.120545E+00   0.376655E+03  -0.817456E-14
   LPB:    4  -0.394296768266828E+00   0.845113775276973E-01   0.201937E-01   0.377097E+00   0.156981E+03  -0.849158E-14
   LPB:    5  -0.393861417256621E+00   0.336062702952401E-01   0.268568E-01   0.420022E+00   0.464539E+03  -0.811785E-14
   LPB:    6  -0.393643972597143E+00   0.178902049981312E-01   0.320917E-01   0.417995E+00   0.443200E+03  -0.783407E-14
   LPB:    7  -0.393529643253954E+00   0.122776092520277E-01   0.323690E-01   0.521281E+00   0.688936E+03  -0.800649E-14
   LPB:    8  -0.393462619396735E+00   0.817210449934331E-02   0.337074E-01   0.562957E+00   0.667515E+03  -0.819595E-14
   LPB:    9  -0.393421708407105E+00   0.624156930977907E-02   0.355240E-01   0.579181E+00   0.687761E+03  -0.839115E-14
   LPB:   10  -0.393397628258958E+00   0.560965138364434E-02   0.346445E-01   0.603541E+00   0.713239E+03  -0.850843E-14
   LPB:   11  -0.393383048238193E+00   0.503547407840836E-02   0.339976E-01   0.617000E+00   0.755382E+03  -0.860168E-14
   LPB:   12  -0.393373563383024E+00   0.368362584113654E-02   0.338754E-01   0.652884E+00   0.626383E+03  -0.865798E-14
   LPB:   13  -0.393367264830377E+00   0.255739957161117E-02   0.351978E-01   0.639115E+00   0.915854E+03  -0.869604E-14
   LPB:   14  -0.393363208526195E+00   0.175246730878207E-02   0.358706E-01   0.631926E+00   0.823846E+03  -0.872851E-14
   LPB:   15  -0.393360618561768E+00   0.133612147555184E-02   0.367332E-01   0.623510E+00   0.105568E+04  -0.876037E-14
   LPB:   16  -0.393358917436813E+00   0.102809791433734E-02   0.369691E-01   0.652624E+00   0.119950E+04  -0.878162E-14
   LPB:   17  -0.393357819018993E+00   0.781379110558766E-03   0.376650E-01   0.633771E+00   0.996751E+03  -0.879511E-14
   LPB:   18  -0.393357111111195E+00   0.677556372168677E-03   0.375359E-01   0.646695E+00   0.156867E+04  -0.880365E-14
   LPB:   19  -0.393356654581538E+00   0.567063156107224E-03   0.377794E-01   0.640743E+00   0.944333E+03  -0.880959E-14
   LPB:   20  -0.393356358721284E+00   0.513532924409701E-03   0.375602E-01   0.651846E+00   0.179308E+04  -0.881860E-14
   LPB:   21  -0.393356164091261E+00   0.441795806016525E-03   0.369590E-01   0.668546E+00   0.104719E+04  -0.883185E-14
   LPB:   22  -0.393356032721807E+00   0.408036315291514E-03   0.371116E-01   0.672195E+00   0.166335E+04  -0.884229E-14
  Finished solving LPB equations
  A_corr:   -0.298974953570425     
 End minimization
 Ecorr=   1744.82318466932     
 A_corr= -0.298974953570425     
 Ecorr_band=  -1745.12215962289     
 End Solvation calculations
RMM:   2    -0.179014262969E+03   -0.49838E+00   -0.13384E-01  3700   0.455E-01    0.707E+00
 Begin Solvation calculations
  rms_SCF =   4.303248664370448E-003 tol =   4.303248664370448E-004
 Begin minimization
 Creating dielectric and ionic cavities
  area:      212.239481257340     
  volume:    819.785346437779     
  Acav:     0.111425727660103     
  Solving linear dielectric/ionic screening model
        iter                  A_solv                     rms
   LPB:       -0.511531907177238E+00   0.581500952458495E+01
   LPB:    0  -0.502629537714320E+00   0.556839288330454E+01   0.216906E-01   0.000000E+00   0.378435E+02   0.820849E+00
   LPB:    1  -0.392489884285743E+00   0.513091787818133E+00   0.905757E-02   0.000000E+00   0.856246E+02   0.654436E-16
   LPB:    2  -0.382788171319506E+00   0.139686925514979E+00   0.148589E-01   0.536944E-01   0.235680E+03  -0.305834E-14
   LPB:    3  -0.381230385795286E+00   0.120240430295479E+00   0.233049E-01   0.102376E+00   0.217893E+03  -0.212049E-14
   LPB:    4  -0.380714832870940E+00   0.715177662782139E-01   0.222456E-01   0.346712E+00   0.173629E+03  -0.128584E-14
   LPB:    5  -0.380427893796633E+00   0.314898251586064E-01   0.253704E-01   0.488015E+00   0.441200E+03  -0.459882E-15
   LPB:    6  -0.380262122820150E+00   0.184545957704723E-01   0.321056E-01   0.456526E+00   0.464575E+03  -0.249775E-15
   LPB:    7  -0.380164753469974E+00   0.136627732148104E-01   0.333302E-01   0.565792E+00   0.685108E+03  -0.264847E-15
   LPB:    8  -0.380100478643974E+00   0.787063637543378E-02   0.353968E-01   0.621574E+00   0.735155E+03  -0.434776E-15
   LPB:    9  -0.380059498557799E+00   0.586743276222031E-02   0.366042E-01   0.616545E+00   0.109580E+04  -0.445020E-15
   LPB:   10  -0.380033927690024E+00   0.598136174235285E-02   0.362551E-01   0.629991E+00   0.118658E+04  -0.494321E-15
   LPB:   11  -0.380017457289159E+00   0.545651323121565E-02   0.345706E-01   0.675494E+00   0.114881E+04  -0.525996E-15
   LPB:   12  -0.380006700372789E+00   0.400235641816559E-02   0.336658E-01   0.670659E+00   0.104559E+04  -0.546740E-15
   LPB:   13  -0.379999330471158E+00   0.271757817277663E-02   0.357777E-01   0.644688E+00   0.169188E+04  -0.568610E-15
   LPB:   14  -0.379994377947485E+00   0.184270742318552E-02   0.364309E-01   0.659946E+00   0.180848E+04  -0.585247E-15
   LPB:   15  -0.379991159823828E+00   0.141925659382651E-02   0.373878E-01   0.633164E+00   0.222760E+04  -0.606713E-15
   LPB:   16  -0.379989002189686E+00   0.110332657252016E-02   0.374500E-01   0.669349E+00   0.270002E+04  -0.618823E-15
   LPB:   17  -0.379987633955447E+00   0.867501140459243E-03   0.375484E-01   0.632475E+00   0.209911E+04  -0.629320E-15
   LPB:   18  -0.379986738803241E+00   0.698016018418202E-03   0.377728E-01   0.650351E+00   0.326319E+04  -0.633276E-15
   LPB:   19  -0.379986162769441E+00   0.607046787841681E-03   0.380505E-01   0.638808E+00   0.236049E+04  -0.636318E-15
   LPB:   20  -0.379985790294629E+00   0.541398026667974E-03   0.374524E-01   0.656946E+00   0.302651E+04  -0.630972E-15
   LPB:   21  -0.379985545521808E+00   0.481131189235168E-03   0.371238E-01   0.662969E+00   0.224364E+04  -0.625642E-15
   LPB:   22  -0.379985384124163E+00   0.433558284375772E-03   0.366336E-01   0.668202E+00   0.240566E+04  -0.628919E-15
   LPB:   23  -0.379985278005784E+00   0.383399264460045E-03   0.357668E-01   0.673431E+00   0.205126E+04  -0.628618E-15
  Finished solving LPB equations
  A_corr:   -0.268559550345681     
 End minimization
 Ecorr=   1743.01672791163     
 A_corr= -0.268559550345681     
 Ecorr_band=  -1743.28528746197     
 End Solvation calculations
RMM:   3    -0.178586007860E+03    0.42826E+00   -0.84580E-02  3708   0.484E-01    0.323E+00
 Begin Solvation calculations
  rms_SCF =   4.303248664370448E-003 tol =   4.303248664370448E-004
 Begin minimization
 Creating dielectric and ionic cavities
  area:      184.600931907606     
  volume:    819.341645002322     
  Acav:     9.691548925149307E-002
  Solving linear dielectric/ionic screening model
        iter                  A_solv                     rms
   LPB:       -0.389636913028780E+00   0.194208509013574E+01
   LPB:    0  -0.389085863610126E+00   0.188979254599944E+01   0.539505E-02   0.000000E+00   0.378643E+02   0.204280E+00
   LPB:    1  -0.376840001253545E+00   0.203641978570231E+00   0.898671E-02   0.000000E+00   0.839060E+02  -0.104513E-16
   LPB:    2  -0.375460694776332E+00   0.301458739690961E-01   0.167583E-01   0.604007E-01   0.155098E+03  -0.191634E-14
   LPB:    3  -0.375273620884772E+00   0.207322714805061E-01   0.235814E-01   0.963858E-01   0.446079E+03  -0.200515E-14
   LPB:    4  -0.375195731170841E+00   0.273316335753454E-01   0.280789E-01   0.349669E+00   0.344347E+03  -0.197735E-14
   LPB:    5  -0.375156064056660E+00   0.248355744167520E-01   0.261778E-01   0.546256E+00   0.194442E+03  -0.191991E-14
   LPB:    6  -0.375128361518182E+00   0.122847939495178E-01   0.281884E-01   0.648563E+00   0.248300E+03  -0.199040E-14
   LPB:    7  -0.375108450425682E+00   0.568092954679217E-02   0.343756E-01   0.589381E+00   0.723543E+03  -0.193370E-14
   LPB:    8  -0.375094979015224E+00   0.362587865672912E-02   0.351333E-01   0.661987E+00   0.178380E+04  -0.199020E-14
   LPB:    9  -0.375085740804057E+00   0.264272720295343E-02   0.367447E-01   0.655692E+00   0.180967E+04  -0.203278E-14
   LPB:   10  -0.375079526233731E+00   0.246302898729108E-02   0.383131E-01   0.645164E+00   0.239594E+04  -0.206093E-14
   LPB:   11  -0.375075662118230E+00   0.268642047388957E-02   0.356473E-01   0.668282E+00   0.184644E+04  -0.208068E-14
   LPB:   12  -0.375073271728756E+00   0.217367304441223E-02   0.325320E-01   0.677851E+00   0.139969E+04  -0.209348E-14
   LPB:   13  -0.375071642368393E+00   0.133443549973544E-02   0.342223E-01   0.647962E+00   0.180768E+04  -0.209797E-14
   LPB:   14  -0.375070555464879E+00   0.795672309993638E-03   0.363954E-01   0.627245E+00   0.291702E+04  -0.209997E-14
   LPB:   15  -0.375069861583300E+00   0.620307223959606E-03   0.381617E-01   0.608853E+00   0.373233E+04  -0.210424E-14
   LPB:   16  -0.375069391756169E+00   0.510276971671730E-03   0.378102E-01   0.683396E+00   0.388108E+04  -0.210959E-14
   LPB:   17  -0.375069098703908E+00   0.428987869675068E-03   0.368004E-01   0.640860E+00   0.372640E+04  -0.211452E-14
  Finished solving LPB equations
  A_corr:   -0.278153609452415     
 End minimization
 Ecorr=   1743.30530447714     
 A_corr= -0.278153609452415     
 Ecorr_band=  -1743.58345808659     
 End Solvation calculations
RMM:   4    -0.178512329247E+03    0.73679E-01   -0.21459E-02  3702   0.293E-01    0.748E-01
 Begin Solvation calculations
  rms_SCF =   4.303248664370448E-003 tol =   4.303248664370448E-004
 Begin minimization
 Creating dielectric and ionic cavities
  area:      180.428329109073     
  volume:    819.169199151490     
  Acav:     9.472487278226348E-002
  Solving linear dielectric/ionic screening model
        iter                  A_solv                     rms
   LPB:       -0.376187743822154E+00   0.207487957213259E+00
   LPB:    0  -0.376122888572737E+00   0.153223657810843E+00  -0.185066E-02   0.000000E+00   0.378723E+02  -0.700888E-01
   LPB:    1  -0.375981272953248E+00   0.288237869443205E-01   0.106955E-01   0.000000E+00   0.946698E+02  -0.274382E-17
   LPB:    2  -0.375958460217959E+00   0.106856250331579E-01   0.149979E-01   0.114878E+00   0.354397E+03   0.179865E-16
   LPB:    3  -0.375950664238365E+00   0.106216078875375E-01   0.255866E-01   0.200314E+00   0.226888E+03   0.199400E-16
   LPB:    4  -0.375946432989166E+00   0.809633172467434E-02   0.259078E-01   0.536019E+00   0.203191E+03   0.499064E-17
   LPB:    5  -0.375943309932350E+00   0.361018005821182E-02   0.277964E-01   0.687944E+00   0.381374E+03   0.735386E-18
   LPB:    6  -0.375940896101433E+00   0.113392536312048E-02   0.379864E-01   0.565572E+00   0.792566E+03  -0.405945E-16
   LPB:    7  -0.375939361467706E+00   0.115760669844803E-02   0.403805E-01   0.598073E+00   0.233729E+04  -0.670671E-16
   LPB:    8  -0.375938401968250E+00   0.143644257110027E-02   0.366679E-01   0.688534E+00   0.191010E+04  -0.773810E-16
   LPB:    9  -0.375937702980430E+00   0.104366776917582E-02   0.362989E-01   0.735898E+00   0.844470E+03  -0.862216E-16
   LPB:   10  -0.375937192236461E+00   0.612762825135441E-03   0.379859E-01   0.698240E+00   0.236529E+04  -0.829437E-16
   LPB:   11  -0.375936851204510E+00   0.469987071424719E-03   0.390626E-01   0.649312E+00   0.223561E+04  -0.810881E-16
   LPB:   12  -0.375936658202553E+00   0.535734706118437E-03   0.359856E-01   0.614326E+00   0.215746E+04  -0.783797E-16
   LPB:   13  -0.375936538486141E+00   0.545674808029002E-03   0.345623E-01   0.645829E+00   0.152054E+04  -0.778809E-16
   LPB:   14  -0.375936457541069E+00   0.339364028806272E-03   0.324557E-01   0.720027E+00   0.135560E+04  -0.774772E-16
  Finished solving LPB equations
  A_corr:   -0.281211584758805     
 End minimization
 Ecorr=   1743.45751259367     
 A_corr= -0.281211584758805     
 Ecorr_band=  -1743.73872417843     
 End Solvation calculations
RMM:   5    -0.178509323917E+03    0.30053E-02   -0.33459E-03  3708   0.116E-01    0.434E-01
 Begin Solvation calculations
  rms_SCF =   4.303248664370448E-003 tol =   4.303248664370448E-004
 Begin minimization
 Creating dielectric and ionic cavities
  area:      179.600937622918     
  volume:    819.240607694858     
  Acav:     9.429049225203186E-002
  Solving linear dielectric/ionic screening model
        iter                  A_solv                     rms
   LPB:       -0.377366678228670E+00   0.858668250817812E-01
   LPB:    0  -0.377363087374750E+00   0.698359875561839E-01  -0.435484E-03   0.000000E+00   0.378690E+02  -0.164913E-01
   LPB:    1  -0.377188283381094E+00   0.267302678592999E-01   0.155701E-01   0.000000E+00   0.229923E+03  -0.349595E-18
   LPB:    2  -0.377173737770117E+00   0.180447472862629E-01   0.189536E-01   0.683564E-01   0.103815E+03  -0.843843E-16
   LPB:    3  -0.377169402008699E+00   0.608202662827516E-02   0.158514E-01   0.356417E+00   0.234072E+03  -0.840302E-16
   LPB:    4  -0.377166784020201E+00   0.207900887504335E-02   0.256724E-01   0.372824E+00   0.488806E+03  -0.861516E-16
   LPB:    5  -0.377165424681718E+00   0.203149866732038E-02   0.320781E-01   0.415544E+00   0.508881E+03  -0.103200E-15
   LPB:    6  -0.377164616078822E+00   0.206998505550763E-02   0.317076E-01   0.601802E+00   0.223313E+03  -0.115842E-15
   LPB:    7  -0.377164109245913E+00   0.245570449474513E-02   0.308588E-01   0.644042E+00   0.585039E+03  -0.126012E-15
   LPB:    8  -0.377163780516121E+00   0.198392786465152E-02   0.281966E-01   0.709834E+00   0.128076E+03  -0.139374E-15
   LPB:    9  -0.377163523631078E+00   0.114407603776906E-02   0.308533E-01   0.714159E+00   0.568483E+03  -0.169317E-15
   LPB:   10  -0.377163328334582E+00   0.654366652639842E-03   0.345585E-01   0.678738E+00   0.314113E+03  -0.203958E-15
   LPB:   11  -0.377163193683522E+00   0.457294129881166E-03   0.348161E-01   0.684367E+00   0.108818E+04  -0.230660E-15
   LPB:   12  -0.377163100841368E+00   0.337652419521077E-03   0.356082E-01   0.674165E+00   0.770951E+03  -0.245843E-15
  Finished solving LPB equations
  A_corr:   -0.282872608589336     
 End minimization
 Ecorr=   1742.83938524854     
 A_corr= -0.282872608589336     
 Ecorr_band=  -1743.12225785713     
 End Solvation calculations
RMM:   6    -0.178508534670E+03    0.78925E-03   -0.13488E-03  3702   0.669E-02    0.246E-01
 Begin Solvation calculations
  rms_SCF =   4.303248664370448E-003 tol =   4.303248664370448E-004
 Begin minimization
 Creating dielectric and ionic cavities
  area:      179.350681192609     
  volume:    819.269171526862     
  Acav:     9.415910762611965E-002
  Solving linear dielectric/ionic screening model
        iter                  A_solv                     rms
   LPB:       -0.379257698176940E+00   0.126698507953367E+00
   LPB:    0  -0.379238890488636E+00   0.850664457840597E-01  -0.996663E-03   0.000000E+00   0.378677E+02  -0.377413E-01
   LPB:    1  -0.379078919220011E+00   0.341727530245085E-01   0.150433E-01   0.000000E+00   0.142108E+03   0.294746E-17
   LPB:    2  -0.379064637668514E+00   0.148065949650021E-01   0.149332E-01   0.899340E-01   0.125041E+03  -0.607075E-15
   LPB:    3  -0.379059598253284E+00   0.524611281267381E-02   0.180159E-01   0.292482E+00   0.332157E+03  -0.651570E-15
   LPB:    4  -0.379057568078422E+00   0.527378912819307E-02   0.238441E-01   0.304389E+00   0.213266E+03  -0.680113E-15
   LPB:    5  -0.379056585087941E+00   0.374034620737836E-02   0.221232E-01   0.521854E+00   0.293312E+03  -0.691005E-15
   LPB:    6  -0.379055905985203E+00   0.143322528086212E-02   0.301000E-01   0.507771E+00   0.169838E+03  -0.679918E-15
   LPB:    7  -0.379055480694054E+00   0.886538919753609E-03   0.350001E-01   0.538577E+00   0.902631E+03  -0.640807E-15
   LPB:    8  -0.379055180729710E+00   0.696275468015645E-03   0.358462E-01   0.688667E+00   0.496430E+03  -0.619120E-15
[...]
   LPB:    3  -0.450802461917547E+00   0.871277806827879E-02   0.234383E-01   0.120150E+00   0.327606E+03  -0.196078E-15
   LPB:    4  -0.450800142839960E+00   0.448004462255551E-02   0.206011E-01   0.381952E+00   0.159184E+03  -0.229941E-15
   LPB:    5  -0.450798853391946E+00   0.177118246824104E-02   0.267967E-01   0.427463E+00   0.480934E+03  -0.263001E-15
   LPB:    6  -0.450798189659634E+00   0.998775675839728E-03   0.322264E-01   0.428015E+00   0.467728E+03  -0.318309E-15
   LPB:    7  -0.450797834671390E+00   0.714373899559295E-03   0.325084E-01   0.530197E+00   0.662726E+03  -0.324131E-15
   LPB:    8  -0.450797625782901E+00   0.463741448060838E-03   0.337522E-01   0.566754E+00   0.639380E+03  -0.323043E-15
   LPB:    9  -0.450797498461912E+00   0.358730816817969E-03   0.354824E-01   0.579795E+00   0.728217E+03  -0.319247E-15
  Finished solving LPB equations
  A_corr:   -0.355067857556251     
 End minimization
 Ecorr=   1725.63077104389     
 A_corr= -0.355067857556251     
 Ecorr_band=  -1725.98583890144     
 End Solvation calculations
RMM:   2    -0.178529450471E+03   -0.26390E-02   -0.66424E-04  3698   0.360E-02    0.813E-01
 Begin Solvation calculations
  rms_SCF =   4.206769855488924E-003 tol =   4.206769855488924E-004
 Begin minimization
 Creating dielectric and ionic cavities
  area:      182.879477199397     
  volume:    821.502508328090     
  Acav:     9.601172552968358E-002
  Solving linear dielectric/ionic screening model
        iter                  A_solv                     rms
   LPB:       -0.450173960166050E+00   0.341130217584646E+00
   LPB:    0  -0.450127688046797E+00   0.318016068807743E+00   0.156546E-02   0.000000E+00   0.377630E+02   0.591164E-01
   LPB:    1  -0.449731196137911E+00   0.321006093481793E-01   0.932680E-02   0.000000E+00   0.882513E+02   0.741577E-18
   LPB:    2  -0.449692243114117E+00   0.918938205717589E-02   0.146123E-01   0.627077E-01   0.298056E+03  -0.450932E-16
   LPB:    3  -0.449683964858141E+00   0.920695824196238E-02   0.252234E-01   0.123116E+00   0.277153E+03  -0.386798E-16
   LPB:    4  -0.449680822383232E+00   0.591624862086416E-02   0.230005E-01   0.416293E+00   0.174526E+03  -0.310814E-16
   LPB:    5  -0.449678770315853E+00   0.253924460318613E-02   0.272663E-01   0.550847E+00   0.544385E+03  -0.124779E-16
   LPB:    6  -0.449677481492484E+00   0.147774884977459E-02   0.336480E-01   0.508943E+00   0.668731E+03  -0.630077E-16
   LPB:    7  -0.449676710839103E+00   0.122124508760330E-02   0.341069E-01   0.589905E+00   0.121082E+04  -0.851903E-16
   LPB:    8  -0.449676198523752E+00   0.794413242866600E-03   0.353711E-01   0.641021E+00   0.126857E+04  -0.106166E-15
   LPB:    9  -0.449675841725285E+00   0.586381021354502E-03   0.373851E-01   0.658923E+00   0.214582E+04  -0.120656E-15
   LPB:   10  -0.449675604744033E+00   0.559014966149516E-03   0.365323E-01   0.679694E+00   0.226839E+04  -0.129953E-15
   LPB:   11  -0.449675457839356E+00   0.499777994164770E-03   0.340819E-01   0.664468E+00   0.183733E+04  -0.136075E-15
   LPB:   12  -0.449675363789807E+00   0.378996892285681E-03   0.337730E-01   0.646065E+00   0.160562E+04  -0.140040E-15
  Finished solving LPB equations
  A_corr:   -0.353663638260123     
 End minimization
 Ecorr=   1725.55633790812     
 A_corr= -0.353663638260123     
 Ecorr_band=  -1725.91000154638     
 End Solvation calculations
RMM:   3    -0.178527149475E+03    0.23010E-02   -0.49478E-04  3694   0.541E-02    0.117E-01
 Begin Solvation calculations
  rms_SCF =   4.206769855488924E-003 tol =   4.206769855488924E-004
 Begin minimization
 Creating dielectric and ionic cavities
  area:      182.342967868134     
  volume:    821.487877005236     
  Acav:     9.573005813077046E-002
  Solving linear dielectric/ionic screening model
        iter                  A_solv                     rms
   LPB:       -0.449589889728465E+00   0.831810740881154E-01
   LPB:    0  -0.449589681874285E+00   0.826701380690914E-01   0.104920E-03   0.000000E+00   0.377636E+02   0.396215E-02
   LPB:    1  -0.449555522884149E+00   0.115783699715755E-01   0.987290E-02   0.000000E+00   0.102171E+03   0.347932E-20
   LPB:    2  -0.449550752006677E+00   0.254084380594474E-02   0.151753E-01   0.908660E-01   0.492429E+03   0.191101E-17
   LPB:    3  -0.449548912034238E+00   0.214529165258097E-02   0.320284E-01   0.182732E+00   0.403432E+03   0.973057E-17
   LPB:    4  -0.449547710897184E+00   0.913545899305872E-03   0.410299E-01   0.509584E+00   0.186169E+04   0.148108E-16
   LPB:    5  -0.449547012531419E+00   0.153486137350240E-02   0.374468E-01   0.637054E+00   0.164377E+04   0.156633E-16
   LPB:    6  -0.449546623733620E+00   0.180105540527839E-02   0.303307E-01   0.687342E+00   0.483486E+03   0.169606E-16
   LPB:    7  -0.449546397015717E+00   0.153508580349013E-02   0.286384E-01   0.617584E+00   0.289385E+03  -0.372569E-17
   LPB:    8  -0.449546268377539E+00   0.119104079906406E-02   0.269192E-01   0.603628E+00   0.296062E+03  -0.730145E-17
   LPB:    9  -0.449546170666857E+00   0.598586435412189E-03   0.303463E-01   0.673796E+00   0.434702E+03   0.387681E-17
   LPB:   10  -0.449546100954975E+00   0.258583226741206E-03   0.355632E-01   0.608794E+00   0.127979E+04   0.141518E-16
  Finished solving LPB equations
  A_corr:   -0.353816042824205     
 End minimization
 Ecorr=   1725.57368723017     
 A_corr= -0.353816042824205     
 Ecorr_band=  -1725.92750327300     
 End Solvation calculations
RMM:   4    -0.178526815893E+03    0.33358E-03   -0.15468E-04  3305   0.398E-02    0.369E-02
 Begin Solvation calculations
  rms_SCF =   4.206769855488924E-003 tol =   4.206769855488924E-004
 Begin minimization
 Creating dielectric and ionic cavities
  area:      182.340773637815     
  volume:    821.476908067763     
  Acav:     9.572890615985281E-002
  Solving linear dielectric/ionic screening model
        iter                  A_solv                     rms
   LPB:       -0.449782490446365E+00   0.325840129468464E-01
   LPB:    0  -0.449781349780522E+00   0.257220794949029E-01  -0.245784E-03   0.000000E+00   0.377642E+02  -0.928184E-02
   LPB:    1  -0.449777905519801E+00   0.490123190426135E-02   0.105483E-01   0.000000E+00   0.841135E+02  -0.307498E-18
   LPB:    2  -0.449777293980993E+00   0.144238915353408E-02   0.151947E-01   0.123259E+00   0.219379E+03   0.164616E-16
   LPB:    3  -0.449777168651281E+00   0.135318978495816E-02   0.233910E-01   0.133129E+00   0.226770E+03   0.148501E-16
   LPB:    4  -0.449777103099799E+00   0.850775718796757E-03   0.246030E-01   0.497266E+00   0.183734E+03   0.231885E-16
   LPB:    5  -0.449777053393182E+00   0.402376230205174E-03   0.308040E-01   0.605637E+00   0.568573E+03   0.301694E-16
  Finished solving LPB equations
  A_corr:   -0.354048147233329     
 End minimization
 Ecorr=   1725.57286935936     
 A_corr= -0.354048147233329     
 Ecorr_band=  -1725.92691750659     
 End Solvation calculations
RMM:   5    -0.178526820687E+03   -0.47942E-05   -0.21342E-05  2222   0.122E-02
 Begin Solvation calculations
  rms_SCF =   4.206769855488924E-003 tol =   4.206769855488924E-004
 Begin minimization
 Creating dielectric and ionic cavities
  area:      182.340408840654     
  volume:    821.480707544314     
  Acav:     9.572871464134311E-002
  Solving linear dielectric/ionic screening model
        iter                  A_solv                     rms
   LPB:       -0.449808976306613E+00   0.137600320899082E-01
   LPB:    0  -0.449808975862414E+00   0.137301431953729E-01  -0.485026E-05   0.000000E+00   0.377640E+02  -0.183165E-03
   LPB:    1  -0.449808067794341E+00   0.202054522647966E-02   0.969776E-02   0.000000E+00   0.101762E+03  -0.105428E-19
   LPB:    2  -0.449807951929543E+00   0.374282090570359E-03   0.149581E-01   0.827232E-01   0.347373E+03   0.261921E-17
   LPB:    3  -0.449807911110127E+00   0.239753794911063E-03   0.329489E-01   0.159938E+00   0.697096E+03   0.106656E-17
   LPB:    4  -0.449807878840488E+00   0.348781300954616E-03   0.433614E-01   0.600710E+00   0.587614E+03   0.643180E-18
  Finished solving LPB equations
  A_corr:   -0.354079164199145     
 End minimization
 Ecorr=   1725.54969411387     
 A_corr= -0.354079164199145     
 Ecorr_band=  -1725.90377327807     
 End Solvation calculations
 239 F= -.17852682E+03 E0= -.17850438E+03  d E =-.565621E-04
quench:  g(F)=  0.000E+00 g(S)=  0.000E+00 dE (1.order)= 0.000E+00
 bond charge predicted
       N       E                     dE             d eps       ncg     rms          rms(c)
 Begin Solvation calculations
  rms_SCF =   4.206769855488924E-003 tol =   4.206769855488924E-004
 Begin minimization
 Creating dielectric and ionic cavities
  area:      182.348025375198     
  volume:    821.487328725783     
  Acav:     9.573271332197872E-002
  Solving linear dielectric/ionic screening model
        iter                  A_solv                     rms
   LPB:       -0.449917359894445E+00   0.949097628345608E-03
   LPB:    0  -0.449917359886942E+00   0.947601676007413E-03   0.630395E-06   0.000000E+00   0.377637E+02   0.238060E-04
   LPB:    1  -0.449825943766782E+00   0.289163962795414E-03   0.155862E-01   0.000000E+00   0.835579E+06  -0.187859E-20
   LPB:    2  -0.449817093483770E+00   0.265688955138753E-03   0.267804E-01   0.563454E-01   0.281085E+06  -0.409851E-19
   LPB:    3  -0.449814388336614E+00   0.504485559336846E-03   0.321787E-01   0.254380E+00   0.654829E+05  -0.250738E-18
   LPB:    4  -0.449813252723759E+00   0.120204152456050E-02   0.349685E-01   0.386304E+00   0.789368E+04   0.514134E-17
   LPB:    5  -0.449812728514523E+00   0.279350738230466E-02   0.333087E-01   0.484613E+00   0.795837E+03   0.734522E-17
   LPB:    6  -0.449812493896127E+00   0.270752697976259E-02   0.214335E-01   0.695540E+00   0.203345E+03   0.203799E-16
   LPB:    7  -0.449812302679471E+00   0.134308074222295E-02   0.243589E-01   0.717131E+00   0.401984E+03   0.232489E-16
   LPB:    8  -0.449812182525173E+00   0.157590265863146E-02   0.293920E-01   0.520766E+00   0.341191E+03   0.326071E-16
   LPB:    9  -0.449812106966050E+00   0.910104564544497E-03   0.237984E-01   0.776655E+00   0.212190E+03   0.450455E-16
   LPB:   10  -0.449812043883964E+00   0.347013343297439E-03   0.331694E-01   0.599005E+00   0.672274E+03   0.599898E-16
  Finished solving LPB equations
  A_corr:   -0.354079330561986     
 End minimization
 Ecorr=   1725.55291805532     
 A_corr= -0.354079330561986     
 Ecorr_band=  -1725.90699738588     
 End Solvation calculations
DAV:   1    -0.178526864288E+03   -0.48395E-04   -0.61354E-03  3798   0.112E-01    0.628E-02
 Begin Solvation calculations
  rms_SCF =   4.206769855488924E-003 tol =   4.206769855488924E-004
 Begin minimization
 Creating dielectric and ionic cavities
  area:      182.358053005539     
  volume:    821.594827050906     
  Acav:     9.573797782790809E-002
  Solving linear dielectric/ionic screening model
        iter                  A_solv                     rms
   LPB:       -0.448895804992608E+00   0.309435506440066E+00
   LPB:    0  -0.448834418564511E+00   0.274482034528032E+00   0.180320E-02   0.000000E+00   0.377586E+02   0.680862E-01
   LPB:    1  -0.448523268348491E+00   0.313766220144606E-01   0.951921E-02   0.000000E+00   0.876460E+02  -0.142009E-17
   LPB:    2  -0.448491918474639E+00   0.862402904124646E-02   0.141955E-01   0.675640E-01   0.285407E+03   0.713477E-15
   LPB:    3  -0.448485953522767E+00   0.814711917035092E-02   0.233299E-01   0.115774E+00   0.307960E+03   0.764453E-15
   LPB:    4  -0.448483946854702E+00   0.409341392438008E-02   0.205744E-01   0.381464E+00   0.160800E+03   0.763071E-15
   LPB:    5  -0.448482829179021E+00   0.162636027942367E-02   0.269799E-01   0.424745E+00   0.490363E+03   0.763120E-15
   LPB:    6  -0.448482253252483E+00   0.952692924161130E-03   0.321758E-01   0.432077E+00   0.472038E+03   0.707733E-15
   LPB:    7  -0.448481940940402E+00   0.673674412554754E-03   0.326142E-01   0.534988E+00   0.639658E+03   0.685115E-15
   LPB:    8  -0.448481755287921E+00   0.428565052296609E-03   0.340279E-01   0.569750E+00   0.645323E+03   0.676288E-15
   LPB:    9  -0.448481641311606E+00   0.331248212397900E-03   0.357274E-01   0.584718E+00   0.729598E+03   0.674035E-15
  Finished solving LPB equations
  A_corr:   -0.352743663483698     
 End minimization
 Ecorr=   1725.48621904927     
 A_corr= -0.352743663483698     
 Ecorr_band=  -1725.83896271275     
 End Solvation calculations
RMM:   2    -0.178529020654E+03   -0.21564E-02   -0.59231E-04  3692   0.331E-02    0.684E-01
 Begin Solvation calculations
  rms_SCF =   4.206769855488924E-003 tol =   4.206769855488924E-004
 Begin minimization
 Creating dielectric and ionic cavities
  area:      182.787335458980     
  volume:    821.517224450451     
  Acav:     9.596335111596463E-002
  Solving linear dielectric/ionic screening model
        iter                  A_solv                     rms
   LPB:       -0.449820879348899E+00   0.312869069929356E+00
   LPB:    0  -0.449785731231243E+00   0.293986067549119E+00  -0.136439E-02   0.000000E+00   0.377623E+02  -0.515223E-01
   LPB:    1  -0.449456525228203E+00   0.284924993380535E-01   0.924249E-02   0.000000E+00   0.875791E+02  -0.236981E-17
   LPB:    2  -0.449425478500388E+00   0.817124124334296E-02   0.146460E-01   0.595138E-01   0.282431E+03  -0.132415E-15
   LPB:    3  -0.449419389032369E+00   0.786906954562124E-02   0.246836E-01   0.116379E+00   0.252716E+03  -0.205386E-15
   LPB:    4  -0.449417099209420E+00   0.500854207987270E-02   0.230779E-01   0.402194E+00   0.174397E+03  -0.223383E-15
   LPB:    5  -0.449415611967000E+00   0.215867956865224E-02   0.271739E-01   0.551600E+00   0.528172E+03  -0.241721E-15
   LPB:    6  -0.449414692436072E+00   0.127419294908427E-02   0.333071E-01   0.504429E+00   0.647092E+03  -0.219703E-15
   LPB:    7  -0.449414128121897E+00   0.106512897676382E-02   0.344899E-01   0.592651E+00   0.114841E+04  -0.187335E-15
   LPB:    8  -0.449413745674231E+00   0.672244875351974E-03   0.355285E-01   0.657910E+00   0.123238E+04  -0.175185E-15
   LPB:    9  -0.449413488525581E+00   0.491810360617314E-03   0.367917E-01   0.649290E+00   0.217082E+04  -0.167470E-15
   LPB:   10  -0.449413318860269E+00   0.482344792297323E-03   0.367787E-01   0.660029E+00   0.218023E+04  -0.163002E-15
   LPB:   11  -0.449413209954864E+00   0.433285248628893E-03   0.344715E-01   0.684845E+00   0.183148E+04  -0.160291E-15
   LPB:   12  -0.449413139592940E+00   0.324789143143260E-03   0.337338E-01   0.660213E+00   0.161823E+04  -0.158534E-15
  Finished solving LPB equations
  A_corr:   -0.353449788476975     
 End minimization
 Ecorr=   1725.56516295143     
 A_corr= -0.353449788476975     
 Ecorr_band=  -1725.91861273991     
 End Solvation calculations
RMM:   3    -0.178526996592E+03    0.20241E-02   -0.34851E-04  3684   0.440E-02    0.911E-02
 Begin Solvation calculations
  rms_SCF =   4.206769855488924E-003 tol =   4.206769855488924E-004
 Begin minimization
 Creating dielectric and ionic cavities
  area:      182.384095012660     
  volume:    821.500845357536     
  Acav:     9.575164988164646E-002
  Solving linear dielectric/ionic screening model
        iter                  A_solv                     rms
   LPB:       -0.449634755432027E+00   0.725282178400517E-01
   LPB:    0  -0.449634033826987E+00   0.706853102830531E-01  -0.195493E-03   0.000000E+00   0.377630E+02  -0.738241E-02
   LPB:    1  -0.449610222035705E+00   0.965933301782345E-02   0.980483E-02   0.000000E+00   0.979959E+02   0.100017E-18
   LPB:    2  -0.449606880436311E+00   0.203680619763853E-02   0.153035E-01   0.899108E-01   0.397713E+03   0.509115E-16
   LPB:    3  -0.449605749665305E+00   0.174441552100902E-02   0.306860E-01   0.168760E+00   0.383669E+03   0.569858E-16
   LPB:    4  -0.449604995435808E+00   0.212059148334483E-02   0.393284E-01   0.520431E+00   0.123299E+04   0.571969E-16
   LPB:    5  -0.449604596758863E+00   0.283460630248851E-02   0.287367E-01   0.723413E+00   0.228892E+03   0.529167E-16
   LPB:    6  -0.449604322356841E+00   0.135480623211871E-02   0.255839E-01   0.773101E+00   0.230296E+03   0.250864E-16
   LPB:    7  -0.449604144634209E+00   0.655964729113540E-03   0.322004E-01   0.514589E+00   0.658158E+03  -0.165514E-16
   LPB:    8  -0.449604049370742E+00   0.500220541122373E-03   0.311708E-01   0.553728E+00   0.107561E+04  -0.521012E-16
   LPB:    9  -0.449603984402441E+00   0.281746203786893E-03   0.351058E-01   0.605542E+00   0.135200E+04  -0.655842E-16
  Finished solving LPB equations
  A_corr:   -0.353852334520794     
 End minimization
 Ecorr=   1725.55773953907     
 A_corr= -0.353852334520794     
 Ecorr_band=  -1725.91159187359     
 End Solvation calculations
RMM:   4    -0.178526869572E+03    0.12702E-03   -0.89753E-05  2868   0.290E-02    0.387E-02
 Begin Solvation calculations
  rms_SCF =   4.206769855488924E-003 tol =   4.206769855488924E-004
 Begin minimization
 Creating dielectric and ionic cavities
  area:      182.358034358125     
  volume:    821.503690687536     
  Acav:     9.573796803801550E-002
  Solving linear dielectric/ionic screening model
        iter                  A_solv                     rms
   LPB:       -0.449479580425983E+00   0.193556155577899E-01
   LPB:    0  -0.449479406043969E+00   0.177196581051823E-01   0.961022E-04   0.000000E+00   0.377629E+02   0.362910E-02
   LPB:    1  -0.449477672391844E+00   0.350845158119319E-02   0.104209E-01   0.000000E+00   0.982718E+02   0.249388E-18
   LPB:    2  -0.449477338377900E+00   0.699431817747268E-03   0.158928E-01   0.126330E+00   0.304461E+03  -0.257831E-16
   LPB:    3  -0.449477239994036E+00   0.575515813807743E-03   0.276083E-01   0.169559E+00   0.537059E+03  -0.319751E-16
   LPB:    4  -0.449477182051474E+00   0.805697046758939E-03   0.341808E-01   0.475698E+00   0.470688E+03  -0.337258E-16
   LPB:    5  -0.449477139900470E+00   0.906869971563541E-03   0.302682E-01   0.821497E+00   0.237348E+03  -0.368753E-16
   LPB:    6  -0.449477094552794E+00   0.478341685163752E-03   0.336773E-01   0.966931E+00   0.263105E+03  -0.408599E-16
   LPB:    7  -0.449477053358302E+00   0.289239766366650E-03   0.404095E-01   0.757074E+00   0.100100E+04  -0.491471E-16
  Finished solving LPB equations
  A_corr:   -0.353739085320286     
 End minimization
 Ecorr=   1725.56318429559     
 A_corr= -0.353739085320286     
 Ecorr_band=  -1725.91692338091     
 End Solvation calculations
RMM:   5    -0.178526862429E+03    0.71431E-05   -0.19604E-05  2201   0.106E-02
 Begin Solvation calculations
  rms_SCF =   4.206769855488924E-003 tol =   4.206769855488924E-004
 Begin minimization
 Creating dielectric and ionic cavities
  area:      182.355621110870     
  volume:    821.502897283689     
  Acav:     9.573670108320663E-002
  Solving linear dielectric/ionic screening model
        iter                  A_solv                     rms
   LPB:       -0.449477927047621E+00   0.427332072082233E-02
   LPB:    0  -0.449477926934884E+00   0.426858098286764E-02  -0.244352E-05   0.000000E+00   0.377629E+02  -0.922745E-04
   LPB:    1  -0.449477806367449E+00   0.106141292893250E-02   0.111872E-01   0.000000E+00   0.105598E+03   0.107946E-20
   LPB:    2  -0.449477778788769E+00   0.273629285697215E-03   0.164432E-01   0.155625E+00   0.484492E+03   0.300553E-18
   LPB:    3  -0.449477765621341E+00   0.143685215456420E-03   0.289963E-01   0.270752E+00   0.813704E+03   0.176491E-18
   LPB:    4  -0.449477755344945E+00   0.183641801168452E-03   0.420740E-01   0.537858E+00   0.129214E+04  -0.361029E-19
  Finished solving LPB equations
  A_corr:   -0.353741054261738     
 End minimization
 Ecorr=   1725.56363888637     
 A_corr= -0.353741054261738     
 Ecorr_band=  -1725.91737994063     
 End Solvation calculations
 240 F= -.17852686E+03 E0= -.17850444E+03  d E =-.417416E-04
quench:  g(F)=  0.000E+00 g(S)=  0.000E+00 dE (1.order)= 0.000E+00
 reached required accuracy - stopping structural energy minimisation
