 vasp.5.4.4.18Apr17-6-g9f103f2a35 (build Feb 06 2024 13:54:16) complex          
  
 POSCAR found type information on POSCAR  Cu N  O 
 04/POSCAR found :  3 types and      40 ions
 scaLAPACK will be used

 ----------------------------------------------------------------------------- 
|                                                                             |
|  ADVICE TO THIS USER RUNNING 'VASP/VAMP'   (HEAR YOUR MASTER'S VOICE ...):  |
|                                                                             |
|      You enforced a specific xc-type in the INCAR file,                     |
|      a different type was found on the POTCAR file                          |
|          I HOPE YOU KNOW, WHAT YOU ARE  DOING                               |
|                                                                             |
 ----------------------------------------------------------------------------- 

 LDA part: xc-table for Pade appr. of Perdew
 POSCAR found type information on POSCAR  Cu N  O 
 00/POSCAR found :  3 types and      40 ions
 POSCAR found type information on POSCAR  Cu N  O 
 06/POSCAR found :  3 types and      40 ions
 Jacobian:    19.9537150754471     
 POSCAR, INCAR and KPOINTS ok, starting setup
 FFT: planning ...
 WAVECAR not read
 entering main loop
       N       E                     dE             d eps       ncg     rms          rms(c)
  Solvation turned off during non-self-consistent phase (first NELMDL steps)
DAV:   1     0.426494691808E+04    0.42649E+04   -0.18055E+05 12096   0.212E+03
DAV:   2     0.630670282275E+03   -0.36343E+04   -0.35113E+04 12105   0.478E+02
DAV:   3    -0.308674374695E+02   -0.66154E+03   -0.61190E+03 14004   0.239E+02
DAV:   4    -0.148382832850E+03   -0.11752E+03   -0.10453E+03 20241   0.955E+01
DAV:   5    -0.163220602842E+03   -0.14838E+02   -0.13363E+02 19179   0.307E+01    0.449E+01
 Begin Solvation calculations
  rms_SCF =    6.45019594271579      tol =   0.645019594271579     
 Begin minimization
 Creating dielectric and ionic cavities
  area:      170.850266846020     
  volume:    655.513648497551     
  Acav:     8.969639009416056E-002
  Solving linear dielectric/ionic screening model
        iter                  A_solv                     rms
   LPB:       -0.371492941864641E+03   0.276583735917725E+03
   LPB:    0  -0.874887702761861E+01   0.401894655238936E+02  -0.507584E+01   0.000000E+00   0.281588E+02  -0.142930E+03
   LPB:    1  -0.154229089874025E+01   0.779677389788532E+01   0.104571E-01   0.000000E+00   0.777850E+02  -0.366435E-14
   LPB:    2  -0.596803660605815E+00   0.120105681185123E+01   0.134951E-01   0.101663E+00   0.278608E+03   0.111853E-13
   LPB:    3  -0.377557182998260E+00   0.139324677041279E+01   0.259730E-01   0.120484E+00   0.715818E+03   0.748367E-14
   LPB:    4  -0.306278222068784E+00   0.108134398173491E+01   0.242050E-01   0.348857E+00   0.744491E+02   0.556835E-14
   LPB:    5  -0.267990648691523E+00   0.584448480766230E+00   0.235242E-01   0.552695E+00   0.422229E+03   0.367962E-15
  Finished solving LPB equations
  A_corr:   -0.178294258597362     
 End minimization
 Ecorr=   1981.76396572445     
 A_corr= -0.178294258597362     
 Ecorr_band=  -1981.94225998305     
 End Solvation calculations
RMM:   6    -0.157120417798E+03    0.61002E+01   -0.37200E+02 12265   0.976E+01    0.347E+01
 Begin Solvation calculations
  rms_SCF =    6.45019594271579      tol =   0.645019594271579     
 Begin minimization
 Creating dielectric and ionic cavities
  area:      171.910614802983     
  volume:    671.906050417434     
  Acav:     9.025307277156605E-002
  Solving linear dielectric/ionic screening model
        iter                  A_solv                     rms
   LPB:       -0.185660861576775E+02   0.814000476804250E+02
   LPB:    0  -0.169398564603380E+02   0.781226395876229E+02   0.344594E+00   0.000000E+00   0.273903E+02   0.943853E+01
   LPB:    1  -0.157161758264703E+01   0.677988350802544E+01   0.897202E-02   0.000000E+00   0.623499E+02  -0.633645E-15
   LPB:    2  -0.485989978888796E+00   0.193626219128086E+01   0.152308E-01   0.416124E-01   0.136979E+03   0.154676E-14
   LPB:    3  -0.317050824024349E+00   0.950835278020405E+00   0.234443E-01   0.101097E+00   0.905601E+02   0.333137E-14
   LPB:    4  -0.269708318662531E+00   0.834657107111237E+00   0.230225E-01   0.285367E+00   0.249567E+03   0.627892E-14
   LPB:    5  -0.245670112204760E+00   0.367604626834753E+00   0.248047E-01   0.471270E+00   0.981169E+02   0.155576E-13
  Finished solving LPB equations
  A_corr:   -0.155417039433194     
 End minimization
 Ecorr=   1865.22671883020     
 A_corr= -0.155417039433194     
 Ecorr_band=  -1865.38213586963     
 End Solvation calculations
RMM:   7    -0.145317373627E+03    0.11803E+02   -0.79338E+01 12361   0.459E+01    0.158E+01
 Begin Solvation calculations
  rms_SCF =    6.45019594271579      tol =   0.645019594271579     
 Begin minimization
 Creating dielectric and ionic cavities
  area:      170.618022448584     
  volume:    670.603020724850     
  Acav:     8.957446178550657E-002
  Solving linear dielectric/ionic screening model
        iter                  A_solv                     rms
   LPB:       -0.867920164986495E+01   0.559711512954136E+02
   LPB:    0  -0.867480399129319E+01   0.559478595085675E+02  -0.178996E-01   0.000000E+00   0.274514E+02  -0.491369E+00
   LPB:    1  -0.915366160092517E+00   0.512889427009985E+01   0.898416E-02   0.000000E+00   0.614166E+02  -0.162117E-16
   LPB:    2  -0.308199680815575E+00   0.992565948383167E+00   0.156499E-01   0.449205E-01   0.124596E+03   0.164562E-15
   LPB:    3  -0.217161658980142E+00   0.424378170202018E+00   0.228135E-01   0.102857E+00   0.186876E+03   0.794663E-15
   LPB:    4  -0.198061486999976E+00   0.213579828772951E+00   0.257487E-01   0.185888E+00   0.223658E+03   0.302821E-14
  Finished solving LPB equations
  A_corr:   -0.108487025214469     
 End minimization
 Ecorr=   1853.36676334458     
 A_corr= -0.108487025214469     
 Ecorr_band=  -1853.47525036980     
 End Solvation calculations
RMM:   8    -0.135927223387E+03    0.93902E+01   -0.55248E+00 12451   0.102E+01    0.882E+00
 Begin Solvation calculations
  rms_SCF =    5.34677386014923      tol =   0.534677386014923     
 Begin minimization
 Creating dielectric and ionic cavities
  area:      158.583490202448     
  volume:    669.962585452911     
  Acav:     8.325633235628495E-002
  Solving linear dielectric/ionic screening model
        iter                  A_solv                     rms
   LPB:       -0.555558122516149E+00   0.112919099860704E+02
   LPB:    0  -0.555202232531111E+00   0.112594475630385E+02  -0.508925E-02   0.000000E+00   0.274814E+02  -0.139860E+00
   LPB:    1  -0.235337852668048E+00   0.122363004597028E+01   0.908974E-02   0.000000E+00   0.602927E+02  -0.103251E-16
   LPB:    2  -0.198575682309724E+00   0.283263044496320E+00   0.179998E-01   0.580388E-01   0.887991E+02   0.612976E-14
   LPB:    3  -0.191779812204132E+00   0.136491577531519E+00   0.229374E-01   0.145067E+00   0.143641E+03   0.665231E-14
   LPB:    4  -0.187553013084759E+00   0.903883102741666E-01   0.434314E-01   0.328478E+00   0.630656E+02   0.601371E-14
  Finished solving LPB equations
  A_corr:   -0.104296680728475     
 End minimization
 Ecorr=   1827.45400735726     
 A_corr= -0.104296680728475     
 Ecorr_band=  -1827.55830403798     
 End Solvation calculations
RMM:   9    -0.134329307128E+03    0.15979E+01   -0.19141E+00 12544   0.547E+00    0.511E+00
 Begin Solvation calculations
  rms_SCF =    3.61202228621940      tol =   0.361202228621940     
 Begin minimization
 Creating dielectric and ionic cavities
  area:      154.438742982669     
  volume:    666.520195192042     
  Acav:     8.108034006590097E-002
  Solving linear dielectric/ionic screening model
        iter                  A_solv                     rms
   LPB:       -0.576066354990816E+00   0.932675705767879E+01
   LPB:    0  -0.561444441041633E+00   0.860620731817830E+01  -0.325257E-01   0.000000E+00   0.276428E+02  -0.899100E+00
   LPB:    1  -0.281131025965150E+00   0.161501061753075E+01   0.104079E-01   0.000000E+00   0.636837E+02   0.848117E-16
   LPB:    2  -0.243483698250283E+00   0.293014623536170E+00   0.143663E-01   0.972993E-01   0.129578E+03  -0.776908E-14
   LPB:    3  -0.232562481549313E+00   0.339877401658713E+00   0.272914E-01   0.152706E+00   0.258183E+03  -0.801235E-14
   LPB:    4  -0.227004413112516E+00   0.311949333843591E+00   0.283149E-01   0.490527E+00   0.534468E+02  -0.800278E-14
  Finished solving LPB equations
  A_corr:   -0.145924073046615     
 End minimization
 Ecorr=   1792.95062035340     
 A_corr= -0.145924073046615     
 Ecorr_band=  -1793.09654442645     
 End Solvation calculations
RMM:  10    -0.134097016099E+03    0.23229E+00   -0.12823E+00 12679   0.335E+00    0.434E+00
 Begin Solvation calculations
  rms_SCF =    1.90299653625452      tol =   0.190299653625452     
 Begin minimization
 Creating dielectric and ionic cavities
  area:      147.553990291842     
  volume:    665.475613767191     
  Acav:     7.746584490321705E-002
  Solving linear dielectric/ionic screening model
        iter                  A_solv                     rms
   LPB:       -0.305491705549113E+00   0.293395614288603E+01
   LPB:    0  -0.284001077517460E+00   0.235569009748525E+01   0.393971E-01   0.000000E+00   0.276918E+02   0.109098E+01
   LPB:    1  -0.257164851290431E+00   0.608984847558917E+00   0.106895E-01   0.000000E+00   0.833481E+02   0.196141E-16
   LPB:    2  -0.250945654207833E+00   0.183677087223357E+00   0.187622E-01   0.132035E+00   0.110863E+03   0.627845E-15
   LPB:    3  -0.244416842359017E+00   0.191394468566486E+00   0.429824E-01   0.458239E+00   0.971089E+02   0.142138E-14
   LPB:    4  -0.240152472529207E+00   0.336839008003050E+00   0.317037E-01   0.885527E+00   0.232473E+03   0.229547E-14
   LPB:    5  -0.237158467119819E+00   0.202883633363558E+00   0.278379E-01   0.799596E+00   0.342282E+02   0.289349E-14
   LPB:    6  -0.235033016291886E+00   0.110577875059361E+00   0.298682E-01   0.661647E+00   0.164149E+03   0.439532E-14
  Finished solving LPB equations
  A_corr:   -0.157567171388668     
 End minimization
 Ecorr=   1749.37464190083     
 A_corr= -0.157567171388668     
 Ecorr_band=  -1749.53220907222     
 End Solvation calculations
RMM:  11    -0.133954836798E+03    0.14218E+00   -0.47299E-01 13426   0.183E+00    0.380E+00
 Begin Solvation calculations
  rms_SCF =    1.90299653625452      tol =   0.190299653625452     
 Begin minimization
 Creating dielectric and ionic cavities
  area:      140.397051897564     
  volume:    662.780330326506     
  Acav:     7.370845224622104E-002
  Solving linear dielectric/ionic screening model
        iter                  A_solv                     rms
   LPB:       -0.266162104013806E+00   0.107105895010027E+01
   LPB:    0  -0.262394893895325E+00   0.122636229667634E+01   0.164574E-01   0.000000E+00   0.278181E+02   0.457814E+00
   LPB:    1  -0.248702412286358E+00   0.470897087168327E+00   0.151556E-01   0.000000E+00   0.653967E+02   0.297353E-16
   LPB:    2  -0.245615334877782E+00   0.199072726156822E+00   0.145925E-01   0.234157E+00   0.219800E+03  -0.550133E-14
   LPB:    3  -0.244341458132123E+00   0.162873206528878E+00   0.251920E-01   0.239027E+00   0.135845E+03  -0.734423E-14
   LPB:    4  -0.243341961454542E+00   0.140796548104564E+00   0.334919E-01   0.590171E+00   0.900162E+02  -0.808439E-14
  Finished solving LPB equations
  A_corr:   -0.169633509208321     
 End minimization
 Ecorr=   1732.30846907399     
 A_corr= -0.169633509208321     
 Ecorr_band=  -1732.47810258320     
 End Solvation calculations
RMM:  12    -0.133775974664E+03    0.17886E+00   -0.44244E-01 13000   0.160E+00    0.107E+00
 Begin Solvation calculations
  rms_SCF =   0.907226732623946      tol =   9.072267326239464E-002
 Begin minimization
 Creating dielectric and ionic cavities
  area:      139.213257586751     
  volume:    659.247325881449     
  Acav:     7.308696023304453E-002
  Solving linear dielectric/ionic screening model
        iter                  A_solv                     rms
   LPB:       -0.314061966522246E+00   0.220982482090356E+01
   LPB:    0  -0.309740714731821E+00   0.243258252418053E+01   0.175738E-01   0.000000E+00   0.279838E+02   0.491782E+00
   LPB:    1  -0.273385106191979E+00   0.791124261086713E+00   0.137132E-01   0.000000E+00   0.575866E+02   0.164550E-16
   LPB:    2  -0.266164380489997E+00   0.213260391017875E+00   0.133540E-01   0.203956E+00   0.177432E+03   0.351954E-14
   LPB:    3  -0.263826030164589E+00   0.175871931776486E+00   0.280928E-01   0.153938E+00   0.141593E+03   0.418009E-14
   LPB:    4  -0.262227770521890E+00   0.183052883127299E+00   0.326728E-01   0.587688E+00   0.708859E+02   0.446649E-14
   LPB:    5  -0.260879802234023E+00   0.145009345749736E+00   0.297772E-01   0.925411E+00   0.236397E+03   0.540606E-14
   LPB:    6  -0.259665780960132E+00   0.565753852781519E-01   0.341624E-01   0.785023E+00   0.783303E+02   0.579975E-14
  Finished solving LPB equations
  A_corr:   -0.186578820727087     
 End minimization
 Ecorr=   1705.40152309902     
 A_corr= -0.186578820727087     
 Ecorr_band=  -1705.58810191974     
 End Solvation calculations
RMM:  13    -0.133781180497E+03   -0.52058E-02   -0.12962E-01 12542   0.144E+00    0.154E+00
 Begin Solvation calculations
  rms_SCF =   0.818435617749398      tol =   8.184356177493977E-002
 Begin minimization
 Creating dielectric and ionic cavities
  area:      141.035153051982     
  volume:    657.517840226841     
  Acav:     7.404345535229055E-002
  Solving linear dielectric/ionic screening model
        iter                  A_solv                     rms
   LPB:       -0.285230545014672E+00   0.145971666425792E+01
   LPB:    0  -0.284296649880299E+00   0.110351530017335E+01  -0.815798E-02   0.000000E+00   0.280648E+02  -0.228952E+00
   LPB:    1  -0.273692850014793E+00   0.455788663177157E+00   0.130944E-01   0.000000E+00   0.694103E+02  -0.188170E-16
   LPB:    2  -0.271996596290613E+00   0.115848198692625E+00   0.146845E-01   0.142645E+00   0.933619E+02  -0.430935E-14
   LPB:    3  -0.271489306567813E+00   0.956408368792439E-01   0.207315E-01   0.211833E+00   0.304996E+03  -0.496272E-14
   LPB:    4  -0.271040432442532E+00   0.131989363848725E+00   0.343509E-01   0.534024E+00   0.615694E+02  -0.508939E-14
   LPB:    5  -0.270302876968409E+00   0.912010983618811E-01   0.399270E-01   0.141365E+01   0.110685E+03  -0.619754E-14
   LPB:    6  -0.269642073820333E+00   0.314508942660235E-01   0.364753E-01   0.980722E+00   0.588161E+02  -0.841485E-14
  Finished solving LPB equations
  A_corr:   -0.195598618468043     
 End minimization
 Ecorr=   1692.99044931359     
 A_corr= -0.195598618468043     
 Ecorr_band=  -1693.18604793206     
 End Solvation calculations
RMM:  14    -0.133741051469E+03    0.40129E-01   -0.36714E-02 12494   0.804E-01    0.509E-01
 Begin Solvation calculations
  rms_SCF =   0.196296016270709      tol =   1.962960162707088E-002
 Begin minimization
 Creating dielectric and ionic cavities
  area:      140.517723446531     
  volume:    656.061758726190     
  Acav:     7.377180480942860E-002
  Solving linear dielectric/ionic screening model
        iter                  A_solv                     rms
   LPB:       -0.284374562632995E+00   0.544568532286972E+00
   LPB:    0  -0.284277956343159E+00   0.641434707566153E+00   0.262065E-02   0.000000E+00   0.281331E+02   0.737270E-01
   LPB:    1  -0.277972644764453E+00   0.369904382637039E+00   0.144466E-01   0.000000E+00   0.105810E+03  -0.322018E-17
   LPB:    2  -0.277063063771273E+00   0.909619684356551E-01   0.141326E-01   0.147461E+00   0.710538E+02   0.269583E-14
   LPB:    3  -0.276830470641315E+00   0.588998457413567E-01   0.190421E-01   0.189785E+00   0.294149E+03   0.324759E-14
   LPB:    4  -0.276684320233590E+00   0.637841472900707E-01   0.277705E-01   0.430860E+00   0.945946E+02   0.337217E-14
   LPB:    5  -0.276542452464381E+00   0.457793893872393E-01   0.304469E-01   0.885368E+00   0.249262E+03   0.351207E-14
   LPB:    6  -0.276386753589379E+00   0.236271410733010E-01   0.415834E-01   0.803573E+00   0.860230E+02   0.370600E-14
   LPB:    7  -0.276213239799862E+00   0.151679741025341E-01   0.474333E-01   0.976978E+00   0.977958E+02   0.404870E-14
  Finished solving LPB equations
  A_corr:   -0.202441434990434     
 End minimization
 Ecorr=   1684.44316456920     
 A_corr= -0.202441434990434     
 Ecorr_band=  -1684.64560600419     
 End Solvation calculations
RMM:  15    -0.133738749271E+03    0.23022E-02   -0.88600E-03 12502   0.380E-01    0.407E-01
 Begin Solvation calculations
  rms_SCF =   0.196296016270709      tol =   1.962960162707088E-002
 Begin minimization
 Creating dielectric and ionic cavities
  area:      140.745633618294     
  volume:    654.876700526444     
  Acav:     7.389145764960409E-002
  Solving linear dielectric/ionic screening model
        iter                  A_solv                     rms
   LPB:       -0.290456057356488E+00   0.820829523966178E+00
   LPB:    0  -0.290357063690793E+00   0.709402080201850E+00  -0.265022E-02   0.000000E+00   0.281887E+02  -0.747061E-01
   LPB:    1  -0.284076995304891E+00   0.278909749159765E+00   0.147096E-01   0.000000E+00   0.822312E+02   0.372360E-17
   LPB:    2  -0.283210477764255E+00   0.748956364535684E-01   0.151157E-01   0.134272E+00   0.973555E+02   0.108816E-14
   LPB:    3  -0.283014516302601E+00   0.494551985681716E-01   0.207443E-01   0.164787E+00   0.220001E+03   0.757338E-15
   LPB:    4  -0.282945756440842E+00   0.546334023859796E-01   0.209326E-01   0.347728E+00   0.122447E+03   0.558492E-15
   LPB:    5  -0.282886169777938E+00   0.331329058844866E-01   0.258346E-01   0.702159E+00   0.190167E+03   0.454469E-15
   LPB:    6  -0.282818401428187E+00   0.118235391877595E-01   0.417433E-01   0.703871E+00   0.885847E+02   0.367433E-15
  Finished solving LPB equations
  A_corr:   -0.208926943778583     
 End minimization
 Ecorr=   1679.15211682118     
 A_corr= -0.208926943778583     
 Ecorr_band=  -1679.36104376496     
 End Solvation calculations
RMM:  16    -0.133736577562E+03    0.21717E-02   -0.67943E-03 13043   0.200E-01    0.185E-01
 Begin Solvation calculations
  rms_SCF =   0.196296016270709      tol =   1.962960162707088E-002
 Begin minimization
 Creating dielectric and ionic cavities
  area:      141.676771888888     
  volume:    652.734194918520     
  Acav:     7.438030524166608E-002
  Solving linear dielectric/ionic screening model
        iter                  A_solv                     rms
   LPB:       -0.327728004242586E+00   0.158735249088028E+01
   LPB:    0  -0.327657565394521E+00   0.150700949451774E+01  -0.223158E-02   0.000000E+00   0.282891E+02  -0.631293E-01
   LPB:    1  -0.300620340381549E+00   0.492479212304112E+00   0.150528E-01   0.000000E+00   0.814884E+02   0.688084E-18
   LPB:    2  -0.297311890445085E+00   0.134831552112878E+00   0.149875E-01   0.122900E+00   0.108567E+03  -0.949517E-14
   LPB:    3  -0.296587699899501E+00   0.576489842186636E-01   0.221772E-01   0.147928E+00   0.143809E+03  -0.112477E-13
   LPB:    4  -0.296268547604630E+00   0.652709589410529E-01   0.296613E-01   0.329505E+00   0.206411E+03  -0.112724E-13
   LPB:    5  -0.296102262878464E+00   0.100052658485119E+00   0.252050E-01   0.613138E+00   0.187436E+03  -0.112830E-13
   LPB:    6  -0.295968795196116E+00   0.421203896937596E-01   0.223642E-01   0.904600E+00   0.814451E+02  -0.112553E-13
   LPB:    7  -0.295843432670422E+00   0.147704214297853E-01   0.357413E-01   0.587727E+00   0.225568E+03  -0.113559E-13
  Finished solving LPB equations
  A_corr:   -0.221463127428756     
 End minimization
 Ecorr=   1669.24727909942     
 A_corr= -0.221463127428756     
 Ecorr_band=  -1669.46874222685     
 End Solvation calculations
RMM:  17    -0.133737543303E+03   -0.96574E-03   -0.41159E-03 12241   0.163E-01    0.180E-01
 Begin Solvation calculations
  rms_SCF =   0.196296016270709      tol =   1.962960162707088E-002
 Begin minimization
 Creating dielectric and ionic cavities
  area:      142.069192805320     
  volume:    652.177463322139     
  Acav:     7.458632622279281E-002
  Solving linear dielectric/ionic screening model
        iter                  A_solv                     rms
   LPB:       -0.310196390355914E+00   0.954219813569908E+00
   LPB:    0  -0.310142947565657E+00   0.898310103613018E+00  -0.194290E-02   0.000000E+00   0.283152E+02  -0.550135E-01
   LPB:    1  -0.302539430588806E+00   0.210476858336824E+00   0.151062E-01   0.000000E+00   0.708566E+02  -0.261068E-17
   LPB:    2  -0.301672821180582E+00   0.878921659138180E-01   0.147662E-01   0.116599E+00   0.156294E+03   0.209372E-14
   LPB:    3  -0.301488359816003E+00   0.458977176809962E-01   0.199180E-01   0.157799E+00   0.906990E+02   0.156708E-14
   LPB:    4  -0.301412714398381E+00   0.626816927029034E-01   0.241796E-01   0.337811E+00   0.200410E+03   0.136847E-14
   LPB:    5  -0.301341935029283E+00   0.471108903639539E-01   0.267307E-01   0.846374E+00   0.778026E+02   0.124704E-14
   LPB:    6  -0.301243124940705E+00   0.189428511497274E-01   0.395340E-01   0.943919E+00   0.771045E+02   0.135506E-14
  Finished solving LPB equations
  A_corr:   -0.226656798717912     
 End minimization
 Ecorr=   1664.60007160895     
 A_corr= -0.226656798717912     
 Ecorr_band=  -1664.82672840767     
 End Solvation calculations
RMM:  18    -0.133738274828E+03   -0.73152E-03   -0.11101E-03 12514   0.898E-02    0.136E-01
 Begin Solvation calculations
  rms_SCF =   0.196296016270709      tol =   1.962960162707088E-002
 Begin minimization
 Creating dielectric and ionic cavities
  area:      142.286667922372     
  volume:    651.922336426184     
  Acav:     7.470050065924540E-002
  Solving linear dielectric/ionic screening model
        iter                  A_solv                     rms
   LPB:       -0.308854197283106E+00   0.749479405842977E+00
   LPB:    0  -0.308772803337058E+00   0.688759195187905E+00  -0.239723E-02   0.000000E+00   0.283272E+02  -0.679067E-01
   LPB:    1  -0.305279609710611E+00   0.150454747894041E+00   0.146210E-01   0.000000E+00   0.620372E+02   0.262250E-17
   LPB:    2  -0.304870936790501E+00   0.716526968872584E-01   0.136805E-01   0.125034E+00   0.217022E+03   0.377691E-15
   LPB:    3  -0.304793734396908E+00   0.338593690921214E-01   0.167285E-01   0.154490E+00   0.973756E+02   0.424130E-15
   LPB:    4  -0.304753293494526E+00   0.404564315814039E-01   0.262597E-01   0.333701E+00   0.112194E+03   0.613413E-15
   LPB:    5  -0.304704267311893E+00   0.328725122427052E-01   0.352651E-01   0.902717E+00   0.735446E+02   0.691191E-15
   LPB:    6  -0.304641171093560E+00   0.128314237411318E-01   0.402381E-01   0.112793E+01   0.631396E+02   0.794888E-15
  Finished solving LPB equations
  A_corr:   -0.229940670434315     
 End minimization
 Ecorr=   1661.94345236364     
 A_corr= -0.229940670434315     
 Ecorr_band=  -1662.17339303407     
 End Solvation calculations
RMM:  19    -0.133738885137E+03   -0.61031E-03   -0.54674E-04 12734   0.635E-02    0.139E-01
 Begin Solvation calculations
  rms_SCF =   0.196296016270709      tol =   1.962960162707088E-002
 Begin minimization
 Creating dielectric and ionic cavities
  area:      142.649534614733     
  volume:    651.595259770384     
  Acav:     7.489100567273502E-002
  Solving linear dielectric/ionic screening model
        iter                  A_solv                     rms
   LPB:       -0.327960261396438E+00   0.165379677310883E+01
   LPB:    0  -0.327395649235880E+00   0.150320210763669E+01  -0.631206E-02   0.000000E+00   0.283425E+02  -0.178900E+00
   LPB:    1  -0.313844224812251E+00   0.341835131953424E+00   0.140565E-01   0.000000E+00   0.556807E+02  -0.973832E-17
   LPB:    2  -0.312127730764327E+00   0.135667307930084E+00   0.130102E-01   0.136851E+00   0.219422E+03  -0.278821E-14
   LPB:    3  -0.311814041334457E+00   0.577693078174390E-01   0.165989E-01   0.143239E+00   0.118982E+03  -0.329203E-14
   LPB:    4  -0.311706350246752E+00   0.531764405141229E-01   0.218122E-01   0.261253E+00   0.124823E+03  -0.321530E-14
   LPB:    5  -0.311640841722264E+00   0.301181838295741E-01   0.265450E-01   0.499843E+00   0.893081E+02  -0.351821E-14
   LPB:    6  -0.311585728578587E+00   0.120561160392256E-01   0.356411E-01   0.626598E+00   0.108563E+03  -0.319041E-14
  Finished solving LPB equations
  A_corr:   -0.236694722905852     
 End minimization
 Ecorr=   1658.50861324628     
 A_corr= -0.236694722905852     
 Ecorr_band=  -1658.74530796919     
 End Solvation calculations
RMM:  20    -0.133739648489E+03   -0.76335E-03   -0.78040E-04 12203   0.509E-02    0.108E-01
 Begin Solvation calculations
  rms_SCF =   0.142943081398044      tol =   1.429430813980443E-002
 Begin minimization
 Creating dielectric and ionic cavities
  area:      143.075763243081     
  volume:    651.351052906400     
  Acav:     7.511477570261768E-002
  Solving linear dielectric/ionic screening model
        iter                  A_solv                     rms
   LPB:       -0.339559552388779E+00   0.168259109465968E+01
   LPB:    0  -0.338802854712346E+00   0.147837186593351E+01  -0.730583E-02   0.000000E+00   0.283540E+02  -0.207149E+00
   LPB:    1  -0.323091392115954E+00   0.300221150998731E+00   0.146232E-01   0.000000E+00   0.594147E+02   0.948207E-18
   LPB:    2  -0.321327738848971E+00   0.144140851603770E+00   0.140013E-01   0.117238E+00   0.203860E+03   0.359939E-14
   LPB:    3  -0.320992736172513E+00   0.723196682173460E-01   0.171462E-01   0.155108E+00   0.925226E+02   0.371957E-14
   LPB:    4  -0.320848488657959E+00   0.725492109250578E-01   0.220776E-01   0.334407E+00   0.140884E+03   0.383981E-14
   LPB:    5  -0.320744615511472E+00   0.419280554248281E-01   0.263442E-01   0.603479E+00   0.811395E+02   0.392025E-14
   LPB:    6  -0.320653325976825E+00   0.155719648943266E-01   0.343887E-01   0.673267E+00   0.109838E+03   0.385962E-14
   LPB:    7  -0.320584000411224E+00   0.836852554554586E-02   0.378213E-01   0.690481E+00   0.168140E+03   0.358465E-14
  Finished solving LPB equations
  A_corr:   -0.245469224708606     
 End minimization
 Ecorr=   1653.93715109887     
 A_corr= -0.245469224708606     
 Ecorr_band=  -1654.18262032358     
 End Solvation calculations
RMM:  21    -0.133740939380E+03   -0.12909E-02   -0.97025E-04 12318   0.614E-02    0.847E-02
 Begin Solvation calculations
  rms_SCF =   0.142943081398044      tol =   1.429430813980443E-002
 Begin minimization
 Creating dielectric and ionic cavities
  area:      143.171239155926     
  volume:    651.396363645845     
  Acav:     7.516490055686134E-002
  Solving linear dielectric/ionic screening model
        iter                  A_solv                     rms
   LPB:       -0.325176777862729E+00   0.653172427134727E+00
   LPB:    0  -0.325072859414682E+00   0.594219048761893E+00  -0.270751E-02   0.000000E+00   0.283518E+02  -0.767630E-01
   LPB:    1  -0.323267147966108E+00   0.123593732956415E+00   0.134658E-01   0.000000E+00   0.525464E+02  -0.531579E-17
   LPB:    2  -0.323047065862672E+00   0.498239430529035E-01   0.129162E-01   0.127067E+00   0.216723E+03  -0.157915E-15
   LPB:    3  -0.322999024970105E+00   0.200759044544269E-01   0.175309E-01   0.160827E+00   0.116366E+03  -0.187017E-15
   LPB:    4  -0.322979158216651E+00   0.253363138282842E-01   0.269427E-01   0.269078E+00   0.994167E+02  -0.218242E-15
   LPB:    5  -0.322952861995412E+00   0.262429246390613E-01   0.406377E-01   0.877563E+00   0.812212E+02  -0.761374E-16
   LPB:    6  -0.322908592196834E+00   0.130684183792556E-01   0.460383E-01   0.148602E+01   0.502043E+02  -0.376253E-16
  Finished solving LPB equations
  A_corr:   -0.247743691639972     
 End minimization
 Ecorr=   1652.36740233234     
 A_corr= -0.247743691639972     
 Ecorr_band=  -1652.61514602398     
 End Solvation calculations
RMM:  22    -0.133741291131E+03   -0.35175E-03   -0.14913E-04 11748   0.346E-02    0.798E-02
 Begin Solvation calculations
  rms_SCF =   0.142943081398044      tol =   1.429430813980443E-002
 Begin minimization
 Creating dielectric and ionic cavities
  area:      143.320847001369     
  volume:    651.554242907382     
  Acav:     7.524344467571865E-002
  Solving linear dielectric/ionic screening model
        iter                  A_solv                     rms
   LPB:       -0.337140264361776E+00   0.144918800812091E+01
   LPB:    0  -0.336595368649191E+00   0.132810145897280E+01  -0.620066E-02   0.000000E+00   0.283444E+02  -0.175754E+00
   LPB:    1  -0.328819003342554E+00   0.268096029358388E+00   0.127045E-01   0.000000E+00   0.518143E+02   0.961763E-17
   LPB:    2  -0.327840187750257E+00   0.917455711397630E-01   0.125876E-01   0.127040E+00   0.205304E+03   0.139375E-14
   LPB:    3  -0.327670711200875E+00   0.289526329987832E-01   0.166706E-01   0.130737E+00   0.127929E+03   0.161493E-14
   LPB:    4  -0.327625853727018E+00   0.312765491485887E-01   0.238947E-01   0.184661E+00   0.110300E+03   0.168188E-14
   LPB:    5  -0.327601592848589E+00   0.207030835749153E-01   0.257135E-01   0.502589E+00   0.940051E+02   0.165769E-14
   LPB:    6  -0.327582144581849E+00   0.847310343968976E-02   0.322817E-01   0.638526E+00   0.913036E+02   0.149041E-14
  Finished solving LPB equations
  A_corr:   -0.252338699906130     
 End minimization
 Ecorr=   1650.62711641254     
 A_corr= -0.252338699906130     
 Ecorr_band=  -1650.87945511244     
 End Solvation calculations
RMM:  23    -0.133741648032E+03   -0.35690E-03   -0.33621E-04 12116   0.321E-02    0.364E-02
 Begin Solvation calculations
  rms_SCF =   9.892779305975510E-002 tol =   9.892779305975510E-003
 Begin minimization
 Creating dielectric and ionic cavities
  area:      143.374290066331     
  volume:    651.737892399945     
  Acav:     7.527150228482372E-002
  Solving linear dielectric/ionic screening model
        iter                  A_solv                     rms
   LPB:       -0.334025287519055E+00   0.966155646647831E+00
   LPB:    0  -0.333757463316370E+00   0.887417764210676E+00  -0.434783E-02   0.000000E+00   0.283358E+02  -0.123199E+00
   LPB:    1  -0.330584558126181E+00   0.166861610363663E+00   0.120918E-01   0.000000E+00   0.527497E+02  -0.118411E-17
   LPB:    2  -0.330202812693020E+00   0.573129629167408E-01   0.125152E-01   0.116244E+00   0.193429E+03  -0.577183E-15
   LPB:    3  -0.330132857668144E+00   0.168127021432858E-01   0.176081E-01   0.130248E+00   0.111387E+03  -0.652606E-15
   LPB:    4  -0.330110406254285E+00   0.219400785071604E-01   0.285141E-01   0.198188E+00   0.911480E+02  -0.616749E-15
   LPB:    5  -0.330093549892147E+00   0.200920083341412E-01   0.306744E-01   0.697919E+00   0.876147E+02  -0.567363E-15
   LPB:    6  -0.330076362880093E+00   0.101671482346073E-01   0.339978E-01   0.919944E+00   0.634547E+02  -0.450499E-15
   LPB:    7  -0.330061373058150E+00   0.445410569364575E-02   0.364419E-01   0.813666E+00   0.128456E+03  -0.179585E-15
  Finished solving LPB equations
  A_corr:   -0.254789870773326     
 End minimization
 Ecorr=   1649.46507792568     
 A_corr= -0.254789870773326     
 Ecorr_band=  -1649.71986779645     
 End Solvation calculations
RMM:  24    -0.133741887573E+03   -0.23954E-03   -0.10796E-04  9721   0.244E-02    0.295E-02
 Begin Solvation calculations
  rms_SCF =   7.562473539413790E-002 tol =   7.562473539413790E-003
 Begin minimization
 Creating dielectric and ionic cavities
  area:      143.402233912831     
  volume:    651.770584298257     
  Acav:     7.528617280423626E-002
  Solving linear dielectric/ionic screening model
        iter                  A_solv                     rms
   LPB:       -0.332123705854941E+00   0.447038403132055E+00
   LPB:    0  -0.332067536846594E+00   0.408455994937210E+00  -0.199117E-02   0.000000E+00   0.283343E+02  -0.564182E-01
   LPB:    1  -0.331460614479665E+00   0.732393181033519E-01   0.115619E-01   0.000000E+00   0.514829E+02  -0.591699E-17
   LPB:    2  -0.331380992960589E+00   0.218257095266157E-01   0.128654E-01   0.117897E+00   0.181998E+03  -0.219769E-15
   LPB:    3  -0.331367318177372E+00   0.787890320056010E-02   0.179687E-01   0.122969E+00   0.140189E+03  -0.245715E-15
   LPB:    4  -0.331363496871624E+00   0.976109678063884E-02   0.264446E-01   0.189876E+00   0.100389E+03  -0.241044E-15
   LPB:    5  -0.331359183225196E+00   0.110577661773400E-01   0.395263E-01   0.755238E+00   0.989836E+02  -0.222669E-15
   LPB:    6  -0.331350099935920E+00   0.728190192022983E-02   0.528182E-01   0.157580E+01   0.470680E+02  -0.212279E-15
  Finished solving LPB equations
  A_corr:   -0.256063927131683     
 End minimization
 Ecorr=   1648.81929655592     
 A_corr= -0.256063927131683     
 Ecorr_band=  -1649.07536048305     
 End Solvation calculations
RMM:  25    -0.133741924030E+03   -0.36457E-04   -0.40206E-05  7570   0.186E-02    0.280E-02
 Begin Solvation calculations
  rms_SCF =   7.562473539413790E-002 tol =   7.562473539413790E-003
 Begin minimization
 Creating dielectric and ionic cavities
  area:      143.431077169138     
  volume:    651.790601762633     
  Acav:     7.530131551379755E-002
  Solving linear dielectric/ionic screening model
        iter                  A_solv                     rms
   LPB:       -0.335071473054579E+00   0.740601396485549E+00
   LPB:    0  -0.334953195854153E+00   0.692799897981323E+00  -0.288946E-02   0.000000E+00   0.283333E+02  -0.818680E-01
   LPB:    1  -0.333436630393816E+00   0.107660355373152E+00   0.105502E-01   0.000000E+00   0.543801E+02   0.281889E-17
   LPB:    2  -0.333253518190046E+00   0.291278019808108E-01   0.130575E-01   0.975571E-01   0.154942E+03  -0.742994E-15
   LPB:    3  -0.333228343687936E+00   0.843652733997579E-02   0.176715E-01   0.101585E+00   0.130681E+03  -0.750252E-15
   LPB:    4  -0.333223016031807E+00   0.902311571895854E-02   0.265322E-01   0.140953E+00   0.932519E+02  -0.704516E-15
   LPB:    5  -0.333219784118420E+00   0.884177669031359E-02   0.292240E-01   0.550752E+00   0.115775E+03  -0.680938E-15
   LPB:    6  -0.333216669389947E+00   0.477270535204264E-02   0.327985E-01   0.858711E+00   0.584517E+02  -0.724530E-15
  Finished solving LPB equations
  A_corr:   -0.257915353876149     
 End minimization
 Ecorr=   1647.98707031996     
 A_corr= -0.257915353876149     
 Ecorr_band=  -1648.24498567384     
 End Solvation calculations
RMM:  26    -0.133741968535E+03   -0.44506E-04   -0.73599E-05  9928   0.186E-02    0.190E-02
 Begin Solvation calculations
  rms_SCF =   2.685443347341088E-002 tol =   2.685443347341088E-003
 Begin minimization
 Creating dielectric and ionic cavities
  area:      143.430153310106     
  volume:    651.776656071715     
  Acav:     7.530083048780545E-002
  Solving linear dielectric/ionic screening model
        iter                  A_solv                     rms
   LPB:       -0.333282864639346E+00   0.374939526964884E-01
   LPB:    0  -0.333282103672792E+00   0.311294695366578E-01  -0.231763E-03   0.000000E+00   0.283340E+02  -0.656677E-02
   LPB:    1  -0.333268626839109E+00   0.154792516425673E-01   0.113940E-01   0.000000E+00   0.177450E+03   0.170122E-18
   LPB:    2  -0.333266886997440E+00   0.563703975227431E-02   0.151804E-01   0.968981E-01   0.759443E+02  -0.409811E-16
   LPB:    3  -0.333265088399885E+00   0.341076515961349E-02   0.357980E-01   0.438377E+00   0.353123E+03  -0.416397E-16
   LPB:    4  -0.333263178753283E+00   0.448736612459642E-02   0.502971E-01   0.755675E+00   0.402809E+03  -0.498573E-16
   LPB:    5  -0.333259905350509E+00   0.780996945182589E-02   0.591073E-01   0.145864E+01   0.584216E+02  -0.625559E-16
   LPB:    6  -0.333256580148999E+00   0.882122375212184E-02   0.332179E-01   0.180754E+01   0.933520E+02   0.719263E-16
   LPB:    7  -0.333253735625532E+00   0.511127207192453E-02   0.295798E-01   0.960657E+00   0.386983E+02   0.104563E-15
   LPB:    8  -0.333251822251809E+00   0.183596360951801E-02   0.309886E-01   0.642073E+00   0.159532E+03   0.188893E-15
  Finished solving LPB equations
  A_corr:   -0.257950991764004     
 End minimization
 Ecorr=   1647.48044419825     
 A_corr= -0.257950991764004     
 Ecorr_band=  -1647.73839519002     
 End Solvation calculations
RMM:  27    -0.133741988387E+03   -0.19852E-04   -0.18986E-05  7340   0.140E-02    0.159E-02
 Begin Solvation calculations
  rms_SCF =   1.145433598151171E-002 tol =   1.145433598151171E-003
 Begin minimization
 Creating dielectric and ionic cavities
  area:      143.433189962509     
  volume:    651.756211166077     
  Acav:     7.530242473031719E-002
  Solving linear dielectric/ionic screening model
        iter                  A_solv                     rms
   LPB:       -0.333529774305042E+00   0.859206490108175E-01
   LPB:    0  -0.333524552378202E+00   0.653852114662161E-01  -0.607112E-03   0.000000E+00   0.283350E+02  -0.172025E-01
   LPB:    1  -0.333506663504429E+00   0.117201111421033E-01   0.998618E-02   0.000000E+00   0.675611E+02   0.471582E-18
   LPB:    2  -0.333505091368035E+00   0.298692838557971E-02   0.132564E-01   0.662033E-01   0.110393E+03   0.252037E-15
   LPB:    3  -0.333504470561212E+00   0.256758316647343E-02   0.281941E-01   0.185667E+00   0.288538E+03   0.271237E-15
   LPB:    4  -0.333503838748218E+00   0.471456599761591E-02   0.423458E-01   0.677609E+00   0.222797E+03   0.276852E-15
   LPB:    5  -0.333503084087715E+00   0.336483469343497E-02   0.337167E-01   0.150013E+01   0.756369E+02   0.280897E-15
   LPB:    6  -0.333501895930246E+00   0.253238352450631E-02   0.480294E-01   0.110525E+01   0.147417E+03   0.284557E-15
   LPB:    7  -0.333500831618470E+00   0.172733751909806E-02   0.419854E-01   0.102472E+01   0.111178E+03   0.306947E-15
   LPB:    8  -0.333499955604404E+00   0.124709229514444E-02   0.430243E-01   0.803206E+00   0.317727E+03   0.333961E-15
   LPB:    9  -0.333499052492308E+00   0.125570679032763E-02   0.460359E-01   0.963492E+00   0.159134E+03   0.348761E-15
   LPB:   10  -0.333498143679930E+00   0.144006531079562E-02   0.451380E-01   0.102633E+01   0.276242E+03   0.364652E-15
   LPB:   11  -0.333497187358702E+00   0.159475600775178E-02   0.505372E-01   0.939854E+00   0.941980E+03   0.397559E-15
   LPB:   12  -0.333495926627702E+00   0.164821849264942E-02   0.517336E-01   0.128783E+01   0.420572E+03   0.439345E-15
   LPB:   13  -0.333494879480708E+00   0.112713269781431E-02   0.384882E-01   0.111643E+01   0.280721E+03   0.497112E-15
  Finished solving LPB equations
  A_corr:   -0.258192454750391     
 End minimization
 Ecorr=   1647.49292587854     
 A_corr= -0.258192454750391     
 Ecorr_band=  -1647.75111833329     
 End Solvation calculations
RMM:  28    -0.133742008383E+03   -0.19996E-04   -0.90433E-06  7157   0.949E-03    0.893E-03
 Begin Solvation calculations
  rms_SCF =   1.145433598151171E-002 tol =   1.145433598151171E-003
 Begin minimization
 Creating dielectric and ionic cavities
  area:      143.431797722604     
  volume:    651.739678814222     
  Acav:     7.530169380436733E-002
  Solving linear dielectric/ionic screening model
        iter                  A_solv                     rms
   LPB:       -0.333514471622967E+00   0.452075576840526E-01
   LPB:    0  -0.333512410509500E+00   0.288883177283703E-01  -0.381416E-03   0.000000E+00   0.283357E+02  -0.108077E-01
   LPB:    1  -0.333499180857265E+00   0.128141955045564E-01   0.135151E-01   0.000000E+00   0.113546E+03   0.461405E-18
   LPB:    2  -0.333498011524640E+00   0.551972534959788E-02   0.150455E-01   0.793969E-01   0.584975E+02   0.160536E-16
   LPB:    3  -0.333497560418673E+00   0.196102159359706E-02   0.183536E-01   0.316246E+00   0.298404E+03   0.373621E-16
   LPB:    4  -0.333497294604028E+00   0.190830716333099E-02   0.306257E-01   0.353131E+00   0.231990E+03   0.473403E-16
   LPB:    5  -0.333497064628398E+00   0.216005331847582E-02   0.327767E-01   0.808396E+00   0.360480E+03   0.581568E-16
   LPB:    6  -0.333496823182883E+00   0.164913555400517E-02   0.329503E-01   0.104434E+01   0.186465E+03   0.580328E-16
   LPB:    7  -0.333496599309043E+00   0.831446595277482E-03   0.363710E-01   0.840018E+00   0.461814E+03   0.615687E-16
  Finished solving LPB equations
  A_corr:   -0.258194905504675     
 End minimization
 Ecorr=   1647.41471641608     
 A_corr= -0.258194905504675     
 Ecorr_band=  -1647.67291132159     
 End Solvation calculations
RMM:  29    -0.133742033328E+03   -0.24945E-04   -0.55109E-06  7060   0.759E-03    0.430E-03
 Begin Solvation calculations
  rms_SCF =   6.076269547159131E-003 tol =   6.076269547159131E-004
 Begin minimization
 Creating dielectric and ionic cavities
  area:      143.438302267266     
  volume:    651.723925926448     
  Acav:     7.530510869031487E-002
  Solving linear dielectric/ionic screening model
        iter                  A_solv                     rms
   LPB:       -0.333726244438477E+00   0.784282856900682E-01
   LPB:    0  -0.333721518518277E+00   0.537450323609492E-01  -0.577544E-03   0.000000E+00   0.283365E+02  -0.163656E-01
   LPB:    1  -0.333705934835363E+00   0.129435858912458E-01   0.104815E-01   0.000000E+00   0.656564E+02   0.248816E-18
   LPB:    2  -0.333704770676872E+00   0.254151372010083E-02   0.122364E-01   0.639903E-01   0.808183E+02   0.894480E-16
   LPB:    3  -0.333704496804689E+00   0.165902131008231E-02   0.209274E-01   0.137554E+00   0.255644E+03   0.787838E-16
   LPB:    4  -0.333704395951888E+00   0.121676425088306E-02   0.233906E-01   0.329469E+00   0.768198E+02   0.776190E-16
   LPB:    5  -0.333704310438727E+00   0.969683801556425E-03   0.322773E-01   0.614453E+00   0.360463E+03   0.724201E-16
   LPB:    6  -0.333704202373306E+00   0.849822503179092E-03   0.464408E-01   0.878316E+00   0.607543E+02   0.755885E-16
   LPB:    7  -0.333704073724753E+00   0.628138268659336E-03   0.494970E-01   0.111696E+01   0.105523E+03   0.942364E-16
   LPB:    8  -0.333703921135823E+00   0.615475047217780E-03   0.508910E-01   0.115360E+01   0.106662E+03   0.122400E-15
   LPB:    9  -0.333703751558059E+00   0.445623682252690E-03   0.478798E-01   0.118123E+01   0.294340E+03   0.155685E-15
  Finished solving LPB equations
  A_corr:   -0.258398642867744     
 End minimization
 Ecorr=   1647.10054001766     
 A_corr= -0.258398642867744     
 Ecorr_band=  -1647.35893866053     
 End Solvation calculations
RMM:  30    -0.133742053653E+03   -0.20326E-04   -0.49691E-06  7062   0.579E-03    0.280E-03
 Begin Solvation calculations
  rms_SCF =   4.434009437852986E-003 tol =   4.434009437852985E-004
 Begin minimization
 Creating dielectric and ionic cavities
  area:      143.443926086646     
  volume:    651.716584996994     
  Acav:     7.530806119548906E-002
  Solving linear dielectric/ionic screening model
        iter                  A_solv                     rms
   LPB:       -0.333917591973243E+00   0.680250656005542E-01
   LPB:    0  -0.333914675285322E+00   0.514164718285317E-01  -0.453716E-03   0.000000E+00   0.283368E+02  -0.128569E-01
   LPB:    1  -0.333905322102708E+00   0.837732791829198E-02   0.979536E-02   0.000000E+00   0.564062E+02  -0.633510E-18
   LPB:    2  -0.333904520096527E+00   0.245080754371223E-02   0.133487E-01   0.629214E-01   0.811813E+02   0.176042E-15
   LPB:    3  -0.333904374204482E+00   0.117669783990651E-02   0.184879E-01   0.131343E+00   0.161781E+03   0.177748E-15
   LPB:    4  -0.333904318378994E+00   0.981198087840854E-03   0.255489E-01   0.276896E+00   0.114062E+03   0.176153E-15
   LPB:    5  -0.333904275298298E+00   0.384036903122166E-03   0.289373E-01   0.681339E+00   0.576676E+03   0.172073E-15
  Finished solving LPB equations
  A_corr:   -0.258596214102809     
 End minimization
 Ecorr=   1646.97426194966     
 A_corr= -0.258596214102809     
 Ecorr_band=  -1647.23285816376     
 End Solvation calculations
RMM:  31    -0.133742059970E+03   -0.63162E-05   -0.22938E-06  6927   0.513E-03
 Begin Solvation calculations
  rms_SCF =   4.434009437852986E-003 tol =   4.434009437852985E-004
 Begin minimization
 Creating dielectric and ionic cavities
  area:      143.446883361052     
  volume:    651.710545968562     
  Acav:     7.530961376455221E-002
  Solving linear dielectric/ionic screening model
        iter                  A_solv                     rms
   LPB:       -0.334011854660659E+00   0.378646445008093E-01
   LPB:    0  -0.334010694310311E+00   0.244261926519485E-01  -0.286175E-03   0.000000E+00   0.283371E+02  -0.810937E-02
   LPB:    1  -0.334007257886806E+00   0.611263954154614E-02   0.105068E-01   0.000000E+00   0.648664E+02  -0.108219E-18
   LPB:    2  -0.334007030855711E+00   0.127473827338166E-02   0.121981E-01   0.569058E-01   0.762647E+02  -0.405462E-16
   LPB:    3  -0.334006991357980E+00   0.906136547386936E-03   0.189226E-01   0.112149E+00   0.316371E+03  -0.445175E-16
   LPB:    4  -0.334006961974479E+00   0.606875701821480E-03   0.292161E-01   0.481824E+00   0.966269E+02  -0.459871E-16
   LPB:    5  -0.334006913509819E+00   0.420127406821786E-03   0.510470E-01   0.944006E+00   0.274699E+03  -0.454086E-16
  Finished solving LPB equations
  A_corr:   -0.258697299745267     
 End minimization
 Ecorr=   1646.88864405003     
 A_corr= -0.258697299745267     
 Ecorr_band=  -1647.14734134977     
 End Solvation calculations
   1 F= -.13374206E+03 E0= -.13374421E+03  d E =-.133742E+03
quench:  g(F)=  0.000E+00 g(S)=  0.000E+00 dE (1.order)= 0.000E+00
 bond charge predicted
       N       E                     dE             d eps       ncg     rms          rms(c)
 Begin Solvation calculations
  rms_SCF =   4.434009437852986E-003 tol =   4.434009437852985E-004
 Begin minimization
 Creating dielectric and ionic cavities
  area:      143.462552296748     
  volume:    651.717617903095     
  Acav:     7.531783995579253E-002
  Solving linear dielectric/ionic screening model
        iter                  A_solv                     rms
   LPB:       -0.334266888177085E+00   0.169619854036229E-02
   LPB:    0  -0.334266888164837E+00   0.170568055755436E-02   0.929752E-06   0.000000E+00   0.283368E+02   0.263462E-04
   LPB:    1  -0.334059874559501E+00   0.788933522374415E-03   0.156481E-01   0.000000E+00   0.555308E+06  -0.113782E-20
   LPB:    2  -0.334037276639703E+00   0.751303669526022E-03   0.275595E-01   0.619810E-01   0.748374E+05  -0.342602E-17
   LPB:    3  -0.334029756662819E+00   0.153159191235739E-02   0.329541E-01   0.278298E+00   0.256352E+05  -0.127247E-17
   LPB:    4  -0.334026500574639E+00   0.353279072136614E-02   0.350852E-01   0.406691E+00   0.228686E+04   0.397713E-17
   LPB:    5  -0.334025018868340E+00   0.648196135949610E-02   0.308975E-01   0.516733E+00   0.289761E+03  -0.326035E-17
   LPB:    6  -0.334024245614236E+00   0.456317804153211E-02   0.212099E-01   0.760231E+00   0.154764E+03  -0.560444E-17
   LPB:    7  -0.334023641962492E+00   0.364076054947359E-02   0.273813E-01   0.604711E+00   0.333332E+03  -0.125484E-16
   LPB:    8  -0.334023304876575E+00   0.344181558872777E-02   0.238288E-01   0.641663E+00   0.150967E+03  -0.149646E-16
   LPB:    9  -0.334023023330366E+00   0.119655931803188E-02   0.259874E-01   0.765857E+00   0.255465E+03  -0.153808E-16
   LPB:   10  -0.334022801161238E+00   0.351993802704460E-03   0.386095E-01   0.531132E+00   0.123711E+04   0.153163E-16
  Finished solving LPB equations
  A_corr:   -0.258704961205446     
 End minimization
 Ecorr=   1646.88674502972     
 A_corr= -0.258704961205446     
 Ecorr_band=  -1647.14544999093     
 End Solvation calculations
DAV:   1    -0.133742153489E+03   -0.99836E-04   -0.13178E-02 12546   0.156E-01    0.300E-02
 Begin Solvation calculations
  rms_SCF =   4.434009437852986E-003 tol =   4.434009437852985E-004
 Begin minimization
 Creating dielectric and ionic cavities
  area:      143.458408805940     
  volume:    651.709083529808     
  Acav:     7.531566462311824E-002
  Solving linear dielectric/ionic screening model
        iter                  A_solv                     rms
   LPB:       -0.334182126761585E+00   0.594651741868638E-01
   LPB:    0  -0.334180534622872E+00   0.513290726572880E-01  -0.335218E-03   0.000000E+00   0.283372E+02  -0.949913E-02
   LPB:    1  -0.334169606030819E+00   0.979659705723606E-02   0.108197E-01   0.000000E+00   0.654604E+02   0.148732E-18
   LPB:    2  -0.334168137239166E+00   0.251346791895901E-02   0.135669E-01   0.107184E+00   0.265258E+03  -0.348705E-17
   LPB:    3  -0.334167751280859E+00   0.222010271778756E-02   0.239414E-01   0.148906E+00   0.278718E+03  -0.110061E-16
   LPB:    4  -0.334167602444586E+00   0.151204790779665E-02   0.229071E-01   0.403041E+00   0.128701E+03  -0.300349E-16
   LPB:    5  -0.334167498734290E+00   0.837744109724124E-03   0.286338E-01   0.557448E+00   0.342171E+03  -0.365307E-16
   LPB:    6  -0.334167414725887E+00   0.522963651951902E-03   0.375665E-01   0.617417E+00   0.321949E+03  -0.321596E-16
   LPB:    7  -0.334167339904723E+00   0.349633206848130E-03   0.412211E-01   0.811677E+00   0.849096E+03  -0.210840E-16
  Finished solving LPB equations
  A_corr:   -0.258851675281605     
 End minimization
 Ecorr=   1646.83696671321     
 A_corr= -0.258851675281605     
 Ecorr_band=  -1647.09581838849     
 End Solvation calculations
RMM:   2    -0.133742194666E+03   -0.41177E-04   -0.39111E-04 11357   0.337E-02    0.248E-02
 Begin Solvation calculations
  rms_SCF =   4.434009437852986E-003 tol =   4.434009437852985E-004
 Begin minimization
 Creating dielectric and ionic cavities
  area:      143.456521373934     
  volume:    651.720664374924     
  Acav:     7.531467372131519E-002
  Solving linear dielectric/ionic screening model
        iter                  A_solv                     rms
   LPB:       -0.334168960464725E+00   0.625714363812293E-01
   LPB:    0  -0.334168592633430E+00   0.618157198578708E-01   0.161126E-03   0.000000E+00   0.283366E+02   0.456576E-02
   LPB:    1  -0.334159012454581E+00   0.526712247067769E-02   0.879240E-02   0.000000E+00   0.648560E+02   0.176647E-18
   LPB:    2  -0.334158162361941E+00   0.113782772745879E-02   0.163044E-01   0.478514E-01   0.157313E+03  -0.139407E-17
   LPB:    3  -0.334158018474459E+00   0.912287863585302E-03   0.253643E-01   0.108802E+00   0.208254E+03  -0.355514E-17
   LPB:    4  -0.334157957468972E+00   0.862370492700994E-03   0.296008E-01   0.363301E+00   0.196784E+03  -0.551946E-17
   LPB:    5  -0.334157916800964E+00   0.816826370657336E-03   0.292914E-01   0.673668E+00   0.217848E+03  -0.179829E-17
   LPB:    6  -0.334157875209372E+00   0.675414363348703E-03   0.355029E-01   0.843780E+00   0.216756E+03  -0.659130E-17
   LPB:    7  -0.334157821922205E+00   0.496798921480221E-03   0.450443E-01   0.100981E+01   0.359024E+03  -0.591531E-17
   LPB:    8  -0.334157747523891E+00   0.384367122125360E-03   0.508684E-01   0.123632E+01   0.946513E+03  -0.714653E-19
  Finished solving LPB equations
  A_corr:   -0.258843073802576     
 End minimization
 Ecorr=   1646.78383355972     
 A_corr= -0.258843073802576     
 Ecorr_band=  -1647.04267663352     
 End Solvation calculations
RMM:   3    -0.133742197931E+03   -0.32651E-05   -0.31453E-05  7732   0.162E-02
 Begin Solvation calculations
  rms_SCF =   4.434009437852986E-003 tol =   4.434009437852985E-004
 Begin minimization
 Creating dielectric and ionic cavities
  area:      143.457852812674     
  volume:    651.713139289487     
  Acav:     7.531537272665371E-002
  Solving linear dielectric/ionic screening model
        iter                  A_solv                     rms
   LPB:       -0.334284817679486E+00   0.670626784259021E-01
   LPB:    0  -0.334283536263141E+00   0.615967625833682E-01  -0.300735E-03   0.000000E+00   0.283370E+02  -0.852191E-02
   LPB:    1  -0.334271776972192E+00   0.752806099629964E-02   0.972717E-02   0.000000E+00   0.629220E+02  -0.702764E-18
   LPB:    2  -0.334270518403169E+00   0.203255875700486E-02   0.137543E-01   0.756907E-01   0.224035E+03   0.405620E-16
   LPB:    3  -0.334270272210930E+00   0.180277041352620E-02   0.241311E-01   0.111496E+00   0.196740E+03   0.350477E-16
   LPB:    4  -0.334270176840222E+00   0.115666359003663E-02   0.232690E-01   0.401736E+00   0.116798E+03   0.361895E-16
   LPB:    5  -0.334270111537942E+00   0.579181319760397E-03   0.279947E-01   0.569134E+00   0.330734E+03   0.252768E-16
   LPB:    6  -0.334270069983032E+00   0.369485277040910E-03   0.335938E-01   0.530287E+00   0.269427E+03   0.122242E-16
  Finished solving LPB equations
  A_corr:   -0.258954697256379     
 End minimization
 Ecorr=   1646.75025985814     
 A_corr= -0.258954697256379     
 Ecorr_band=  -1647.00921455539     
 End Solvation calculations
   2 F= -.13374220E+03 E0= -.13374433E+03  d E =-.137962E-03
quench:  g(F)=  0.000E+00 g(S)=  0.000E+00 dE (1.order)= 0.000E+00
 bond charge predicted
       N       E                     dE             d eps       ncg     rms          rms(c)
 Begin Solvation calculations
  rms_SCF =   4.434009437852986E-003 tol =   4.434009437852985E-004
 Begin minimization
 Creating dielectric and ionic cavities
  area:      143.479545557825     
  volume:    651.726622447867     
  Acav:     7.532676141785813E-002
  Solving linear dielectric/ionic screening model
        iter                  A_solv                     rms
   LPB:       -0.334810624351456E+00   0.224933266937797E-02
   LPB:    0  -0.334810624316840E+00   0.225205364929067E-02   0.156308E-05   0.000000E+00   0.283363E+02   0.442918E-04
   LPB:    1  -0.334338035429023E+00   0.756283271235116E-03   0.157324E-01   0.000000E+00   0.740904E+06   0.137811E-20
   LPB:    2  -0.334285678478012E+00   0.444231089939170E-03   0.274954E-01   0.633909E-01   0.208937E+06   0.748741E-18
   LPB:    3  -0.334268288117719E+00   0.573343053449255E-03   0.329992E-01   0.276752E+00   0.110884E+06   0.166841E-17
   LPB:    4  -0.334260766932651E+00   0.128997959594912E-02   0.356689E-01   0.400121E+00   0.372661E+05   0.268020E-17
   LPB:    5  -0.334257076876698E+00   0.344872405390673E-02   0.369939E-01   0.473049E+00   0.407444E+04  -0.963558E-19
   LPB:    6  -0.334255283611896E+00   0.818607098503448E-02   0.327296E-01   0.549289E+00   0.398066E+03   0.382942E-17
   LPB:    7  -0.334254406867231E+00   0.553118295700764E-02   0.190214E-01   0.841252E+00   0.143662E+03   0.263575E-17
   LPB:    8  -0.334253571754652E+00   0.182255878337692E-02   0.285807E-01   0.633933E+00   0.511212E+03   0.377587E-17
   LPB:    9  -0.334253033294707E+00   0.271022098792794E-02   0.357518E-01   0.515445E+00   0.497303E+03   0.640057E-17
   LPB:   10  -0.334252731013257E+00   0.274137071074090E-02   0.270746E-01   0.741302E+00   0.140477E+03  -0.361405E-17
   LPB:   11  -0.334252489936676E+00   0.108013388258196E-02   0.279544E-01   0.772423E+00   0.267371E+03  -0.248073E-16
   LPB:   12  -0.334252302445258E+00   0.410965070400241E-03   0.377907E-01   0.575296E+00   0.127451E+04  -0.557481E-16
  Finished solving LPB equations
  A_corr:   -0.258925541027400     
 End minimization
 Ecorr=   1646.73713345353     
 A_corr= -0.258925541027400     
 Ecorr_band=  -1646.99605899456     
 End Solvation calculations
DAV:   1    -0.133742273709E+03   -0.79042E-04   -0.26980E-02 14265   0.259E-01    0.512E-02
 Begin Solvation calculations
  rms_SCF =   4.434009437852986E-003 tol =   4.434009437852985E-004
 Begin minimization
 Creating dielectric and ionic cavities
  area:      143.479687095529     
  volume:    651.709358596351     
  Acav:     7.532683572515281E-002
  Solving linear dielectric/ionic screening model
        iter                  A_solv                     rms
   LPB:       -0.334483623295431E+00   0.557268287282372E-01
   LPB:    0  -0.334479725815153E+00   0.351214296871291E-01  -0.524480E-03   0.000000E+00   0.283372E+02  -0.148623E-01
   LPB:    1  -0.334471567274312E+00   0.104775642593928E-01   0.125264E-01   0.000000E+00   0.667457E+02  -0.689816E-19
   LPB:    2  -0.334470235265403E+00   0.315764291690676E-02   0.146720E-01   0.139390E+00   0.219358E+03   0.398470E-16
   LPB:    3  -0.334469807057624E+00   0.285318033122473E-02   0.212915E-01   0.221530E+00   0.328361E+03   0.513278E-16
   LPB:    4  -0.334469613365022E+00   0.194543280021291E-02   0.217141E-01   0.443529E+00   0.117452E+03   0.585394E-16
   LPB:    5  -0.334469483682608E+00   0.880342753081668E-03   0.283096E-01   0.513541E+00   0.272438E+03   0.511676E-16
   LPB:    6  -0.334469390465885E+00   0.385933437430625E-03   0.368427E-01   0.552327E+00   0.458523E+03   0.554747E-16
  Finished solving LPB equations
  A_corr:   -0.259142554740732     
 End minimization
 Ecorr=   1646.72125546739     
 A_corr= -0.259142554740732     
 Ecorr_band=  -1646.98039802213     
 End Solvation calculations
RMM:   2    -0.133742367956E+03   -0.94248E-04   -0.10322E-03 15304   0.627E-02    0.424E-02
 Begin Solvation calculations
  rms_SCF =   4.434009437852986E-003 tol =   4.434009437852985E-004
 Begin minimization
 Creating dielectric and ionic cavities
  area:      143.474941163016     
  volume:    651.729801732756     
  Acav:     7.532434411058331E-002
  Solving linear dielectric/ionic screening model
        iter                  A_solv                     rms
   LPB:       -0.334393234501540E+00   0.568636065338709E-01
   LPB:    0  -0.334391362602150E+00   0.506991626159022E-01   0.363484E-03   0.000000E+00   0.283362E+02   0.102998E-01
   LPB:    1  -0.334383787377442E+00   0.514883041299736E-02   0.928647E-02   0.000000E+00   0.672703E+02   0.131044E-18
   LPB:    2  -0.334382846654772E+00   0.173828155695967E-02   0.161572E-01   0.713756E-01   0.262199E+03   0.419096E-16
   LPB:    3  -0.334382620852411E+00   0.191106477303984E-02   0.259438E-01   0.149486E+00   0.194653E+03   0.480862E-16
   LPB:    4  -0.334382533071690E+00   0.104101545145354E-02   0.215294E-01   0.468460E+00   0.144671E+03   0.309995E-16
   LPB:    5  -0.334382480223913E+00   0.455453639569743E-03   0.279392E-01   0.463922E+00   0.364698E+03   0.333635E-16
   LPB:    6  -0.334382436767021E+00   0.358918461545414E-03   0.411756E-01   0.557965E+00   0.871236E+03   0.340431E-16
  Finished solving LPB equations
  A_corr:   -0.259058092656437     
 End minimization
 Ecorr=   1646.64350023354     
 A_corr= -0.259058092656437     
 Ecorr_band=  -1646.90255832620     
 End Solvation calculations
RMM:   3    -0.133742361791E+03    0.61654E-05   -0.11634E-04  8232   0.241E-02    0.384E-02
 Begin Solvation calculations
  rms_SCF =   4.434009437852986E-003 tol =   4.434009437852985E-004
 Begin minimization
 Creating dielectric and ionic cavities
  area:      143.476170083955     
  volume:    651.718161103474     
  Acav:     7.532498929407613E-002
  Solving linear dielectric/ionic screening model
        iter                  A_solv                     rms
   LPB:       -0.334522673913905E+00   0.807313969568126E-01
   LPB:    0  -0.334520815158243E+00   0.750228101853567E-01  -0.362202E-03   0.000000E+00   0.283367E+02  -0.102636E-01
   LPB:    1  -0.334505457281623E+00   0.731571239739560E-02   0.920366E-02   0.000000E+00   0.628538E+02  -0.669104E-18
   LPB:    2  -0.334504112789281E+00   0.180543233153738E-02   0.140608E-01   0.573030E-01   0.181107E+03   0.114661E-16
   LPB:    3  -0.334503888712882E+00   0.173323679750578E-02   0.242244E-01   0.967377E-01   0.208057E+03   0.152623E-16
   LPB:    4  -0.334503808004358E+00   0.973014276350773E-03   0.219684E-01   0.397170E+00   0.113884E+03   0.197102E-16
   LPB:    5  -0.334503760620461E+00   0.502697336955433E-03   0.270088E-01   0.477534E+00   0.400082E+03   0.147526E-16
   LPB:    6  -0.334503726177602E+00   0.345306065177705E-03   0.368277E-01   0.533088E+00   0.239611E+03   0.620823E-17
  Finished solving LPB equations
  A_corr:   -0.259178736883526     
 End minimization
 Ecorr=   1646.63504219115     
 A_corr= -0.259178736883526     
 Ecorr_band=  -1646.89422092804     
 End Solvation calculations
RMM:   4    -0.133742349353E+03    0.12438E-04   -0.14527E-05  7113   0.151E-02    0.204E-02
 Begin Solvation calculations
  rms_SCF =   4.434009437852986E-003 tol =   4.434009437852985E-004
 Begin minimization
 Creating dielectric and ionic cavities
  area:      143.471911107153     
  volume:    651.717630404409     
  Acav:     7.532275333125550E-002
  Solving linear dielectric/ionic screening model
        iter                  A_solv                     rms
   LPB:       -0.334660130610105E+00   0.506403114360994E-01
   LPB:    0  -0.334659460916764E+00   0.463899119880421E-01  -0.217409E-03   0.000000E+00   0.283368E+02  -0.616067E-02
   LPB:    1  -0.334653704568164E+00   0.608510088727741E-02   0.910416E-02   0.000000E+00   0.607758E+02   0.283707E-18
   LPB:    2  -0.334652844422649E+00   0.133681407395398E-02   0.184174E-01   0.738647E-01   0.786096E+02  -0.146394E-16
   LPB:    3  -0.334652727805866E+00   0.139451920255700E-02   0.221846E-01   0.112555E+00   0.235086E+03  -0.218437E-17
   LPB:    4  -0.334652677509932E+00   0.819227283508062E-03   0.227946E-01   0.419751E+00   0.878903E+02  -0.350563E-17
   LPB:    5  -0.334652641165806E+00   0.418178635103907E-03   0.317406E-01   0.518942E+00   0.310403E+03  -0.521206E-17
  Finished solving LPB equations
  A_corr:   -0.259329887834550     
 End minimization
 Ecorr=   1646.57341714673     
 A_corr= -0.259329887834550     
 Ecorr_band=  -1646.83274703456     
 End Solvation calculations
RMM:   5    -0.133742355113E+03   -0.57603E-05   -0.12857E-05  6953   0.177E-02
 Begin Solvation calculations
  rms_SCF =   4.434009437852986E-003 tol =   4.434009437852985E-004
 Begin minimization
 Creating dielectric and ionic cavities
  area:      143.474562110442     
  volume:    651.720048572232     
  Acav:     7.532414510798210E-002
  Solving linear dielectric/ionic screening model
        iter                  A_solv                     rms
   LPB:       -0.334712430055860E+00   0.526313674189076E-01
   LPB:    0  -0.334712187849741E+00   0.509726836840457E-01  -0.130747E-03   0.000000E+00   0.283367E+02  -0.370495E-02
   LPB:    1  -0.334705275329183E+00   0.508463964295160E-02   0.923414E-02   0.000000E+00   0.608879E+02  -0.229661E-18
   LPB:    2  -0.334704674924558E+00   0.134719280302824E-02   0.139529E-01   0.574830E-01   0.162953E+03   0.110424E-16
   LPB:    3  -0.334704570131216E+00   0.111073581885088E-02   0.239425E-01   0.101715E+00   0.165989E+03   0.217612E-16
   LPB:    4  -0.334704528896526E+00   0.754467669285826E-03   0.249735E-01   0.377241E+00   0.111118E+03   0.200676E-16
   LPB:    5  -0.334704495119010E+00   0.564280329713600E-03   0.311511E-01   0.656707E+00   0.387900E+03   0.229316E-16
   LPB:    6  -0.334704460219091E+00   0.404188193487676E-03   0.402345E-01   0.799965E+00   0.115975E+03   0.215074E-16
  Finished solving LPB equations
  A_corr:   -0.259380315111109     
 End minimization
 Ecorr=   1646.51116570448     
 A_corr= -0.259380315111109     
 Ecorr_band=  -1646.77054601959     
 End Solvation calculations
   3 F= -.13374236E+03 E0= -.13374451E+03  d E =-.157182E-03
quench:  g(F)=  0.000E+00 g(S)=  0.000E+00 dE (1.order)= 0.000E+00
 bond charge predicted
       N       E                     dE             d eps       ncg     rms          rms(c)
 Begin Solvation calculations
  rms_SCF =   4.434009437852986E-003 tol =   4.434009437852985E-004
 Begin minimization
 Creating dielectric and ionic cavities
  area:      143.510426132147     
  volume:    651.734843088510     
  Acav:     7.534297371937720E-002
  Solving linear dielectric/ionic screening model
        iter                  A_solv                     rms
   LPB:       -0.335945402397821E+00   0.346576224750211E-02
   LPB:    0  -0.335945402340569E+00   0.347053791146959E-02   0.201021E-05   0.000000E+00   0.283360E+02   0.569611E-04
   LPB:    1  -0.334902241049530E+00   0.124743252843410E-02   0.156963E-01   0.000000E+00   0.693455E+06   0.137404E-20
   LPB:    2  -0.334786906824933E+00   0.705005853423154E-03   0.275655E-01   0.629561E-01   0.162834E+06   0.364333E-18
   LPB:    3  -0.334748564523332E+00   0.853937296797622E-03   0.329935E-01   0.277752E+00   0.970197E+05  -0.362814E-17
   LPB:    4  -0.334731875222441E+00   0.169212592980532E-02   0.357444E-01   0.401773E+00   0.304866E+05  -0.468339E-17
   LPB:    5  -0.334723585470196E+00   0.368766950321225E-02   0.372437E-01   0.476714E+00   0.405269E+04  -0.368891E-17
   LPB:    6  -0.334719320956000E+00   0.809906626321881E-02   0.354163E-01   0.540975E+00   0.581473E+03   0.298273E-16
   LPB:    7  -0.334717260569565E+00   0.894753484872845E-02   0.245159E-01   0.697965E+00   0.147581E+03   0.286284E-16
   LPB:    8  -0.334715687420068E+00   0.515559713380635E-02   0.241294E-01   0.775754E+00   0.257187E+03   0.490975E-16
   LPB:    9  -0.334714678860426E+00   0.619451137074481E-02   0.274809E-01   0.562920E+00   0.222920E+03   0.713807E-16
   LPB:   10  -0.334713998659026E+00   0.302878553408030E-02   0.223564E-01   0.829018E+00   0.152380E+03   0.834755E-16
   LPB:   11  -0.334713413099851E+00   0.828374578132461E-03   0.337967E-01   0.569458E+00   0.815763E+03   0.103522E-15
   LPB:   12  -0.334713018662973E+00   0.400701350861975E-03   0.398438E-01   0.571374E+00   0.407057E+04   0.105505E-15
  Finished solving LPB equations
  A_corr:   -0.259370044943596     
 End minimization
 Ecorr=   1646.50143422712     
 A_corr= -0.259370044943596     
 Ecorr_band=  -1646.76080427206     
 End Solvation calculations
DAV:   1    -0.133742437822E+03   -0.88469E-04   -0.62056E-02 13842   0.383E-01    0.657E-02
 Begin Solvation calculations
  rms_SCF =   4.434009437852986E-003 tol =   4.434009437852985E-004
 Begin minimization
 Creating dielectric and ionic cavities
  area:      143.507731654513     
  volume:    651.740946304990     
  Acav:     7.534155911861909E-002
  Solving linear dielectric/ionic screening model
        iter                  A_solv                     rms
   LPB:       -0.334774977788935E+00   0.369686258964636E-01
   LPB:    0  -0.334774973213365E+00   0.368572606811347E-01  -0.179709E-04   0.000000E+00   0.283357E+02  -0.509219E-03
   LPB:    1  -0.334770993770138E+00   0.413405826471017E-02   0.944098E-02   0.000000E+00   0.649382E+02  -0.369602E-19
   LPB:    2  -0.334770345857104E+00   0.810370641430988E-03   0.174760E-01   0.879566E-01   0.226432E+03  -0.568105E-17
   LPB:    3  -0.334770123410456E+00   0.662494729941512E-03   0.313324E-01   0.191496E+00   0.644291E+03  -0.805475E-17
   LPB:    4  -0.334769974799810E+00   0.123160337634822E-02   0.389457E-01   0.537475E+00   0.527968E+03  -0.949960E-17
   LPB:    5  -0.334769863063066E+00   0.179669830421783E-02   0.340673E-01   0.859543E+00   0.154784E+03  -0.124317E-16
   LPB:    6  -0.334769763689005E+00   0.105758756831851E-02   0.300775E-01   0.100733E+01   0.160620E+03  -0.240874E-16
   LPB:    7  -0.334769672136099E+00   0.533180673573785E-03   0.351946E-01   0.787344E+00   0.775467E+03  -0.354623E-16
   LPB:    8  -0.334769593745237E+00   0.369716958708440E-03   0.384778E-01   0.783176E+00   0.147817E+04  -0.590908E-16
  Finished solving LPB equations
  A_corr:   -0.259428034626618     
 End minimization
 Ecorr=   1646.46408194823     
 A_corr= -0.259428034626618     
 Ecorr_band=  -1646.72350998286     
 End Solvation calculations
RMM:   2    -0.133742602798E+03   -0.16498E-03   -0.18219E-03 17808   0.768E-02    0.325E-02
 Begin Solvation calculations
  rms_SCF =   4.434009437852986E-003 tol =   4.434009437852985E-004
 Begin minimization
 Creating dielectric and ionic cavities
  area:      143.502435649906     
  volume:    651.734187359157     
  Acav:     7.533877871620079E-002
  Solving linear dielectric/ionic screening model
        iter                  A_solv                     rms
   LPB:       -0.334891696674014E+00   0.913632868068110E-01
   LPB:    0  -0.334890989923310E+00   0.890713168071384E-01  -0.223346E-03   0.000000E+00   0.283360E+02  -0.632874E-02
   LPB:    1  -0.334866297693182E+00   0.109051134208893E-01   0.959297E-02   0.000000E+00   0.668071E+02   0.163183E-18
   LPB:    2  -0.334863119310580E+00   0.264499321046539E-02   0.149643E-01   0.825168E-01   0.267098E+03   0.663978E-16
   LPB:    3  -0.334862507682198E+00   0.210993568376539E-02   0.246754E-01   0.116701E+00   0.258811E+03   0.742924E-16
   LPB:    4  -0.334862305370245E+00   0.167962605658300E-02   0.252220E-01   0.323608E+00   0.150492E+03   0.580803E-16
   LPB:    5  -0.334862200218594E+00   0.102969236862485E-02   0.242384E-01   0.540841E+00   0.267189E+03   0.455396E-16
   LPB:    6  -0.334862130684858E+00   0.600133470562596E-03   0.306228E-01   0.523407E+00   0.247411E+03   0.488357E-16
   LPB:    7  -0.334862082758552E+00   0.325088224924039E-03   0.350271E-01   0.602585E+00   0.513963E+03   0.612999E-16
  Finished solving LPB equations
  A_corr:   -0.259523304042351     
 End minimization
 Ecorr=   1646.42486200041     
 A_corr= -0.259523304042351     
 Ecorr_band=  -1646.68438530446     
 End Solvation calculations
RMM:   3    -0.133742596425E+03    0.63732E-05   -0.86958E-05  9192   0.181E-02
 Begin Solvation calculations
  rms_SCF =   4.434009437852986E-003 tol =   4.434009437852985E-004
 Begin minimization
 Creating dielectric and ionic cavities
  area:      143.498891198068     
  volume:    651.745744038872     
  Acav:     7.533691787898567E-002
  Solving linear dielectric/ionic screening model
        iter                  A_solv                     rms
   LPB:       -0.334880600468687E+00   0.920117117800513E-01
   LPB:    0  -0.334880126453267E+00   0.911896676759046E-01   0.182914E-03   0.000000E+00   0.283354E+02   0.518294E-02
   LPB:    1  -0.334859337072448E+00   0.842791423295320E-02   0.894353E-02   0.000000E+00   0.624836E+02   0.341717E-18
   LPB:    2  -0.334857401172471E+00   0.187107047704258E-02   0.155279E-01   0.536335E-01   0.154146E+03   0.195550E-17
   LPB:    3  -0.334857121845223E+00   0.118603131426403E-02   0.233528E-01   0.959411E-01   0.171114E+03   0.765960E-17
   LPB:    4  -0.334857032478523E+00   0.971349550660848E-03   0.266335E-01   0.280527E+00   0.189075E+03   0.821554E-17
   LPB:    5  -0.334856988388821E+00   0.773202030669392E-03   0.251494E-01   0.522470E+00   0.218213E+03   0.186160E-16
   LPB:    6  -0.334856956740641E+00   0.521760310382509E-03   0.301836E-01   0.598093E+00   0.188434E+03   0.266978E-16
   LPB:    7  -0.334856928786864E+00   0.320624281970268E-03   0.375846E-01   0.709336E+00   0.345114E+03   0.371971E-16
  Finished solving LPB equations
  A_corr:   -0.259520010907879     
 End minimization
 Ecorr=   1646.37703814719     
 A_corr= -0.259520010907879     
 Ecorr_band=  -1646.63655815810     
 End Solvation calculations
   4 F= -.13374260E+03 E0= -.13374477E+03  d E =-.241312E-03
quench:  g(F)=  0.000E+00 g(S)=  0.000E+00 dE (1.order)= 0.000E+00
 bond charge predicted
       N       E                     dE             d eps       ncg     rms          rms(c)
 Begin Solvation calculations
  rms_SCF =   4.434009437852986E-003 tol =   4.434009437852985E-004
 Begin minimization
 Creating dielectric and ionic cavities
  area:      143.519525467739     
  volume:    651.766099875988     
  Acav:     7.534775087056320E-002
  Solving linear dielectric/ionic screening model
        iter                  A_solv                     rms
   LPB:       -0.335877678796544E+00   0.302413200171322E-02
   LPB:    0  -0.335877678730455E+00   0.302558078433931E-02   0.215984E-05   0.000000E+00   0.283345E+02   0.611980E-04
   LPB:    1  -0.334941174588036E+00   0.898451745947342E-03   0.156959E-01   0.000000E+00   0.820611E+06   0.430199E-20
   LPB:    2  -0.334841908828023E+00   0.526338102374942E-03   0.272357E-01   0.610855E-01   0.298493E+06  -0.835606E-18
   LPB:    3  -0.334809549056475E+00   0.776840928279203E-03   0.327733E-01   0.270909E+00   0.157315E+06  -0.721058E-18
   LPB:    4  -0.334795600542123E+00   0.191399988186539E-02   0.356130E-01   0.396675E+00   0.376827E+05  -0.764674E-18
   LPB:    5  -0.334788782515942E+00   0.557831043759824E-02   0.368268E-01   0.472688E+00   0.377018E+04  -0.123012E-17
   LPB:    6  -0.334785595989815E+00   0.122649086398403E-01   0.307970E-01   0.558875E+00   0.303845E+03  -0.231646E-17
   LPB:    7  -0.334783899236850E+00   0.644565679835549E-02   0.183347E-01   0.894408E+00   0.154036E+03  -0.124626E-17
   LPB:    8  -0.334782303889138E+00   0.130979171900682E-02   0.312874E-01   0.550987E+00   0.801617E+03  -0.278846E-17
   LPB:    9  -0.334781275891003E+00   0.740400634170799E-03   0.393613E-01   0.512196E+00   0.706898E+04  -0.134201E-17
   LPB:   10  -0.334780643343127E+00   0.161420288878312E-02   0.390947E-01   0.619516E+00   0.208191E+04  -0.129369E-18
   LPB:   11  -0.334780279049643E+00   0.265281651806754E-02   0.327814E-01   0.686830E+00   0.298125E+03   0.418365E-17
   LPB:   12  -0.334780044659507E+00   0.189527090421903E-02   0.257411E-01   0.819384E+00   0.177073E+03   0.136875E-16
   LPB:   13  -0.334779852561087E+00   0.954690365243244E-03   0.323918E-01   0.651293E+00   0.325048E+03   0.123620E-16
   LPB:   14  -0.334779714819796E+00   0.673883505234753E-03   0.365528E-01   0.635412E+00   0.732575E+03   0.207581E-16
   LPB:   15  -0.334779615535279E+00   0.505942206499131E-03   0.368095E-01   0.715778E+00   0.878452E+03   0.383886E-16
   LPB:   16  -0.334779539984850E+00   0.293341854418829E-03   0.375160E-01   0.746619E+00   0.159538E+04   0.489368E-16
  Finished solving LPB equations
  A_corr:   -0.259431789114287     
 End minimization
 Ecorr=   1646.36445982307     
 A_corr= -0.259431789114287     
 Ecorr_band=  -1646.62389161218     
 End Solvation calculations
DAV:   1    -0.133742510667E+03    0.92131E-04   -0.54955E-02 14976   0.365E-01    0.949E-02
 Begin Solvation calculations
  rms_SCF =   4.434009437852986E-003 tol =   4.434009437852985E-004
 Begin minimization
 Creating dielectric and ionic cavities
  area:      143.545645971957     
  volume:    651.760238378498     
  Acav:     7.536146413527745E-002
  Solving linear dielectric/ionic screening model
        iter                  A_solv                     rms
   LPB:       -0.334620027429849E+00   0.165297033186426E+00
   LPB:    0  -0.334620022335727E+00   0.165256941429329E+00   0.189622E-04   0.000000E+00   0.283348E+02   0.537291E-03
   LPB:    1  -0.334524070103351E+00   0.290720339852709E-01   0.102111E-01   0.000000E+00   0.673126E+02   0.145489E-19
   LPB:    2  -0.334504295543205E+00   0.478346282422253E-02   0.162303E-01   0.129658E+00   0.251276E+03   0.290323E-17
   LPB:    3  -0.334500445247910E+00   0.414685290438706E-02   0.271928E-01   0.116214E+00   0.276963E+03   0.792159E-17
   LPB:    4  -0.334499155177672E+00   0.346374946107162E-02   0.271540E-01   0.335536E+00   0.230029E+03   0.279193E-16
   LPB:    5  -0.334498558582629E+00   0.270875009922399E-02   0.266143E-01   0.471829E+00   0.207958E+03   0.251603E-16
   LPB:    6  -0.334498242351600E+00   0.194345088077125E-02   0.259422E-01   0.543793E+00   0.226990E+03   0.278184E-16
   LPB:    7  -0.334498036343596E+00   0.920349122960875E-03   0.283185E-01   0.596784E+00   0.285121E+03   0.101053E-16
   LPB:    8  -0.334497898288541E+00   0.413561776625245E-03   0.348086E-01   0.545194E+00   0.614655E+03  -0.306684E-19
  Finished solving LPB equations
  A_corr:   -0.259136434153264     
 End minimization
 Ecorr=   1646.48999886975     
 A_corr= -0.259136434153264     
 Ecorr_band=  -1646.74913530390     
 End Solvation calculations
RMM:   2    -0.133742794109E+03   -0.28344E-03   -0.30651E-03 16780   0.894E-02    0.888E-02
 Begin Solvation calculations
  rms_SCF =   4.434009437852986E-003 tol =   4.434009437852985E-004
 Begin minimization
 Creating dielectric and ionic cavities
  area:      143.529686466749     
  volume:    651.786801117742     
  Acav:     7.535308539504325E-002
  Solving linear dielectric/ionic screening model
        iter                  A_solv                     rms
   LPB:       -0.334634707327051E+00   0.280700882681444E+00
   LPB:    0  -0.334629803852785E+00   0.277259488635670E+00   0.588324E-03   0.000000E+00   0.283335E+02   0.166693E-01
   LPB:    1  -0.334441512382870E+00   0.249701338212706E-01   0.885050E-02   0.000000E+00   0.624251E+02  -0.110208E-17
   LPB:    2  -0.334426139410040E+00   0.614697350974017E-02   0.152743E-01   0.473078E-01   0.140823E+03  -0.200550E-16
   LPB:    3  -0.334423953563506E+00   0.360045456670807E-02   0.228546E-01   0.950279E-01   0.131026E+03  -0.161082E-16
   LPB:    4  -0.334423355488160E+00   0.268987769956619E-02   0.244349E-01   0.255917E+00   0.161916E+03  -0.130069E-16
   LPB:    5  -0.334423074359872E+00   0.163802698698461E-02   0.231381E-01   0.496399E+00   0.232527E+03  -0.550848E-16
   LPB:    6  -0.334422923625114E+00   0.869960819376998E-03   0.277402E-01   0.447227E+00   0.186099E+03  -0.900569E-16
   LPB:    7  -0.334422836095828E+00   0.465789232287021E-03   0.316803E-01   0.508464E+00   0.397092E+03  -0.113017E-15
   LPB:    8  -0.334422778303132E+00   0.218978578152282E-03   0.366024E-01   0.571478E+00   0.453946E+03  -0.129186E-15
  Finished solving LPB equations
  A_corr:   -0.259069692908089     
 End minimization
 Ecorr=   1646.40530508995     
 A_corr= -0.259069692908089     
 Ecorr_band=  -1646.66437478286     
 End Solvation calculations
RMM:   3    -0.133742773620E+03    0.20489E-04   -0.28196E-04 12517   0.408E-02    0.900E-02
 Begin Solvation calculations
  rms_SCF =   4.434009437852986E-003 tol =   4.434009437852985E-004
 Begin minimization
 Creating dielectric and ionic cavities
  area:      143.533731650406     
  volume:    651.766440175260     
  Acav:     7.535520911646308E-002
  Solving linear dielectric/ionic screening model
        iter                  A_solv                     rms
   LPB:       -0.334548256970425E+00   0.156176311980998E+00
   LPB:    0  -0.334545788669575E+00   0.152817489359677E+00  -0.417404E-03   0.000000E+00   0.283345E+02  -0.118269E-01
   LPB:    1  -0.334487814430753E+00   0.137471563666412E-01   0.890146E-02   0.000000E+00   0.623783E+02  -0.176417E-18
   LPB:    2  -0.334483009155496E+00   0.368886579046496E-02   0.150958E-01   0.488751E-01   0.149108E+03   0.120844E-16
   LPB:    3  -0.334482298569878E+00   0.247678778862028E-02   0.229891E-01   0.971029E-01   0.122967E+03   0.367413E-17
   LPB:    4  -0.334482075765247E+00   0.174673726599437E-02   0.238269E-01   0.302526E+00   0.149852E+03  -0.798466E-17
   LPB:    5  -0.334481958147916E+00   0.858935705608110E-03   0.239347E-01   0.525517E+00   0.255041E+03  -0.707884E-17
   LPB:    6  -0.334481895256867E+00   0.493531992647384E-03   0.295410E-01   0.433231E+00   0.300578E+03  -0.118172E-16
   LPB:    7  -0.334481855428017E+00   0.286652366463604E-03   0.343645E-01   0.544407E+00   0.489183E+03  -0.120407E-16
  Finished solving LPB equations
  A_corr:   -0.259126646311554     
 End minimization
 Ecorr=   1646.46268778110     
 A_corr= -0.259126646311554     
 Ecorr_band=  -1646.72181442741     
 End Solvation calculations
RMM:   4    -0.133742661638E+03    0.11198E-03   -0.57385E-05  7927   0.263E-02    0.338E-02
 Begin Solvation calculations
  rms_SCF =   4.434009437852986E-003 tol =   4.434009437852985E-004
 Begin minimization
 Creating dielectric and ionic cavities
  area:      143.526818599245     
  volume:    651.768826839878     
  Acav:     7.535157976460385E-002
  Solving linear dielectric/ionic screening model
        iter                  A_solv                     rms
   LPB:       -0.334267967197448E+00   0.340508489328853E-01
   LPB:    0  -0.334266305665664E+00   0.211259743887452E-01   0.342462E-03   0.000000E+00   0.283344E+02   0.970345E-02
   LPB:    1  -0.334240268655780E+00   0.107898806377415E-01   0.174786E-01   0.000000E+00   0.324560E+03  -0.864728E-19
   LPB:    2  -0.334237710431795E+00   0.104154187317176E-01   0.192662E-01   0.891370E-01   0.126861E+03   0.336519E-16
[...]
        iter                  A_solv                     rms
   LPB:       -0.372743974566593E+00   0.438940069578911E-01
   LPB:    0  -0.372743472121814E+00   0.412629190622711E-01  -0.188643E-03   0.000000E+00   0.282382E+02  -0.532694E-02
   LPB:    1  -0.372738935959537E+00   0.364900723332257E-02   0.899519E-02   0.000000E+00   0.647533E+02   0.350154E-18
   LPB:    2  -0.372738578762996E+00   0.859984748518285E-03   0.144914E-01   0.488786E-01   0.171925E+03   0.993551E-18
   LPB:    3  -0.372738518884772E+00   0.838643799770010E-03   0.246408E-01   0.985864E-01   0.236395E+03  -0.257993E-17
   LPB:    4  -0.372738497343684E+00   0.544741283856181E-03   0.229765E-01   0.385806E+00   0.115364E+03  -0.298010E-17
   LPB:    5  -0.372738484536259E+00   0.250338821897612E-03   0.259049E-01   0.527347E+00   0.375858E+03  -0.141072E-17
   LPB:    6  -0.372738477538069E+00   0.134886064389361E-03   0.313382E-01   0.451682E+00   0.292044E+03   0.150704E-17
   LPB:    7  -0.372738472848640E+00   0.944830799517844E-04   0.363238E-01   0.578119E+00   0.760812E+03   0.403014E-17
  Finished solving LPB equations
  A_corr:   -0.296113820855064     
 End minimization
 Ecorr=   1633.84848111265     
 A_corr= -0.296113820855064     
 Ecorr_band=  -1634.14459493351     
 End Solvation calculations
 185 F= -.13376493E+03 E0= -.13376640E+03  d E =-.834184E-04
quench:  g(F)=  0.000E+00 g(S)=  0.000E+00 dE (1.order)= 0.000E+00
 bond charge predicted
       N       E                     dE             d eps       ncg     rms          rms(c)
 Begin Solvation calculations
  rms_SCF =   9.798922535680815E-004 tol =   9.798922535680815E-005
 Begin minimization
 Creating dielectric and ionic cavities
  area:      145.967519548169     
  volume:    653.829077753137     
  Acav:     7.663294776278889E-002
  Solving linear dielectric/ionic screening model
        iter                  A_solv                     rms
   LPB:       -0.372873329282514E+00   0.136172345987223E-02
   LPB:    0  -0.372873329264391E+00   0.137928659486735E-02   0.113293E-05   0.000000E+00   0.282378E+02   0.319914E-04
   LPB:    1  -0.372742313346040E+00   0.588652280966834E-03   0.157058E-01   0.000000E+00   0.494045E+06  -0.529919E-21
   LPB:    2  -0.372727511306912E+00   0.535785787859957E-03   0.278139E-01   0.637965E-01   0.901853E+05  -0.510850E-18
   LPB:    3  -0.372722532859807E+00   0.953637507147470E-03   0.329250E-01   0.284124E+00   0.298247E+05  -0.413859E-17
   LPB:    4  -0.372720406892023E+00   0.196759313302287E-02   0.350559E-01   0.401077E+00   0.361572E+04  -0.166546E-17
   LPB:    5  -0.372719415939479E+00   0.374868156605154E-02   0.337031E-01   0.484827E+00   0.468691E+03  -0.958187E-17
   LPB:    6  -0.372718942063697E+00   0.358221233692118E-02   0.246197E-01   0.654634E+00   0.150400E+03  -0.283173E-16
   LPB:    7  -0.372718590449583E+00   0.206629579713086E-02   0.263148E-01   0.694200E+00   0.266801E+03  -0.293299E-16
   LPB:    8  -0.372718374753243E+00   0.306267333325699E-02   0.292934E-01   0.551071E+00   0.267345E+03  -0.606647E-16
   LPB:    9  -0.372718245006187E+00   0.168557300352311E-02   0.201902E-01   0.872738E+00   0.149862E+03  -0.806854E-16
   LPB:   10  -0.372718122362842E+00   0.397871056899335E-03   0.321251E-01   0.594076E+00   0.635041E+03  -0.958495E-16
   LPB:   11  -0.372718037973517E+00   0.137518905630055E-03   0.399085E-01   0.553889E+00   0.638774E+04  -0.106768E-15
   LPB:   12  -0.372717983675877E+00   0.182808668605836E-03   0.403813E-01   0.635886E+00   0.657359E+04  -0.118106E-15
   LPB:   13  -0.372717947281394E+00   0.233964976828910E-03   0.398138E-01   0.679830E+00   0.234126E+04  -0.125399E-15
   LPB:   14  -0.372717922634358E+00   0.221876485157372E-03   0.367972E-01   0.732737E+00   0.161128E+04  -0.130528E-15
   LPB:   15  -0.372717904145184E+00   0.165172345242288E-03   0.380895E-01   0.724707E+00   0.156499E+04  -0.135582E-15
   LPB:   16  -0.372717889243386E+00   0.942450207544008E-04   0.397775E-01   0.771771E+00   0.301273E+04  -0.139667E-15
  Finished solving LPB equations
  A_corr:   -0.296084941480597     
 End minimization
 Ecorr=   1633.84636183139     
 A_corr= -0.296084941480597     
 Ecorr_band=  -1634.14244677287     
 End Solvation calculations
DAV:   1    -0.133764959759E+03   -0.30112E-04   -0.95351E-03 14364   0.161E-01    0.312E-02
 Begin Solvation calculations
  rms_SCF =   9.798922535680815E-004 tol =   9.798922535680815E-005
 Begin minimization
 Creating dielectric and ionic cavities
  area:      145.959716336238     
  volume:    653.801899734825     
  Acav:     7.662885107652469E-002
  Solving linear dielectric/ionic screening model
        iter                  A_solv                     rms
   LPB:       -0.373173558178145E+00   0.926241496390195E-01
   LPB:    0  -0.373165226680679E+00   0.690356637503891E-01  -0.768160E-03   0.000000E+00   0.282391E+02  -0.216921E-01
   LPB:    1  -0.373145658545521E+00   0.143119250728426E-01   0.103802E-01   0.000000E+00   0.682813E+02  -0.352548E-18
   LPB:    2  -0.373143030897660E+00   0.288337179024468E-02   0.141186E-01   0.987256E-01   0.148485E+03   0.838436E-17
   LPB:    3  -0.373142431342900E+00   0.272092922838527E-02   0.228275E-01   0.141122E+00   0.367233E+03   0.347390E-16
   LPB:    4  -0.373142228295798E+00   0.181059429516281E-02   0.208505E-01   0.370774E+00   0.102508E+03   0.483078E-16
   LPB:    5  -0.373142112798692E+00   0.755690601581934E-03   0.265677E-01   0.446412E+00   0.262125E+03   0.504015E-16
   LPB:    6  -0.373142052059711E+00   0.289846277904390E-03   0.332737E-01   0.419904E+00   0.273988E+03   0.632347E-16
   LPB:    7  -0.373142018440032E+00   0.196053322127326E-03   0.338863E-01   0.543505E+00   0.444335E+03   0.781707E-16
   LPB:    8  -0.373141997584507E+00   0.148158581040920E-03   0.353000E-01   0.595493E+00   0.492555E+03   0.861629E-16
   LPB:    9  -0.373141983591175E+00   0.106911814265288E-03   0.377301E-01   0.627749E+00   0.462725E+03   0.907598E-16
   LPB:   10  -0.373141973700646E+00   0.782205501862608E-04   0.399335E-01   0.667805E+00   0.558164E+03   0.937680E-16
  Finished solving LPB equations
  A_corr:   -0.296513122624121     
 End minimization
 Ecorr=   1633.81736592017     
 A_corr= -0.296513122624121     
 Ecorr_band=  -1634.11387904280     
 End Solvation calculations
RMM:   2    -0.133765034438E+03   -0.74679E-04   -0.46432E-04 11336   0.396E-02    0.635E-02
 Begin Solvation calculations
  rms_SCF =   9.798922535680815E-004 tol =   9.798922535680815E-005
 Begin minimization
 Creating dielectric and ionic cavities
  area:      145.958121628983     
  volume:    653.822601905336     
  Acav:     7.662801385521599E-002
  Solving linear dielectric/ionic screening model
        iter                  A_solv                     rms
   LPB:       -0.373031235990735E+00   0.927426898828733E-01
   LPB:    0  -0.373028459001887E+00   0.862536171738596E-01   0.443491E-03   0.000000E+00   0.282381E+02   0.125233E-01
   LPB:    1  -0.373008662847469E+00   0.784882687856579E-02   0.910153E-02   0.000000E+00   0.631804E+02  -0.737435E-18
   LPB:    2  -0.373006954204960E+00   0.227001955315487E-02   0.146036E-01   0.537928E-01   0.181479E+03   0.114858E-16
   LPB:    3  -0.373006664607432E+00   0.189026528903680E-02   0.234782E-01   0.105424E+00   0.158499E+03   0.288486E-16
   LPB:    4  -0.373006569380348E+00   0.105716548657348E-02   0.216693E-01   0.356275E+00   0.133829E+03   0.472248E-16
   LPB:    5  -0.373006514202044E+00   0.489273166854152E-03   0.265915E-01   0.472183E+00   0.342658E+03   0.515915E-16
   LPB:    6  -0.373006482554743E+00   0.294123743169817E-03   0.321791E-01   0.473955E+00   0.318681E+03   0.541719E-16
   LPB:    7  -0.373006464792880E+00   0.165323348194008E-03   0.327567E-01   0.551348E+00   0.535250E+03   0.605164E-16
   LPB:    8  -0.373006453843258E+00   0.915609370549667E-04   0.355530E-01   0.567981E+00   0.867384E+03   0.661273E-16
  Finished solving LPB equations
  A_corr:   -0.296378439988042     
 End minimization
 Ecorr=   1633.77366126083     
 A_corr= -0.296378439988042     
 Ecorr_band=  -1634.07003970082     
 End Solvation calculations
RMM:   3    -0.133764992212E+03    0.42226E-04   -0.34661E-05  7700   0.187E-02    0.216E-02
 Begin Solvation calculations
  rms_SCF =   9.798922535680815E-004 tol =   9.798922535680815E-005
 Begin minimization
 Creating dielectric and ionic cavities
  area:      145.960241790395     
  volume:    653.822007040997     
  Acav:     7.662912693995763E-002
  Solving linear dielectric/ionic screening model
        iter                  A_solv                     rms
   LPB:       -0.373113827588551E+00   0.589771273487559E-01
   LPB:    0  -0.373113442738449E+00   0.573949726944237E-01  -0.165098E-03   0.000000E+00   0.282381E+02  -0.466207E-02
   LPB:    1  -0.373104670246795E+00   0.496830440963016E-02   0.895006E-02   0.000000E+00   0.659575E+02  -0.804223E-19
   LPB:    2  -0.373104006579648E+00   0.931310149735333E-03   0.143344E-01   0.472362E-01   0.181760E+03  -0.845155E-17
   LPB:    3  -0.373103907132021E+00   0.800101881793416E-03   0.250636E-01   0.856995E-01   0.298213E+03  -0.243086E-16
   LPB:    4  -0.373103874980819E+00   0.648773328812747E-03   0.252902E-01   0.320401E+00   0.125238E+03  -0.247772E-16
   LPB:    5  -0.373103858765122E+00   0.405302120345302E-03   0.235464E-01   0.541710E+00   0.354349E+03  -0.329748E-16
   LPB:    6  -0.373103850273486E+00   0.193051307626035E-03   0.276116E-01   0.446569E+00   0.148854E+03  -0.351950E-16
   LPB:    7  -0.373103845112711E+00   0.108994396359667E-03   0.330954E-01   0.507046E+00   0.783176E+03  -0.371028E-16
   LPB:    8  -0.373103841340202E+00   0.578010395241334E-04   0.384879E-01   0.628578E+00   0.444068E+03  -0.383219E-16
  Finished solving LPB equations
  A_corr:   -0.296474714400244     
 End minimization
 Ecorr=   1633.75123752938     
 A_corr= -0.296474714400244     
 Ecorr_band=  -1634.04771224378     
 End Solvation calculations
RMM:   4    -0.133764992579E+03   -0.36701E-06   -0.11046E-05  7059   0.132E-02
 Begin Solvation calculations
  rms_SCF =   9.798922535680815E-004 tol =   9.798922535680815E-005
 Begin minimization
 Creating dielectric and ionic cavities
  area:      145.958903860370     
  volume:    653.821071067352     
  Acav:     7.662842452669451E-002
  Solving linear dielectric/ionic screening model
        iter                  A_solv                     rms
   LPB:       -0.373282390960187E+00   0.323586967789857E-01
   LPB:    0  -0.373281807558383E+00   0.273001249266362E-01  -0.203273E-03   0.000000E+00   0.282382E+02  -0.574007E-02
   LPB:    1  -0.373278943228823E+00   0.641360026926569E-02   0.112525E-01   0.000000E+00   0.558717E+02  -0.243329E-18
   LPB:    2  -0.373278311200146E+00   0.106372894329883E-02   0.148328E-01   0.167393E+00   0.130106E+03   0.838162E-17
   LPB:    3  -0.373278218651216E+00   0.863060314938932E-03   0.238565E-01   0.910439E-01   0.238606E+03   0.113892E-16
   LPB:    4  -0.373278190810367E+00   0.684137807943636E-03   0.225273E-01   0.318573E+00   0.944668E+02   0.125902E-16
   LPB:    5  -0.373278176025790E+00   0.340457118872775E-03   0.243905E-01   0.490471E+00   0.229375E+03   0.183135E-16
   LPB:    6  -0.373278167383952E+00   0.169295677944431E-03   0.314420E-01   0.453429E+00   0.158495E+03   0.220193E-16
   LPB:    7  -0.373278161829600E+00   0.119931943492695E-03   0.340494E-01   0.593509E+00   0.236966E+03   0.244852E-16
   LPB:    8  -0.373278157672223E+00   0.734873300620198E-04   0.384133E-01   0.663460E+00   0.230471E+03   0.261001E-16
  Finished solving LPB equations
  A_corr:   -0.296649733145529     
 End minimization
 Ecorr=   1633.70573883007     
 A_corr= -0.296649733145529     
 Ecorr_band=  -1634.00238856322     
 End Solvation calculations
 186 F= -.13376499E+03 E0= -.13376649E+03  d E =-.673770E-04
quench:  g(F)=  0.000E+00 g(S)=  0.000E+00 dE (1.order)= 0.000E+00
 bond charge predicted
       N       E                     dE             d eps       ncg     rms          rms(c)
 Begin Solvation calculations
  rms_SCF =   9.798922535680815E-004 tol =   9.798922535680815E-005
 Begin minimization
 Creating dielectric and ionic cavities
  area:      145.965263496018     
  volume:    653.827157556303     
  Acav:     7.663176333540940E-002
  Solving linear dielectric/ionic screening model
        iter                  A_solv                     rms
   LPB:       -0.373366158330011E+00   0.836408349681393E-03
   LPB:    0  -0.373366158322964E+00   0.842774302913099E-03   0.706494E-06   0.000000E+00   0.282379E+02   0.199499E-04
   LPB:    1  -0.373296625522868E+00   0.263967144326796E-03   0.159339E-01   0.000000E+00   0.723459E+06  -0.605206E-21
   LPB:    2  -0.373288395343748E+00   0.208611506867581E-03   0.276380E-01   0.682393E-01   0.277405E+06  -0.293497E-18
   LPB:    3  -0.373285697942808E+00   0.364087024306538E-03   0.326915E-01   0.277082E+00   0.101796E+06  -0.503765E-19
   LPB:    4  -0.373284573685645E+00   0.908175497818573E-03   0.350502E-01   0.388744E+00   0.163631E+05  -0.784735E-18
   LPB:    5  -0.373284048973365E+00   0.240355170830878E-02   0.353910E-01   0.462226E+00   0.128690E+04  -0.881954E-18
   LPB:    6  -0.373283823927516E+00   0.359172575583758E-02   0.250189E-01   0.606699E+00   0.184801E+03  -0.456227E-17
   LPB:    7  -0.373283661196757E+00   0.137755166460175E-02   0.205845E-01   0.878873E+00   0.212150E+03  -0.656673E-17
   LPB:    8  -0.373283533866587E+00   0.114957318532775E-02   0.336803E-01   0.478220E+00   0.491465E+03  -0.787411E-17
   LPB:    9  -0.373283462725547E+00   0.140006742924401E-02   0.286096E-01   0.657738E+00   0.179578E+03  -0.719339E-17
   LPB:   10  -0.373283410168349E+00   0.611111605767868E-03   0.260134E-01   0.812506E+00   0.180254E+03  -0.198106E-17
   LPB:   11  -0.373283367507522E+00   0.172542896307371E-03   0.368056E-01   0.573695E+00   0.126491E+04   0.273899E-17
   LPB:   12  -0.373283338957099E+00   0.895370054739477E-04   0.402729E-01   0.611622E+00   0.538401E+04   0.962110E-17
  Finished solving LPB equations
  A_corr:   -0.296651575621690     
 End minimization
 Ecorr=   1633.70007453045     
 A_corr= -0.296651575621690     
 Ecorr_band=  -1633.99672610607     
 End Solvation calculations
DAV:   1    -0.133765044257E+03   -0.52045E-04   -0.54198E-03 15786   0.148E-01    0.248E-02
 Begin Solvation calculations
  rms_SCF =   9.798922535680815E-004 tol =   9.798922535680815E-005
 Begin minimization
 Creating dielectric and ionic cavities
  area:      145.973801157500     
  volume:    653.845395632335     
  Acav:     7.663624560768746E-002
  Solving linear dielectric/ionic screening model
        iter                  A_solv                     rms
   LPB:       -0.373147390241710E+00   0.266427276274574E-01
   LPB:    0  -0.373146132504519E+00   0.129282014133329E-01   0.298470E-03   0.000000E+00   0.282370E+02   0.842790E-02
   LPB:    1  -0.373142676278335E+00   0.575884712833385E-02   0.152185E-01   0.000000E+00   0.128075E+03  -0.355994E-19
   LPB:    2  -0.373142176824818E+00   0.319708834918908E-02   0.146246E-01   0.150376E+00   0.197305E+03  -0.438237E-16
   LPB:    3  -0.373141978363213E+00   0.221726666193845E-02   0.217470E-01   0.267219E+00   0.145447E+03  -0.608388E-16
   LPB:    4  -0.373141901120677E+00   0.130256018562313E-02   0.208625E-01   0.405707E+00   0.131852E+03  -0.766073E-16
   LPB:    5  -0.373141851503288E+00   0.498530433494773E-03   0.247944E-01   0.540492E+00   0.264895E+03  -0.807017E-16
   LPB:    6  -0.373141819867247E+00   0.244246764836417E-03   0.347406E-01   0.455056E+00   0.439388E+03  -0.807862E-16
   LPB:    7  -0.373141799693188E+00   0.152292992903150E-03   0.387606E-01   0.571555E+00   0.855303E+03  -0.801992E-16
   LPB:    8  -0.373141785884448E+00   0.154187374702393E-03   0.401133E-01   0.661399E+00   0.905117E+03  -0.813299E-16
   LPB:    9  -0.373141775693946E+00   0.132419743993443E-03   0.398618E-01   0.742630E+00   0.672126E+03  -0.847853E-16
   LPB:   10  -0.373141767482257E+00   0.104487891681161E-03   0.404412E-01   0.794274E+00   0.124195E+04  -0.864007E-16
   LPB:   11  -0.373141760499284E+00   0.817664982409709E-04   0.420598E-01   0.817644E+00   0.124013E+04  -0.882131E-16
  Finished solving LPB equations
  A_corr:   -0.296505514891596     
 End minimization
 Ecorr=   1633.68101554048     
 A_corr= -0.296505514891596     
 Ecorr_band=  -1633.97752105537     
 End Solvation calculations
RMM:   2    -0.133765072258E+03   -0.28001E-04   -0.28692E-04  9989   0.321E-02    0.288E-02
 Begin Solvation calculations
  rms_SCF =   9.798922535680815E-004 tol =   9.798922535680815E-005
 Begin minimization
 Creating dielectric and ionic cavities
  area:      145.972602104733     
  volume:    653.835598775373     
  Acav:     7.663561610498472E-002
  Solving linear dielectric/ionic screening model
        iter                  A_solv                     rms
   LPB:       -0.373282305495977E+00   0.245514582367134E-01
   LPB:    0  -0.373281288573439E+00   0.117338271290691E-01  -0.268377E-03   0.000000E+00   0.282375E+02  -0.757830E-02
   LPB:    1  -0.373280279420388E+00   0.291917545753107E-02   0.137618E-01   0.000000E+00   0.508098E+02  -0.619634E-19
   LPB:    2  -0.373280106268156E+00   0.135675656700383E-02   0.153060E-01   0.154272E+00   0.232448E+03  -0.157904E-16
   LPB:    3  -0.373280067538636E+00   0.127192734844016E-02   0.205141E-01   0.166887E+00   0.985507E+02  -0.957758E-17
   LPB:    4  -0.373280050038187E+00   0.461783480187803E-03   0.191212E-01   0.484780E+00   0.119739E+03  -0.784143E-17
   LPB:    5  -0.373280038072143E+00   0.154411104374145E-03   0.278505E-01   0.469444E+00   0.515952E+03  -0.864172E-17
   LPB:    6  -0.373280029665710E+00   0.816978947970599E-04   0.388400E-01   0.503749E+00   0.394615E+03  -0.897230E-17
  Finished solving LPB equations
  A_corr:   -0.296644413560726     
 End minimization
 Ecorr=   1633.67885099580     
 A_corr= -0.296644413560726     
 Ecorr_band=  -1633.97549540936     
 End Solvation calculations
RMM:   3    -0.133765063758E+03    0.85003E-05   -0.25635E-05  7207   0.202E-02
 Begin Solvation calculations
  rms_SCF =   9.798922535680815E-004 tol =   9.798922535680815E-005
 Begin minimization
 Creating dielectric and ionic cavities
  area:      145.971955444112     
  volume:    653.841768644716     
  Acav:     7.663527660815901E-002
  Solving linear dielectric/ionic screening model
        iter                  A_solv                     rms
   LPB:       -0.373248906396709E+00   0.239153211966159E-01
   LPB:    0  -0.373248710278845E+00   0.222839337950943E-01   0.117859E-03   0.000000E+00   0.282372E+02   0.332801E-02
   LPB:    1  -0.373247210376749E+00   0.258898149330647E-02   0.971474E-02   0.000000E+00   0.632845E+02   0.722326E-19
   LPB:    2  -0.373247025761465E+00   0.693331692705309E-03   0.146342E-01   0.817087E-01   0.265654E+03  -0.114961E-16
   LPB:    3  -0.373246986438647E+00   0.573257971040043E-03   0.243872E-01   0.127815E+00   0.226499E+03  -0.115959E-16
   LPB:    4  -0.373246974364472E+00   0.419754307403498E-03   0.230335E-01   0.325099E+00   0.161459E+03  -0.134300E-16
   LPB:    5  -0.373246967682526E+00   0.206457793134875E-03   0.247121E-01   0.515816E+00   0.286108E+03  -0.141960E-16
   LPB:    6  -0.373246963402419E+00   0.155043365746269E-03   0.332911E-01   0.475482E+00   0.318628E+03  -0.134506E-16
   LPB:    7  -0.373246959999556E+00   0.893036941160146E-04   0.386121E-01   0.685479E+00   0.310641E+03  -0.144609E-16
  Finished solving LPB equations
  A_corr:   -0.296611683391397     
 End minimization
 Ecorr=   1633.65878077964     
 A_corr= -0.296611683391397     
 Ecorr_band=  -1633.95539246303     
 End Solvation calculations
 187 F= -.13376506E+03 E0= -.13376657E+03  d E =-.711790E-04
quench:  g(F)=  0.000E+00 g(S)=  0.000E+00 dE (1.order)= 0.000E+00
 reached required accuracy - stopping structural energy minimisation
