 vasp.5.4.4.18Apr17-6-g9f103f2a35 (build Feb 06 2024 13:54:16) complex          
  
 POSCAR found type information on POSCAR  Cu Rh Cu N  O 
 03/POSCAR found :  5 types and      40 ions
 scaLAPACK will be used

 ----------------------------------------------------------------------------- 
|                                                                             |
|  ADVICE TO THIS USER RUNNING 'VASP/VAMP'   (HEAR YOUR MASTER'S VOICE ...):  |
|                                                                             |
|      You enforced a specific xc-type in the INCAR file,                     |
|      a different type was found on the POTCAR file                          |
|          I HOPE YOU KNOW, WHAT YOU ARE  DOING                               |
|                                                                             |
 ----------------------------------------------------------------------------- 

 LDA part: xc-table for Pade appr. of Perdew
 POSCAR found type information on POSCAR  Cu Rh Cu N  O 
 00/POSCAR found :  5 types and      40 ions
 POSCAR found type information on POSCAR  Cu Rh Cu N  O 
 06/POSCAR found :  5 types and      40 ions
 Jacobian:    20.5888137679208     
 POSCAR, INCAR and KPOINTS ok, starting setup
 FFT: planning ...
 WAVECAR not read
 entering main loop
       N       E                     dE             d eps       ncg     rms          rms(c)
  Solvation turned off during non-self-consistent phase (first NELMDL steps)
DAV:   1     0.437125555360E+04    0.43713E+04   -0.18119E+05  4080   0.203E+03
DAV:   2     0.631514345140E+03   -0.37397E+04   -0.36124E+04  4134   0.473E+02
DAV:   3    -0.267934620656E+02   -0.65831E+03   -0.60598E+03  4917   0.235E+02
DAV:   4    -0.149424440283E+03   -0.12263E+03   -0.10991E+03  7080   0.952E+01
DAV:   5    -0.162037362480E+03   -0.12613E+02   -0.11101E+02  6360   0.302E+01    0.453E+01
 Begin Solvation calculations
  rms_SCF =    7.62611851928738      tol =   0.762611851928738     
 Begin minimization
 Creating dielectric and ionic cavities
  area:      173.045236053770     
  volume:    686.867673120746     
  Acav:     9.084874892822917E-002
  Solving linear dielectric/ionic screening model
        iter                  A_solv                     rms
   LPB:       -0.362242295924524E+03   0.234366296019226E+03
   LPB:    0  -0.125119807813269E+02   0.484060911895122E+02  -0.463967E+01   0.000000E+00   0.324929E+02  -0.150757E+03
   LPB:    1  -0.220670839788465E+01   0.710703878727791E+01   0.101468E-01   0.000000E+00   0.831853E+02  -0.132411E-13
   LPB:    2  -0.821270236531575E+00   0.128006592909439E+01   0.145991E-01   0.934401E-01   0.343750E+03   0.497054E-13
   LPB:    3  -0.508866940069652E+00   0.155837554611356E+01   0.261622E-01   0.125829E+00   0.609153E+03   0.564602E-13
   LPB:    4  -0.408834463163942E+00   0.115541256007338E+01   0.249158E-01   0.336220E+00   0.840496E+02   0.590286E-13
   LPB:    5  -0.359078481264930E+00   0.640855378870923E+00   0.229127E-01   0.540882E+00   0.487583E+03   0.962574E-13
  Finished solving LPB equations
  A_corr:   -0.268229732336701     
 End minimization
 Ecorr=   1827.42448920197     
 A_corr= -0.268229732336701     
 Ecorr_band=  -1827.69271893431     
 End Solvation calculations
RMM:   6    -0.175488935741E+03   -0.13452E+02   -0.36724E+02  4158   0.943E+01    0.452E+01
 Begin Solvation calculations
  rms_SCF =    7.62611851928738      tol =   0.762611851928738     
 Begin minimization
 Creating dielectric and ionic cavities
  area:      170.211367101574     
  volume:    699.831336707996     
  Acav:     8.936096772832620E-002
  Solving linear dielectric/ionic screening model
        iter                  A_solv                     rms
   LPB:       -0.214698707149880E+02   0.801574194123717E+02
   LPB:    0  -0.207966216622164E+02   0.790458973138823E+02   0.205498E+00   0.000000E+00   0.318852E+02   0.655235E+01
   LPB:    1  -0.205930158177112E+01   0.732978007900009E+01   0.903089E-02   0.000000E+00   0.734202E+02   0.389174E-16
   LPB:    2  -0.598157856632376E+00   0.174387244960551E+01   0.161783E-01   0.435294E-01   0.139357E+03  -0.751371E-14
   LPB:    3  -0.372827194064065E+00   0.964011485906750E+00   0.234751E-01   0.106280E+00   0.148389E+03  -0.729417E-14
   LPB:    4  -0.305988482813401E+00   0.960131092024401E+00   0.245400E-01   0.283753E+00   0.300527E+03  -0.278085E-13
   LPB:    5  -0.274229190407734E+00   0.453269213584221E+00   0.240608E-01   0.484626E+00   0.109865E+03  -0.269300E-13
  Finished solving LPB equations
  A_corr:   -0.184868222679408     
 End minimization
 Ecorr=   1742.51546514267     
 A_corr= -0.184868222679408     
 Ecorr_band=  -1742.70033336535     
 End Solvation calculations
RMM:   7    -0.154042366557E+03    0.21447E+02   -0.12860E+02  4204   0.474E+01    0.254E+01
 Begin Solvation calculations
  rms_SCF =    7.62611851928738      tol =   0.762611851928738     
 Begin minimization
 Creating dielectric and ionic cavities
  area:      168.414718832888     
  volume:    702.807810326365     
  Acav:     8.841772738726600E-002
  Solving linear dielectric/ionic screening model
        iter                  A_solv                     rms
   LPB:       -0.664860737657406E+01   0.439714833563365E+02
   LPB:    0  -0.661949650466557E+01   0.439250084536355E+02   0.428253E-01   0.000000E+00   0.317456E+02   0.135952E+01
   LPB:    1  -0.799278123210066E+00   0.414380354962436E+01   0.910940E-02   0.000000E+00   0.727052E+02   0.500938E-16
   LPB:    2  -0.324898177592363E+00   0.648926150256579E+00   0.161048E-01   0.461021E-01   0.140897E+03  -0.371954E-15
   LPB:    3  -0.252208308830210E+00   0.283164906162631E+00   0.235720E-01   0.104690E+00   0.319721E+03   0.216213E-14
   LPB:    4  -0.233715258469131E+00   0.223813011194042E+00   0.278076E-01   0.215659E+00   0.341650E+03   0.262991E-14
  Finished solving LPB equations
  A_corr:   -0.145297531081865     
 End minimization
 Ecorr=   1710.48665902534     
 A_corr= -0.145297531081865     
 Ecorr_band=  -1710.63195655642     
 End Solvation calculations
RMM:   8    -0.140417665232E+03    0.13625E+02   -0.96398E+00  4186   0.131E+01    0.169E+01
 Begin Solvation calculations
  rms_SCF =    2.77813010600041      tol =   0.277813010600041     
 Begin minimization
 Creating dielectric and ionic cavities
  area:      163.947942180444     
  volume:    704.050638414062     
  Acav:     8.607266964473315E-002
  Solving linear dielectric/ionic screening model
        iter                  A_solv                     rms
   LPB:       -0.100243029453563E+01   0.150152796552064E+02
   LPB:    0  -0.981338268753788E+00   0.149385405886615E+02   0.364864E-01   0.000000E+00   0.316874E+02   0.115616E+01
   LPB:    1  -0.298703523296062E+00   0.141097887052956E+01   0.915434E-02   0.000000E+00   0.729701E+02  -0.132765E-16
   LPB:    2  -0.237578798645937E+00   0.327914729785503E+00   0.167655E-01   0.488920E-01   0.142984E+03   0.102014E-14
   LPB:    3  -0.225706477415399E+00   0.132430417101712E+00   0.247290E-01   0.131683E+00   0.181495E+03   0.183758E-14
   LPB:    4  -0.220473468422012E+00   0.194256463157724E+00   0.352651E-01   0.309084E+00   0.193283E+03  -0.706232E-15
  Finished solving LPB equations
  A_corr:   -0.134400798777279     
 End minimization
 Ecorr=   1680.70168956247     
 A_corr= -0.134400798777279     
 Ecorr_band=  -1680.83609036125     
 End Solvation calculations
RMM:   9    -0.137079474298E+03    0.33382E+01   -0.52297E+00  4204   0.898E+00    0.941E+00
 Begin Solvation calculations
  rms_SCF =    2.77813010600041      tol =   0.277813010600041     
 Begin minimization
 Creating dielectric and ionic cavities
  area:      155.862728256246     
  volume:    702.883916110497     
  Acav:     8.182793233452891E-002
  Solving linear dielectric/ionic screening model
        iter                  A_solv                     rms
   LPB:       -0.137858163594328E+01   0.176440236999954E+02
   LPB:    0  -0.133513942341541E+01   0.176054259839666E+02   0.523183E-01   0.000000E+00   0.317421E+02   0.166069E+01
   LPB:    1  -0.376258980482191E+00   0.169439682434737E+01   0.920922E-02   0.000000E+00   0.727770E+02  -0.281908E-16
   LPB:    2  -0.285456342305166E+00   0.333928393775953E+00   0.167751E-01   0.519866E-01   0.145333E+03   0.580683E-14
   LPB:    3  -0.266944440749277E+00   0.242257941013175E+00   0.249148E-01   0.137265E+00   0.364277E+03   0.799038E-14
   LPB:    4  -0.259690507818157E+00   0.132785474201534E+00   0.328842E-01   0.296889E+00   0.136938E+03   0.846116E-14
  Finished solving LPB equations
  A_corr:   -0.177862575483628     
 End minimization
 Ecorr=   1637.87040327981     
 A_corr= -0.177862575483628     
 Ecorr_band=  -1638.04826585530     
 End Solvation calculations
RMM:  10    -0.135641945250E+03    0.14375E+01   -0.41537E+00  4214   0.486E+00    0.999E+00
 Begin Solvation calculations
  rms_SCF =    2.53120967079561      tol =   0.253120967079561     
 Begin minimization
 Creating dielectric and ionic cavities
  area:      155.343937826812     
  volume:    700.285283845068     
  Acav:     8.155556735907615E-002
  Solving linear dielectric/ionic screening model
        iter                  A_solv                     rms
   LPB:       -0.309689717858347E+00   0.210948883374501E+01
   LPB:    0  -0.308813046715298E+00   0.191549347689895E+01  -0.741795E-02   0.000000E+00   0.318639E+02  -0.236365E+00
   LPB:    1  -0.282811510187158E+00   0.554055143324002E+00   0.124909E-01   0.000000E+00   0.775080E+02   0.915226E-17
   LPB:    2  -0.277781703576148E+00   0.187383173559526E+00   0.162361E-01   0.148821E+00   0.183577E+03   0.135381E-14
   LPB:    3  -0.272529733381579E+00   0.284364422505233E+00   0.433639E-01   0.390952E+00   0.145635E+03   0.152944E-14
   LPB:    4  -0.268561969875063E+00   0.305425621282169E+00   0.293254E-01   0.111714E+01   0.407737E+02   0.131120E-14
   LPB:    5  -0.265419716331519E+00   0.143628329529558E+00   0.272304E-01   0.852874E+00   0.162693E+03   0.312089E-14
  Finished solving LPB equations
  A_corr:   -0.183864148972443     
 End minimization
 Ecorr=   1614.06196273603     
 A_corr= -0.183864148972443     
 Ecorr_band=  -1614.24582688500     
 End Solvation calculations
RMM:  11    -0.134877942264E+03    0.76400E+00   -0.57932E-01  4208   0.210E+00    0.414E+00
 Begin Solvation calculations
  rms_SCF =   0.436071288982894      tol =   4.360712889828942E-002
 Begin minimization
 Creating dielectric and ionic cavities
  area:      148.485168122754     
  volume:    695.740802603770     
  Acav:     7.795471326444579E-002
  Solving linear dielectric/ionic screening model
        iter                  A_solv                     rms
   LPB:       -0.310864386542696E+00   0.117577546141438E+01
   LPB:    0  -0.310297540933372E+00   0.135696042148138E+01   0.594499E-02   0.000000E+00   0.320770E+02   0.190697E+00
   LPB:    1  -0.286195161099481E+00   0.501666931208538E+00   0.135690E-01   0.000000E+00   0.108051E+03  -0.123769E-16
   LPB:    2  -0.282942432182300E+00   0.145670247252584E+00   0.149755E-01   0.122280E+00   0.183576E+03   0.131368E-14
   LPB:    3  -0.281488959092059E+00   0.175871896375649E+00   0.273378E-01   0.244780E+00   0.334707E+03   0.169232E-14
   LPB:    4  -0.280100134399543E+00   0.219735198545240E+00   0.310586E-01   0.841052E+00   0.743389E+02   0.251610E-14
   LPB:    5  -0.278363608344309E+00   0.129622237845906E+00   0.332061E-01   0.116949E+01   0.193584E+03   0.406097E-14
   LPB:    6  -0.277023996544692E+00   0.592536183857446E-01   0.356835E-01   0.717873E+00   0.636325E+02   0.426903E-14
   LPB:    7  -0.276209789761423E+00   0.326896096984912E-01   0.344315E-01   0.629893E+00   0.105597E+03   0.400481E-14
  Finished solving LPB equations
  A_corr:   -0.198255076496977     
 End minimization
 Ecorr=   1591.29392086094     
 A_corr= -0.198255076496977     
 Ecorr_band=  -1591.49217593744     
 End Solvation calculations
RMM:  12    -0.135152500515E+03   -0.27456E+00   -0.99562E-01  4203   0.274E+00    0.459E+00
 Begin Solvation calculations
  rms_SCF =   0.436071288982894      tol =   4.360712889828942E-002
 Begin minimization
 Creating dielectric and ionic cavities
  area:      148.554641638696     
  volume:    690.651179829374     
  Acav:     7.799118686031532E-002
  Solving linear dielectric/ionic screening model
        iter                  A_solv                     rms
   LPB:       -0.339120005803438E+00   0.954304722320889E+00
   LPB:    0  -0.336942898914644E+00   0.136022710662208E+01   0.116078E-01   0.000000E+00   0.323156E+02   0.375112E+00
   LPB:    1  -0.307255814282407E+00   0.513341449582034E+00   0.147498E-01   0.000000E+00   0.102068E+03  -0.154402E-16
   LPB:    2  -0.301497064245742E+00   0.185691486362177E+00   0.176073E-01   0.162500E+00   0.199516E+03   0.119941E-14
   LPB:    3  -0.299701387138283E+00   0.131830667063925E+00   0.237767E-01   0.230909E+00   0.197396E+03   0.457126E-14
   LPB:    4  -0.298900897231001E+00   0.171528502570268E+00   0.290745E-01   0.364559E+00   0.175992E+03   0.661456E-14
   LPB:    5  -0.298383298838216E+00   0.996242738812032E-01   0.220821E-01   0.851350E+00   0.162003E+03   0.750507E-14
   LPB:    6  -0.297846520066939E+00   0.386117310654065E-01   0.316352E-01   0.723888E+00   0.162603E+03   0.804620E-14
  Finished solving LPB equations
  A_corr:   -0.219855333206623     
 End minimization
 Ecorr=   1573.24288275798     
 A_corr= -0.219855333206623     
 Ecorr_band=  -1573.46273809118     
 End Solvation calculations
RMM:  13    -0.135167513163E+03   -0.15013E-01   -0.20622E-01  4185   0.170E+00    0.509E+00
 Begin Solvation calculations
  rms_SCF =   0.436071288982894      tol =   4.360712889828942E-002
 Begin minimization
 Creating dielectric and ionic cavities
  area:      148.952755112456     
  volume:    688.616038502903     
  Acav:     7.820019643403930E-002
  Solving linear dielectric/ionic screening model
        iter                  A_solv                     rms
   LPB:       -0.324324223269226E+00   0.451791631350005E+00
   LPB:    0  -0.320847092466027E+00   0.563750437305931E+00   0.146480E-01   0.000000E+00   0.324110E+02   0.474757E+00
   LPB:    1  -0.312872229406286E+00   0.313386817997445E+00   0.160571E-01   0.000000E+00   0.142887E+03   0.269695E-16
   LPB:    2  -0.311275106044112E+00   0.130404551725178E+00   0.176476E-01   0.182220E+00   0.132589E+03  -0.109635E-14
   LPB:    3  -0.310715831018190E+00   0.869145028978873E-01   0.221572E-01   0.278906E+00   0.243239E+03  -0.139329E-14
   LPB:    4  -0.310218785336020E+00   0.124241549758640E+00   0.329513E-01   0.597604E+00   0.117894E+03  -0.177223E-14
   LPB:    5  -0.309722724600892E+00   0.109842384449675E+00   0.278297E-01   0.118168E+01   0.193141E+03  -0.208354E-14
   LPB:    6  -0.309230157094892E+00   0.459569699467134E-01   0.324847E-01   0.850670E+00   0.756822E+02  -0.196187E-14
   LPB:    7  -0.308913251163060E+00   0.210430421687658E-01   0.339264E-01   0.616036E+00   0.232082E+03  -0.221753E-14
  Finished solving LPB equations
  A_corr:   -0.230713054729021     
 End minimization
 Ecorr=   1558.28288855703     
 A_corr= -0.230713054729021     
 Ecorr_band=  -1558.51360161176     
 End Solvation calculations
RMM:  14    -0.134847151547E+03    0.32036E+00   -0.10723E-01  4193   0.112E+00    0.282E+00
 Begin Solvation calculations
  rms_SCF =   0.436071288982894      tol =   4.360712889828942E-002
 Begin minimization
 Creating dielectric and ionic cavities
  area:      148.521665994177     
  volume:    686.439892882230     
  Acav:     7.797387464694271E-002
  Solving linear dielectric/ionic screening model
        iter                  A_solv                     rms
   LPB:       -0.330952680383592E+00   0.420359682520092E+00
   LPB:    0  -0.329195344099725E+00   0.636618562560654E+00   0.103971E-01   0.000000E+00   0.325130E+02   0.338042E+00
   LPB:    1  -0.321135302770435E+00   0.305526191376252E+00   0.145330E-01   0.000000E+00   0.143213E+03   0.202066E-16
   LPB:    2  -0.319722147446442E+00   0.971339692645417E-01   0.167294E-01   0.152310E+00   0.124890E+03   0.612702E-15
   LPB:    3  -0.319338628960385E+00   0.579960691442368E-01   0.211764E-01   0.214399E+00   0.301042E+03  -0.422498E-16
   LPB:    4  -0.319191320889077E+00   0.713667639434577E-01   0.231290E-01   0.351671E+00   0.167745E+03  -0.303745E-15
   LPB:    5  -0.319047981596758E+00   0.587277635392234E-01   0.277519E-01   0.810965E+00   0.223149E+03  -0.366766E-15
   LPB:    6  -0.318857643559853E+00   0.276058562544265E-01   0.425798E-01   0.865464E+00   0.788160E+02  -0.517871E-15
  Finished solving LPB equations
  A_corr:   -0.240883768912910     
 End minimization
 Ecorr=   1548.55032982792     
 A_corr= -0.240883768912910     
 Ecorr_band=  -1548.79121359683     
 End Solvation calculations
RMM:  15    -0.134743754424E+03    0.10340E+00   -0.11269E-01  4232   0.793E-01    0.869E-01
 Begin Solvation calculations
  rms_SCF =   0.203568009380945      tol =   2.035680093809447E-002
 Begin minimization
 Creating dielectric and ionic cavities
  area:      148.522744581634     
  volume:    684.420580945889     
  Acav:     7.797444090535760E-002
  Solving linear dielectric/ionic screening model
        iter                  A_solv                     rms
   LPB:       -0.337657381891544E+00   0.502320189094303E+00
   LPB:    0  -0.336573404799238E+00   0.629205589697732E+00   0.815390E-02   0.000000E+00   0.326077E+02   0.265880E+00
   LPB:    1  -0.328030614353681E+00   0.273561257848331E+00   0.144368E-01   0.000000E+00   0.177676E+03   0.336032E-17
   LPB:    2  -0.326776172393076E+00   0.922793882013595E-01   0.164922E-01   0.128542E+00   0.114823E+03   0.119307E-14
   LPB:    3  -0.326450917411762E+00   0.426185380190608E-01   0.224082E-01   0.190829E+00   0.177238E+03   0.211324E-14
   LPB:    4  -0.326249966560550E+00   0.618562669859256E-01   0.333280E-01   0.415397E+00   0.223360E+03   0.179908E-14
   LPB:    5  -0.326092243209458E+00   0.908093062863099E-01   0.271089E-01   0.964947E+00   0.186429E+03   0.159262E-14
   LPB:    6  -0.325925902906804E+00   0.411120678061724E-01   0.270431E-01   0.105720E+01   0.729496E+02   0.141166E-14
   LPB:    7  -0.325788151180737E+00   0.165398118585425E-01   0.352526E-01   0.635280E+00   0.256530E+03   0.950721E-15
  Finished solving LPB equations
  A_corr:   -0.247813710275379     
 End minimization
 Ecorr=   1541.01965969409     
 A_corr= -0.247813710275379     
 Ecorr_band=  -1541.26747340437     
 End Solvation calculations
RMM:  16    -0.134736429490E+03    0.73249E-02   -0.29176E-02  4235   0.436E-01    0.317E-01
 Begin Solvation calculations
  rms_SCF =   0.203568009380945      tol =   2.035680093809447E-002
 Begin minimization
 Creating dielectric and ionic cavities
  area:      148.714845900294     
  volume:    683.333928086350     
  Acav:     7.807529409765453E-002
  Solving linear dielectric/ionic screening model
        iter                  A_solv                     rms
   LPB:       -0.334911260910644E+00   0.534853696447439E+00
   LPB:    0  -0.334727533661183E+00   0.583361869796868E+00   0.335431E-02   0.000000E+00   0.326586E+02   0.109547E+00
   LPB:    1  -0.330336544771773E+00   0.174399608774350E+00   0.141642E-01   0.000000E+00   0.119133E+03  -0.348654E-17
   LPB:    2  -0.329713849797342E+00   0.761701099795561E-01   0.151805E-01   0.132318E+00   0.177948E+03  -0.227883E-15
   LPB:    3  -0.329564613321630E+00   0.501412557850629E-01   0.192997E-01   0.188510E+00   0.136242E+03   0.259068E-15
   LPB:    4  -0.329507059271000E+00   0.421580177497004E-01   0.212468E-01   0.350315E+00   0.176708E+03   0.396156E-15
   LPB:    5  -0.329450187659304E+00   0.297047254036745E-01   0.316606E-01   0.663121E+00   0.145816E+03   0.484827E-15
   LPB:    6  -0.329369964003652E+00   0.145139562867032E-01   0.456178E-01   0.979021E+00   0.878930E+02   0.526762E-15
  Finished solving LPB equations
  A_corr:   -0.251294669905997     
 End minimization
 Ecorr=   1537.40150023154     
 A_corr= -0.251294669905997     
 Ecorr_band=  -1537.65279490144     
 End Solvation calculations
RMM:  17    -0.134736938335E+03   -0.50885E-03   -0.77843E-03  4802   0.191E-01    0.345E-01
 Begin Solvation calculations
  rms_SCF =   0.203568009380945      tol =   2.035680093809447E-002
 Begin minimization
 Creating dielectric and ionic cavities
  area:      149.177762834772     
  volume:    681.958964630418     
  Acav:     7.831832548825554E-002
  Solving linear dielectric/ionic screening model
        iter                  A_solv                     rms
   LPB:       -0.347070128348339E+00   0.904117867812978E+00
   LPB:    0  -0.347049521625929E+00   0.924752314451448E+00   0.112226E-02   0.000000E+00   0.327231E+02   0.367237E-01
   LPB:    1  -0.336110719156038E+00   0.256924519589026E+00   0.138674E-01   0.000000E+00   0.124481E+03   0.240649E-18
   LPB:    2  -0.334725001712653E+00   0.109320518023693E+00   0.152431E-01   0.115246E+00   0.159342E+03   0.362554E-14
   LPB:    3  -0.334428594724847E+00   0.689551705282541E-01   0.193568E-01   0.168443E+00   0.116767E+03   0.357405E-14
   LPB:    4  -0.334297446892547E+00   0.683012818287738E-01   0.227758E-01   0.376039E+00   0.212552E+03   0.370265E-14
   LPB:    5  -0.334198602624029E+00   0.397890521781221E-01   0.252727E-01   0.679221E+00   0.103021E+03   0.385491E-14
   LPB:    6  -0.334103605866545E+00   0.152090006390318E-01   0.349724E-01   0.694519E+00   0.138649E+03   0.398234E-14
  Finished solving LPB equations
  A_corr:   -0.255785280378290     
 End minimization
 Ecorr=   1534.34565172264     
 A_corr= -0.255785280378290     
 Ecorr_band=  -1534.60143700302     
 End Solvation calculations
RMM:  18    -0.134738009164E+03   -0.10708E-02   -0.45983E-03  4185   0.172E-01    0.284E-01
 Begin Solvation calculations
  rms_SCF =   0.162425198894237      tol =   1.624251988942372E-002
 Begin minimization
 Creating dielectric and ionic cavities
  area:      149.571290305904     
  volume:    681.175087346530     
  Acav:     7.852492741059981E-002
  Solving linear dielectric/ionic screening model
        iter                  A_solv                     rms
   LPB:       -0.348424197149499E+00   0.888092216449243E+00
   LPB:    0  -0.348345378106608E+00   0.914480590199425E+00   0.219361E-02   0.000000E+00   0.327598E+02   0.718623E-01
   LPB:    1  -0.339776094536912E+00   0.225405810462331E+00   0.139003E-01   0.000000E+00   0.102367E+03  -0.449424E-17
   LPB:    2  -0.338698864900438E+00   0.107780152325823E+00   0.145614E-01   0.120001E+00   0.195092E+03   0.343266E-16
   LPB:    3  -0.338447969534908E+00   0.626810402552383E-01   0.185146E-01   0.183178E+00   0.119427E+03  -0.213200E-15
   LPB:    4  -0.338318929358783E+00   0.635990007404099E-01   0.246129E-01   0.386887E+00   0.186354E+03  -0.111051E-16
   LPB:    5  -0.338209746564843E+00   0.433209181591930E-01   0.289057E-01   0.720457E+00   0.926913E+02   0.114055E-15
   LPB:    6  -0.338101370463806E+00   0.174354158747251E-01   0.357539E-01   0.802490E+00   0.117823E+03   0.198361E-16
   LPB:    7  -0.338020341934816E+00   0.107532129586695E-01   0.368438E-01   0.725543E+00   0.254157E+03  -0.101398E-15
  Finished solving LPB equations
  A_corr:   -0.259495414524216     
 End minimization
 Ecorr=   1531.25198113309     
 A_corr= -0.259495414524216     
 Ecorr_band=  -1531.51147654761     
 End Solvation calculations
RMM:  19    -0.134737924959E+03    0.84205E-04   -0.12002E-03  4160   0.995E-02    0.122E-01
 Begin Solvation calculations
  rms_SCF =   0.162425198894237      tol =   1.624251988942372E-002
 Begin minimization
 Creating dielectric and ionic cavities
  area:      149.756532335304     
  volume:    680.866151886792     
  Acav:     7.862217947603482E-002
  Solving linear dielectric/ionic screening model
        iter                  A_solv                     rms
   LPB:       -0.344955908300347E+00   0.734119358455180E+00
   LPB:    0  -0.344953132604853E+00   0.738600308062524E+00   0.411561E-03   0.000000E+00   0.327743E+02   0.134886E-01
   LPB:    1  -0.340837621839268E+00   0.171378079697817E+00   0.133570E-01   0.000000E+00   0.826381E+02  -0.658210E-18
   LPB:    2  -0.340310809967236E+00   0.697507432703031E-01   0.135255E-01   0.126411E+00   0.228429E+03   0.494632E-15
   LPB:    3  -0.340194059053367E+00   0.341525406588610E-01   0.181121E-01   0.165497E+00   0.145423E+03   0.809814E-15
   LPB:    4  -0.340152546430947E+00   0.316796030971245E-01   0.223800E-01   0.287759E+00   0.177584E+03   0.758248E-15
   LPB:    5  -0.340118446278324E+00   0.249522232121297E-01   0.318552E-01   0.577108E+00   0.989642E+02   0.692325E-15
   LPB:    6  -0.340072553149363E+00   0.129648776287888E-01   0.442277E-01   0.969344E+00   0.913224E+02   0.555319E-15
  Finished solving LPB equations
  A_corr:   -0.261450373673329     
 End minimization
 Ecorr=   1529.64928085751     
 A_corr= -0.261450373673329     
 Ecorr_band=  -1529.91073123118     
 End Solvation calculations
RMM:  20    -0.134738485064E+03   -0.56010E-03   -0.78856E-04  4151   0.687E-02    0.125E-01
 Begin Solvation calculations
  rms_SCF =   0.162425198894237      tol =   1.624251988942372E-002
 Begin minimization
 Creating dielectric and ionic cavities
  area:      149.992230371476     
  volume:    680.651741097872     
  Acav:     7.874592094502465E-002
  Solving linear dielectric/ionic screening model
        iter                  A_solv                     rms
   LPB:       -0.356285452470099E+00   0.133681228437013E+01
   LPB:    0  -0.356251084320680E+00   0.132151308137875E+01  -0.144797E-02   0.000000E+00   0.327844E+02  -0.474708E-01
   LPB:    1  -0.344737245866903E+00   0.284152692047290E+00   0.130125E-01   0.000000E+00   0.766841E+02  -0.149856E-17
   LPB:    2  -0.343329484582538E+00   0.110967958475952E+00   0.130872E-01   0.121569E+00   0.241880E+03   0.640497E-16
   LPB:    3  -0.343046433688481E+00   0.451516510895728E-01   0.177089E-01   0.148591E+00   0.141940E+03  -0.300306E-15
   LPB:    4  -0.342943934158068E+00   0.480934021534393E-01   0.240495E-01   0.266651E+00   0.185745E+03  -0.167353E-15
   LPB:    5  -0.342880422082179E+00   0.320312067064313E-01   0.269408E-01   0.553134E+00   0.891065E+02  -0.684360E-16
   LPB:    6  -0.342825460802341E+00   0.139019482005461E-01   0.339699E-01   0.686306E+00   0.126857E+03  -0.206110E-15
  Finished solving LPB equations
  A_corr:   -0.264079539857317     
 End minimization
 Ecorr=   1528.27262243893     
 A_corr= -0.264079539857317     
 Ecorr_band=  -1528.53670197879     
 End Solvation calculations
RMM:  21    -0.134739450434E+03   -0.96537E-03   -0.66386E-04  4136   0.479E-02    0.590E-02
 Begin Solvation calculations
  rms_SCF =   0.107719386240469      tol =   1.077193862404689E-002
 Begin minimization
 Creating dielectric and ionic cavities
  area:      150.196751680257     
  volume:    680.582337260501     
  Acav:     7.885329463213468E-002
  Solving linear dielectric/ionic screening model
        iter                  A_solv                     rms
   LPB:       -0.355597155818924E+00   0.112736209139071E+01
   LPB:    0  -0.355571316679203E+00   0.111399040553662E+01  -0.125545E-02   0.000000E+00   0.327876E+02  -0.411632E-01
   LPB:    1  -0.347038802714502E+00   0.230627022109161E+00   0.132212E-01   0.000000E+00   0.774075E+02  -0.111736E-17
   LPB:    2  -0.346078989035436E+00   0.997319160169427E-01   0.131194E-01   0.113362E+00   0.244221E+03   0.427339E-15
   LPB:    3  -0.345873459874378E+00   0.393666952878596E-01   0.176294E-01   0.159354E+00   0.129340E+03   0.932636E-16
   LPB:    4  -0.345785741395691E+00   0.462189867203042E-01   0.262565E-01   0.286562E+00   0.175510E+03   0.996061E-16
   LPB:    5  -0.345720572620116E+00   0.353671860907976E-01   0.291360E-01   0.669508E+00   0.829920E+02   0.322047E-15
   LPB:    6  -0.345657846416243E+00   0.156532557741669E-01   0.342958E-01   0.817707E+00   0.112423E+03   0.558768E-15
   LPB:    7  -0.345609203344835E+00   0.803721373682704E-02   0.361930E-01   0.734833E+00   0.208169E+03   0.812670E-15
  Finished solving LPB equations
  A_corr:   -0.266755908712700     
 End minimization
 Ecorr=   1526.91748901648     
 A_corr= -0.266755908712700     
 Ecorr_band=  -1527.18424492519     
 End Solvation calculations
RMM:  22    -0.134740391797E+03   -0.94136E-03   -0.38081E-04  4104   0.447E-02    0.478E-02
 Begin Solvation calculations
  rms_SCF =   0.100182881558226      tol =   1.001828815582257E-002
 Begin minimization
 Creating dielectric and ionic cavities
  area:      150.354669019152     
  volume:    680.530118813733     
  Acav:     7.893620123505490E-002
  Solving linear dielectric/ionic screening model
        iter                  A_solv                     rms
   LPB:       -0.355902668806098E+00   0.106252939941558E+01
   LPB:    0  -0.355865613241459E+00   0.104584131617045E+01  -0.150339E-02   0.000000E+00   0.327901E+02  -0.492961E-01
   LPB:    1  -0.349339544723635E+00   0.214172924038254E+00   0.128118E-01   0.000000E+00   0.713396E+02   0.273808E-17
   LPB:    2  -0.348560236555400E+00   0.780285843505563E-01   0.128647E-01   0.118923E+00   0.249481E+03  -0.185985E-16
   LPB:    3  -0.348406656496208E+00   0.307808865990742E-01   0.178436E-01   0.142084E+00   0.151968E+03   0.158165E-15
   LPB:    4  -0.348359344494333E+00   0.312884723594324E-01   0.229265E-01   0.239763E+00   0.180561E+03   0.146228E-15
   LPB:    5  -0.348329363436489E+00   0.232656847567907E-01   0.283888E-01   0.511760E+00   0.935430E+02   0.182819E-15
   LPB:    6  -0.348296013623823E+00   0.120853925797699E-01   0.389509E-01   0.810729E+00   0.103039E+03   0.379652E-16
   LPB:    7  -0.348263386177377E+00   0.674538315408250E-02   0.397591E-01   0.958453E+00   0.130264E+03   0.427763E-16
  Finished solving LPB equations
  A_corr:   -0.269327184942322     
 End minimization
 Ecorr=   1525.65845476777     
 A_corr= -0.269327184942322     
 Ecorr_band=  -1525.92778195271     
 End Solvation calculations
RMM:  23    -0.134740810091E+03   -0.41829E-03   -0.31912E-04  4029   0.329E-02    0.296E-02
 Begin Solvation calculations
  rms_SCF =   5.795607099925196E-002 tol =   5.795607099925196E-003
 Begin minimization
 Creating dielectric and ionic cavities
  area:      150.431997033243     
  volume:    680.560485740749     
  Acav:     7.897679844245244E-002
  Solving linear dielectric/ionic screening model
        iter                  A_solv                     rms
   LPB:       -0.353141687417227E+00   0.727599963376080E+00
   LPB:    0  -0.353107372226240E+00   0.710984879373498E+00  -0.144676E-02   0.000000E+00   0.327886E+02  -0.474373E-01
   LPB:    1  -0.350365484545667E+00   0.137383864856586E+00   0.124980E-01   0.000000E+00   0.680228E+02   0.206563E-17
   LPB:    2  -0.350050512949589E+00   0.469426932850604E-01   0.126047E-01   0.113902E+00   0.257122E+03  -0.581818E-15
   LPB:    3  -0.349992610367649E+00   0.167157120201149E-01   0.177346E-01   0.130659E+00   0.157145E+03  -0.498637E-15
   LPB:    4  -0.349976224540151E+00   0.177062627377628E-01   0.236922E-01   0.211829E+00   0.165199E+03  -0.413982E-15
   LPB:    5  -0.349964629032098E+00   0.158919587863047E-01   0.309337E-01   0.541995E+00   0.974899E+02  -0.360735E-15
   LPB:    6  -0.349949010967917E+00   0.911755760598430E-02   0.415169E-01   0.100356E+01   0.802371E+02  -0.218652E-15
   LPB:    7  -0.349933004343016E+00   0.465489993404193E-02   0.389705E-01   0.109185E+01   0.108141E+03  -0.131325E-15
  Finished solving LPB equations
  A_corr:   -0.270956205900564     
 End minimization
 Ecorr=   1524.74812440335     
 A_corr= -0.270956205900564     
 Ecorr_band=  -1525.01908060925     
 End Solvation calculations
RMM:  24    -0.134740950929E+03   -0.14084E-03   -0.13995E-04  3534   0.254E-02    0.271E-02
 Begin Solvation calculations
  rms_SCF =   4.084606584988775E-002 tol =   4.084606584988775E-003
 Begin minimization
 Creating dielectric and ionic cavities
  area:      150.417839890100     
  volume:    680.689284534731     
  Acav:     7.896936594230272E-002
  Solving linear dielectric/ionic screening model
        iter                  A_solv                     rms
   LPB:       -0.351164766761655E+00   0.432260912965058E+00
   LPB:    0  -0.351122025884234E+00   0.413600356976843E+00  -0.161479E-02   0.000000E+00   0.327826E+02  -0.529369E-01
   LPB:    1  -0.350312367762720E+00   0.687712744216608E-01   0.114150E-01   0.000000E+00   0.711432E+02  -0.223205E-17
   LPB:    2  -0.350238428936750E+00   0.199291723856180E-01   0.118790E-01   0.877538E-01   0.256917E+03   0.189483E-15
   LPB:    3  -0.350226774319326E+00   0.434961118924927E-02   0.183539E-01   0.102018E+00   0.148564E+03   0.189681E-15
   LPB:    4  -0.350223978612450E+00   0.385880641170546E-02   0.281443E-01   0.156435E+00   0.205028E+03   0.187380E-15
  Finished solving LPB equations
  A_corr:   -0.271254612670147     
 End minimization
 Ecorr=   1524.49024677178     
 A_corr= -0.271254612670147     
 Ecorr_band=  -1524.76150138445     
 End Solvation calculations
RMM:  25    -0.134741131436E+03   -0.18051E-03   -0.55595E-05  2818   0.185E-02    0.135E-02
 Begin Solvation calculations
  rms_SCF =   1.828344302474733E-002 tol =   1.828344302474733E-003
 Begin minimization
 Creating dielectric and ionic cavities
  area:      150.421758177598     
  volume:    680.709750035690     
  Acav:     7.897142304323899E-002
  Solving linear dielectric/ionic screening model
        iter                  A_solv                     rms
   LPB:       -0.350506470029534E+00   0.151239886702668E+00
   LPB:    0  -0.350502752245937E+00   0.146076497349994E+00  -0.476257E-03   0.000000E+00   0.327816E+02  -0.156125E-01
   LPB:    1  -0.350408821407066E+00   0.242306596781682E-01   0.112784E-01   0.000000E+00   0.678470E+02  -0.385098E-18
   LPB:    2  -0.350399236313674E+00   0.753215645362678E-02   0.123008E-01   0.935623E-01   0.227602E+03   0.505426E-16
   LPB:    3  -0.350396822075994E+00   0.297004232716407E-02   0.248784E-01   0.124536E+00   0.103202E+03   0.579889E-16
   LPB:    4  -0.350393972211086E+00   0.480013823726364E-02   0.536762E-01   0.547122E+00   0.823224E+02   0.289981E-16
   LPB:    5  -0.350390515141747E+00   0.716466731330535E-02   0.443093E-01   0.146951E+01   0.115934E+03   0.148313E-17
   LPB:    6  -0.350387467452659E+00   0.784489460623788E-02   0.319897E-01   0.122109E+01   0.728911E+02  -0.152848E-16
   LPB:    7  -0.350385295345071E+00   0.285633027437860E-02   0.263186E-01   0.866278E+00   0.163146E+03  -0.727385E-16
   LPB:    8  -0.350384004074611E+00   0.143618014329984E-02   0.312142E-01   0.501241E+00   0.304897E+03  -0.161210E-15
  Finished solving LPB equations
  A_corr:   -0.271412581031372     
 End minimization
 Ecorr=   1524.11842464629     
 A_corr= -0.271412581031372     
 Ecorr_band=  -1524.38983722733     
 End Solvation calculations
RMM:  26    -0.134741195011E+03   -0.63574E-04   -0.24255E-05  2511   0.170E-02    0.273E-02
 Begin Solvation calculations
  rms_SCF =   1.828344302474733E-002 tol =   1.828344302474733E-003
 Begin minimization
 Creating dielectric and ionic cavities
  area:      150.421133336876     
  volume:    680.709550732174     
  Acav:     7.897109500185980E-002
  Solving linear dielectric/ionic screening model
        iter                  A_solv                     rms
   LPB:       -0.350367599669567E+00   0.986087595688582E-02
   LPB:    0  -0.350367592665298E+00   0.954667065348145E-02   0.206719E-04   0.000000E+00   0.327816E+02   0.677660E-03
   LPB:    1  -0.350366861371043E+00   0.346560652790132E-02   0.141188E-01   0.000000E+00   0.763954E+02  -0.382886E-20
   LPB:    2  -0.350366563710666E+00   0.188958032550678E-02   0.211551E-01   0.271652E+00   0.339834E+03   0.404586E-18
   LPB:    3  -0.350366204080825E+00   0.187492533115752E-02   0.366097E-01   0.698157E+00   0.326981E+03  -0.138712E-17
   LPB:    4  -0.350365890596814E+00   0.225180723894709E-02   0.323340E-01   0.986954E+00   0.146699E+03  -0.585438E-17
   LPB:    5  -0.350365769976743E+00   0.151499486884600E-02   0.217494E-01   0.572025E+00   0.193447E+03   0.468220E-17
  Finished solving LPB equations
  A_corr:   -0.271394674974883     
 End minimization
 Ecorr=   1524.18480058825     
 A_corr= -0.271394674974883     
 Ecorr_band=  -1524.45619526322     
 End Solvation calculations
RMM:  27    -0.134741234368E+03   -0.39357E-04   -0.93791E-06  2374   0.840E-03    0.365E-02
 Begin Solvation calculations
  rms_SCF =   1.828344302474733E-002 tol =   1.828344302474733E-003
 Begin minimization
 Creating dielectric and ionic cavities
  area:      150.418986683739     
  volume:    680.705952694995     
  Acav:     7.896996800896282E-002
  Solving linear dielectric/ionic screening model
        iter                  A_solv                     rms
   LPB:       -0.350414058978418E+00   0.559610000169081E-01
   LPB:    0  -0.350411420036757E+00   0.465092868756399E-01  -0.401248E-03   0.000000E+00   0.327818E+02  -0.131537E-01
   LPB:    1  -0.350382604948547E+00   0.139250570238639E-01   0.115865E-01   0.000000E+00   0.172063E+03   0.553953E-18
   LPB:    2  -0.350381161559803E+00   0.360219667862333E-02   0.119550E-01   0.485474E-01   0.104506E+03  -0.131725E-15
   LPB:    3  -0.350380611116797E+00   0.127794754313162E-02   0.224651E-01   0.202941E+00   0.171924E+03  -0.114179E-15
   LPB:    4  -0.350380394372887E+00   0.159403051316521E-02   0.311143E-01   0.284304E+00   0.386740E+03  -0.971183E-16
  Finished solving LPB equations
  A_corr:   -0.271410426363924     
 End minimization
 Ecorr=   1524.07408950276     
 A_corr= -0.271410426363924     
 Ecorr_band=  -1524.34549992912     
 End Solvation calculations
RMM:  28    -0.134741267351E+03   -0.32983E-04   -0.80536E-06  2422   0.753E-03    0.219E-02
 Begin Solvation calculations
  rms_SCF =   1.828344302474733E-002 tol =   1.828344302474733E-003
 Begin minimization
 Creating dielectric and ionic cavities
  area:      150.422419996740     
  volume:    680.703223136662     
  Acav:     7.897177049828867E-002
  Solving linear dielectric/ionic screening model
        iter                  A_solv                     rms
   LPB:       -0.350610975635242E+00   0.920900467867241E-01
   LPB:    0  -0.350607209105873E+00   0.816004850833132E-01  -0.479367E-03   0.000000E+00   0.327819E+02  -0.157146E-01
   LPB:    1  -0.350571995438095E+00   0.136827271592792E-01   0.111715E-01   0.000000E+00   0.766037E+02  -0.595857E-18
   LPB:    2  -0.350569391427065E+00   0.438948221891169E-02   0.116977E-01   0.706225E-01   0.201895E+03  -0.274755E-16
   LPB:    3  -0.350568923064829E+00   0.143013600322724E-02   0.188252E-01   0.111764E+00   0.116764E+03  -0.205381E-16
   LPB:    4  -0.350568743799898E+00   0.135110955016598E-02   0.340065E-01   0.211880E+00   0.795991E+02   0.327047E-17
  Finished solving LPB equations
  A_corr:   -0.271596973301609     
 End minimization
 Ecorr=   1523.89312120537     
 A_corr= -0.271596973301609     
 Ecorr_band=  -1524.16471817867     
 End Solvation calculations
RMM:  29    -0.134741322973E+03   -0.55622E-04   -0.53136E-06  2386   0.773E-03    0.280E-02
 Begin Solvation calculations
  rms_SCF =   1.828344302474733E-002 tol =   1.828344302474733E-003
 Begin minimization
 Creating dielectric and ionic cavities
  area:      150.425565834663     
  volume:    680.700009397703     
  Acav:     7.897342206319803E-002
  Solving linear dielectric/ionic screening model
        iter                  A_solv                     rms
   LPB:       -0.350791151619203E+00   0.971874836528907E-01
   LPB:    0  -0.350784607438454E+00   0.811714028392087E-01  -0.631865E-03   0.000000E+00   0.327821E+02  -0.207139E-01
   LPB:    1  -0.350741491594538E+00   0.155114403950315E-01   0.111204E-01   0.000000E+00   0.918992E+02  -0.138892E-17
   LPB:    2  -0.350738955773592E+00   0.422123227645008E-02   0.112537E-01   0.581176E-01   0.163510E+03  -0.298904E-15
   LPB:    3  -0.350738396412867E+00   0.156125079852731E-02   0.212374E-01   0.116887E+00   0.109246E+03  -0.292436E-15
   LPB:    4  -0.350738104071051E+00   0.117323296648529E-02   0.390455E-01   0.284269E+00   0.825635E+02  -0.296399E-15
  Finished solving LPB equations
  A_corr:   -0.271764682007853     
 End minimization
 Ecorr=   1523.68894624820     
 A_corr= -0.271764682007853     
 Ecorr_band=  -1523.96071093021     
 End Solvation calculations
RMM:  30    -0.134741360365E+03   -0.37392E-04   -0.87035E-06  2442   0.792E-03    0.296E-02
 Begin Solvation calculations
  rms_SCF =   1.828344302474733E-002 tol =   1.828344302474733E-003
 Begin minimization
 Creating dielectric and ionic cavities
  area:      150.422204451811     
  volume:    680.698715826048     
  Acav:     7.897165733720102E-002
  Solving linear dielectric/ionic screening model
        iter                  A_solv                     rms
   LPB:       -0.350701963643089E+00   0.313029610227254E-01
   LPB:    0  -0.350700657816241E+00   0.232797473191882E-01  -0.282253E-03   0.000000E+00   0.327822E+02  -0.925287E-02
   LPB:    1  -0.350687069746563E+00   0.635262923507648E-02   0.137382E-01   0.000000E+00   0.213336E+03  -0.317719E-18
   LPB:    2  -0.350685814040826E+00   0.300907683773599E-02   0.212017E-01   0.598809E-01   0.102404E+03  -0.748254E-16
   LPB:    3  -0.350685441378635E+00   0.336184010968795E-02   0.239846E-01   0.262341E+00   0.191817E+03  -0.815389E-16
   LPB:    4  -0.350685175212156E+00   0.163315723466471E-02   0.267897E-01   0.639444E+00   0.805058E+02  -0.641875E-16
  Finished solving LPB equations
  A_corr:   -0.271713517874955     
 End minimization
 Ecorr=   1523.62141627756     
 A_corr= -0.271713517874955     
 Ecorr_band=  -1523.89312979543     
 End Solvation calculations
RMM:  31    -0.134741382998E+03   -0.22632E-04   -0.50300E-06  2383   0.614E-03    0.292E-02
 Begin Solvation calculations
  rms_SCF =   1.828344302474733E-002 tol =   1.828344302474733E-003
 Begin minimization
 Creating dielectric and ionic cavities
  area:      150.425489545259     
  volume:    680.695875594587     
  Acav:     7.897338201126120E-002
  Solving linear dielectric/ionic screening model
        iter                  A_solv                     rms
   LPB:       -0.350786081125677E+00   0.402296872234401E-01
   LPB:    0  -0.350785256341276E+00   0.346033107439704E-01  -0.224319E-03   0.000000E+00   0.327823E+02  -0.735368E-02
   LPB:    1  -0.350780637035745E+00   0.519884980440721E-02   0.101434E-01   0.000000E+00   0.660472E+02  -0.996533E-19
   LPB:    2  -0.350780093381689E+00   0.159622323607880E-02   0.144867E-01   0.824063E-01   0.130716E+03  -0.713435E-16
   LPB:    3  -0.350779950367162E+00   0.133907068006671E-02   0.228626E-01   0.166688E+00   0.183064E+03  -0.806163E-16
   LPB:    4  -0.350779828453436E+00   0.157710237971110E-02   0.403513E-01   0.482992E+00   0.753442E+02  -0.807049E-16
  Finished solving LPB equations
  A_corr:   -0.271806446442175     
 End minimization
 Ecorr=   1523.52353220021     
 A_corr= -0.271806446442175     
 Ecorr_band=  -1523.79533864665     
 End Solvation calculations
RMM:  32    -0.134741376905E+03    0.60925E-05   -0.19750E-06  2346   0.521E-03
 Begin Solvation calculations
  rms_SCF =   1.828344302474733E-002 tol =   1.828344302474733E-003
 Begin minimization
 Creating dielectric and ionic cavities
  area:      150.431009379819     
  volume:    680.691756474476     
  Acav:     7.897627992440502E-002
  Solving linear dielectric/ionic screening model
        iter                  A_solv                     rms
   LPB:       -0.350961214923827E+00   0.640727259594006E-01
   LPB:    0  -0.350959156963153E+00   0.550728815230893E-01  -0.354334E-03   0.000000E+00   0.327825E+02  -0.116159E-01
   LPB:    1  -0.350947160908727E+00   0.809653290637619E-02   0.102835E-01   0.000000E+00   0.656172E+02  -0.110045E-18
   LPB:    2  -0.350945982424079E+00   0.232371941804543E-02   0.130996E-01   0.771198E-01   0.155067E+03  -0.657954E-16
   LPB:    3  -0.350945814414279E+00   0.133260920561905E-02   0.183883E-01   0.101561E+00   0.159209E+03  -0.788266E-16
   LPB:    4  -0.350945726054651E+00   0.132205262287753E-02   0.336539E-01   0.287360E+00   0.562856E+02  -0.807887E-16
  Finished solving LPB equations
  A_corr:   -0.271969446130246     
 End minimization
 Ecorr=   1523.39958806848     
 A_corr= -0.271969446130246     
 Ecorr_band=  -1523.67155751461     
 End Solvation calculations
   1 F= -.13474138E+03 E0= -.13473623E+03  d E =-.134741E+03
quench:  g(F)=  0.000E+00 g(S)=  0.000E+00 dE (1.order)= 0.000E+00
 bond charge predicted
       N       E                     dE             d eps       ncg     rms          rms(c)
 Begin Solvation calculations
  rms_SCF =   1.828344302474733E-002 tol =   1.828344302474733E-003
 Begin minimization
 Creating dielectric and ionic cavities
  area:      150.462525824512     
  volume:    680.689703258645     
  Acav:     7.899282605786867E-002
  Solving linear dielectric/ionic screening model
        iter                  A_solv                     rms
   LPB:       -0.351496845899747E+00   0.230226343401167E-02
   LPB:    0  -0.351496845894733E+00   0.231657086028032E-02  -0.553066E-06   0.000000E+00   0.327826E+02  -0.181309E-04
   LPB:    1  -0.351253600838225E+00   0.116571458736477E-02   0.153242E-01   0.000000E+00   0.329401E+06   0.138382E-20
   LPB:    2  -0.351234590159550E+00   0.145608236276902E-02   0.259777E-01   0.461032E-01   0.395604E+05   0.303112E-17
   LPB:    3  -0.351228869803961E+00   0.339412429043413E-02   0.320616E-01   0.243804E+00   0.685907E+04   0.100664E-16
   LPB:    4  -0.351226570737891E+00   0.693404021976888E-02   0.313155E-01   0.411485E+00   0.442361E+03   0.802328E-17
   LPB:    5  -0.351225562075379E+00   0.563282800536505E-02   0.203588E-01   0.674841E+00   0.182639E+03   0.225355E-16
   LPB:    6  -0.351224718613826E+00   0.286720260211112E-02   0.261134E-01   0.651942E+00   0.404541E+03   0.277602E-16
   LPB:    7  -0.351224193198823E+00   0.357617120015207E-02   0.299375E-01   0.543356E+00   0.184023E+03   0.181252E-16
   LPB:    8  -0.351223834689916E+00   0.209252346714818E-02   0.243198E-01   0.839949E+00   0.268387E+03   0.327489E-16
   LPB:    9  -0.351223525307793E+00   0.605168745837102E-03   0.342951E-01   0.611960E+00   0.301488E+03   0.131034E-16
  Finished solving LPB equations
  A_corr:   -0.272230699249924     
 End minimization
 Ecorr=   1523.33350199848     
 A_corr= -0.272230699249924     
 Ecorr_band=  -1523.60573269773     
 End Solvation calculations
DAV:   1    -0.134742400854E+03   -0.10179E-02   -0.16521E-02  4245   0.250E-01    0.453E-02
 Begin Solvation calculations
  rms_SCF =   1.828344302474733E-002 tol =   1.828344302474733E-003
 Begin minimization
 Creating dielectric and ionic cavities
  area:      150.428667695344     
  volume:    680.669575476412     
  Acav:     7.897505054005559E-002
  Solving linear dielectric/ionic screening model
        iter                  A_solv                     rms
   LPB:       -0.351700746426116E+00   0.256240280070995E+00
   LPB:    0  -0.351694957171217E+00   0.252020145700853E+00  -0.594290E-03   0.000000E+00   0.327835E+02  -0.194829E-01
   LPB:    1  -0.351502740037601E+00   0.291385917470266E-01   0.916804E-02   0.000000E+00   0.715703E+02  -0.855660E-18
   LPB:    2  -0.351477319916227E+00   0.432967637710332E-02   0.176371E-01   0.687440E-01   0.123917E+03   0.117249E-15
   LPB:    3  -0.351474119438050E+00   0.256087316775922E-02   0.241548E-01   0.919308E-01   0.356639E+03   0.132228E-15
   LPB:    4  -0.351473074681449E+00   0.223186415996148E-02   0.267226E-01   0.295069E+00   0.284293E+03   0.150134E-15
   LPB:    5  -0.351472628729517E+00   0.273180100534252E-02   0.271213E-01   0.420573E+00   0.219510E+03   0.152510E-15
   LPB:    6  -0.351472384999496E+00   0.181254070516597E-02   0.256159E-01   0.578659E+00   0.115589E+03   0.168634E-15
  Finished solving LPB equations
  A_corr:   -0.272497334459440     
 End minimization
 Ecorr=   1523.24451262043     
 A_corr= -0.272497334459440     
 Ecorr_band=  -1523.51700995489     
 End Solvation calculations
RMM:   2    -0.134742612637E+03   -0.21178E-03   -0.11829E-03  4794   0.851E-02    0.949E-02
 Begin Solvation calculations
  rms_SCF =   1.828344302474733E-002 tol =   1.828344302474733E-003
 Begin minimization
 Creating dielectric and ionic cavities
  area:      150.433161403350     
  volume:    680.670796119862     
  Acav:     7.897740973675899E-002
  Solving linear dielectric/ionic screening model
        iter                  A_solv                     rms
   LPB:       -0.351687506322259E+00   0.148837848144529E+00
   LPB:    0  -0.351687498688071E+00   0.148820689824295E+00  -0.215809E-04   0.000000E+00   0.327835E+02  -0.707496E-03
   LPB:    1  -0.351622817126568E+00   0.139070502055401E-01   0.889216E-02   0.000000E+00   0.738660E+02   0.192817E-19
   LPB:    2  -0.351617424359671E+00   0.239134609123279E-02   0.160790E-01   0.461083E-01   0.143460E+03   0.123729E-17
   LPB:    3  -0.351616650535739E+00   0.134195170505897E-02   0.243203E-01   0.948682E-01   0.261916E+03  -0.115311E-17
   LPB:    4  -0.351616406545939E+00   0.854025594442361E-03   0.280188E-01   0.273684E+00   0.344606E+03  -0.341810E-17
  Finished solving LPB equations
  A_corr:   -0.272638996809180     
 End minimization
 Ecorr=   1523.23037883847     
 A_corr= -0.272638996809180     
 Ecorr_band=  -1523.50301783528     
 End Solvation calculations
RMM:   3    -0.134742458112E+03    0.15452E-03   -0.14710E-04  4158   0.416E-02    0.363E-02
 Begin Solvation calculations
  rms_SCF =   1.119274555463322E-002 tol =   1.119274555463322E-003
 Begin minimization
 Creating dielectric and ionic cavities
  area:      150.434664588015     
  volume:    680.669358803958     
  Acav:     7.897819890870765E-002
  Solving linear dielectric/ionic screening model
        iter                  A_solv                     rms
   LPB:       -0.351727193386187E+00   0.165489642526067E-01
   LPB:    0  -0.351726811917797E+00   0.109337726894871E-01  -0.152551E-03   0.000000E+00   0.327835E+02  -0.500118E-02
   LPB:    1  -0.351724852860004E+00   0.540922341031806E-02   0.147412E-01   0.000000E+00   0.119490E+03  -0.181653E-18
   LPB:    2  -0.351724601879679E+00   0.168835784491250E-02   0.139782E-01   0.135105E+00   0.115077E+03   0.349343E-16
   LPB:    3  -0.351724470365802E+00   0.911296723327990E-03   0.248081E-01   0.295250E+00   0.344139E+03   0.394498E-16
   LPB:    4  -0.351724381972070E+00   0.144420070910997E-02   0.339016E-01   0.491839E+00   0.120096E+03   0.406089E-16
   LPB:    5  -0.351724305718901E+00   0.121507933428363E-02   0.281235E-01   0.103989E+01   0.211937E+03   0.522711E-16
   LPB:    6  -0.351724222597075E+00   0.502538310950136E-03   0.380046E-01   0.806660E+00   0.114570E+03   0.562231E-16
  Finished solving LPB equations
  A_corr:   -0.272746023688367     
 End minimization
 Ecorr=   1523.16291894495     
 A_corr= -0.272746023688367     
 Ecorr_band=  -1523.43566496864     
 End Solvation calculations
RMM:   4    -0.134742445796E+03    0.12316E-04   -0.28352E-05  2604   0.186E-02    0.183E-02
 Begin Solvation calculations
  rms_SCF =   7.139602099878337E-003 tol =   7.139602099878337E-004
 Begin minimization
 Creating dielectric and ionic cavities
  area:      150.435325269743     
  volume:    680.668966617370     
  Acav:     7.897854576661510E-002
  Solving linear dielectric/ionic screening model
        iter                  A_solv                     rms
   LPB:       -0.351934607219005E+00   0.327787055376441E-01
   LPB:    0  -0.351933484217085E+00   0.242547046317481E-01  -0.261744E-03   0.000000E+00   0.327835E+02  -0.858091E-02
   LPB:    1  -0.351928059065591E+00   0.851420740962140E-02   0.136444E-01   0.000000E+00   0.824615E+02  -0.407770E-18
   LPB:    2  -0.351927127481501E+00   0.255610903491116E-02   0.129402E-01   0.181061E+00   0.218877E+03   0.208677E-16
   LPB:    3  -0.351926929184754E+00   0.157933992945003E-02   0.219400E-01   0.125545E+00   0.159201E+03   0.235633E-16
   LPB:    4  -0.351926858573044E+00   0.109070105927282E-02   0.238284E-01   0.327871E+00   0.102466E+03   0.248311E-16
   LPB:    5  -0.351926804968326E+00   0.670410111205128E-03   0.288258E-01   0.627536E+00   0.310060E+03   0.244488E-16
  Finished solving LPB equations
  A_corr:   -0.272948259201711     
 End minimization
 Ecorr=   1523.09950314215     
 A_corr= -0.272948259201711     
 Ecorr_band=  -1523.37245140135     
 End Solvation calculations
RMM:   5    -0.134742444960E+03    0.83601E-06   -0.19505E-05  2411   0.209E-02
 Begin Solvation calculations
  rms_SCF =   7.139602099878337E-003 tol =   7.139602099878337E-004
 Begin minimization
 Creating dielectric and ionic cavities
  area:      150.438246829627     
  volume:    680.669213898030     
  Acav:     7.898007958555442E-002
  Solving linear dielectric/ionic screening model
        iter                  A_solv                     rms
   LPB:       -0.352272437712987E+00   0.473018635816669E-01
   LPB:    0  -0.352269540756049E+00   0.303011713982292E-01  -0.420396E-03   0.000000E+00   0.327835E+02  -0.137821E-01
   LPB:    1  -0.352255866348061E+00   0.128451316588823E-01   0.145588E-01   0.000000E+00   0.101725E+03  -0.417539E-18
   LPB:    2  -0.352254433883483E+00   0.342766933447465E-02   0.134564E-01   0.113337E+00   0.122896E+03  -0.174889E-15
   LPB:    3  -0.352253972335886E+00   0.215986746206921E-02   0.206612E-01   0.209849E+00   0.336559E+03  -0.191167E-15
   LPB:    4  -0.352253775962360E+00   0.211316243723892E-02   0.234285E-01   0.375213E+00   0.105862E+03  -0.197176E-15
   LPB:    5  -0.352253644136931E+00   0.124257732326159E-02   0.250209E-01   0.628578E+00   0.252699E+03  -0.199245E-15
   LPB:    6  -0.352253543175219E+00   0.471423197570074E-03   0.356750E-01   0.537151E+00   0.135868E+03  -0.180940E-15
  Finished solving LPB equations
  A_corr:   -0.273273463589665     
 End minimization
 Ecorr=   1522.96061257754     
 A_corr= -0.273273463589665     
 Ecorr_band=  -1523.23388604113     
 End Solvation calculations
   2 F= -.13474244E+03 E0= -.13473730E+03  d E =-.106806E-02
quench:  g(F)=  0.000E+00 g(S)=  0.000E+00 dE (1.order)= 0.000E+00
 bond charge predicted
       N       E                     dE             d eps       ncg     rms          rms(c)
 Begin Solvation calculations
  rms_SCF =   7.139602099878337E-003 tol =   7.139602099878337E-004
 Begin minimization
 Creating dielectric and ionic cavities
  area:      150.510102002456     
  volume:    680.660850856376     
  Acav:     7.901780355128925E-002
  Solving linear dielectric/ionic screening model
        iter                  A_solv                     rms
   LPB:       -0.353773055760077E+00   0.325786559907861E-02
   LPB:    0  -0.353773055719321E+00   0.327962915678513E-02  -0.157681E-05   0.000000E+00   0.327839E+02  -0.516942E-04
   LPB:    1  -0.352954987176714E+00   0.116046339298414E-02   0.152917E-01   0.000000E+00   0.612323E+06   0.102921E-20
   LPB:    2  -0.352894089335933E+00   0.105616048716900E-02   0.258624E-01   0.440147E-01   0.122075E+06   0.393105E-19
   LPB:    3  -0.352875838449285E+00   0.212413289289703E-02   0.323120E-01   0.239877E+00   0.374475E+05   0.137696E-17
   LPB:    4  -0.352868043958464E+00   0.615197987557638E-02   0.350673E-01   0.393518E+00   0.367155E+04   0.677731E-17
   LPB:    5  -0.352864666965408E+00   0.119435788027885E-01   0.287822E-01   0.527863E+00   0.291704E+03   0.897770E-17
   LPB:    6  -0.352862695859884E+00   0.561384682036318E-02   0.189185E-01   0.888010E+00   0.202641E+03   0.197564E-17
   LPB:    7  -0.352860879140330E+00   0.132957306346858E-02   0.333464E-01   0.522895E+00   0.887024E+03  -0.420677E-17
   LPB:    8  -0.352859676624327E+00   0.107830056404406E-02   0.395573E-01   0.557990E+00   0.156793E+04  -0.327682E-17
   LPB:    9  -0.352858943181139E+00   0.227159044392009E-02   0.381520E-01   0.632390E+00   0.151232E+04  -0.163399E-17
   LPB:   10  -0.352858518118265E+00   0.294575498871408E-02   0.303630E-01   0.728214E+00   0.176221E+03   0.202714E-18
   LPB:   11  -0.352858212918587E+00   0.168231391912329E-02   0.264872E-01   0.823075E+00   0.291440E+03  -0.309100E-16
   LPB:   12  -0.352857954056064E+00   0.868409061536057E-03   0.358369E-01   0.626889E+00   0.368204E+03  -0.619903E-16
   LPB:   13  -0.352857767217954E+00   0.720859355412119E-03   0.359310E-01   0.719876E+00   0.131575E+04  -0.984549E-16
   LPB:   14  -0.352857633803765E+00   0.547104856181691E-03   0.349887E-01   0.733293E+00   0.703492E+03  -0.121359E-15
  Finished solving LPB equations
  A_corr:   -0.273839830252476     
 End minimization
 Ecorr=   1522.87042791721     
 A_corr= -0.273839830252476     
 Ecorr_band=  -1523.14426774746     
 End Solvation calculations
DAV:   1    -0.134743705856E+03   -0.12601E-02   -0.52882E-02  4164   0.481E-01    0.621E-02
 Begin Solvation calculations
  rms_SCF =   7.139602099878337E-003 tol =   7.139602099878337E-004
 Begin minimization
 Creating dielectric and ionic cavities
  area:      150.456027514364     
  volume:    680.618606741140     
  Acav:     7.898941444504129E-002
  Solving linear dielectric/ionic screening model
        iter                  A_solv                     rms
   LPB:       -0.353658145726031E+00   0.123751999519641E+00
   LPB:    0  -0.353637783819726E+00   0.858666192019745E-01  -0.111450E-02   0.000000E+00   0.327859E+02  -0.365399E-01
   LPB:    1  -0.353555426241661E+00   0.341574574212427E-01   0.134198E-01   0.000000E+00   0.103589E+03   0.113765E-17
   LPB:    2  -0.353544801334140E+00   0.749264827497787E-02   0.131832E-01   0.131325E+00   0.161007E+03   0.183389E-15
   LPB:    3  -0.353541337738188E+00   0.510419960484283E-02   0.221763E-01   0.193791E+00   0.482528E+03   0.208912E-15
   LPB:    4  -0.353540209570951E+00   0.463197859470425E-02   0.219294E-01   0.329388E+00   0.144546E+03   0.217077E-15
   LPB:    5  -0.353539588534820E+00   0.225204275217832E-02   0.235278E-01   0.513086E+00   0.249074E+03   0.251527E-15
   LPB:    6  -0.353539230246773E+00   0.829839817472104E-03   0.326286E-01   0.416005E+00   0.223853E+03   0.248772E-15
   LPB:    7  -0.353539030845817E+00   0.535579964664525E-03   0.344923E-01   0.526467E+00   0.754189E+03   0.227451E-15
  Finished solving LPB equations
  A_corr:   -0.274549616400776     
 End minimization
 Ecorr=   1522.72870622220     
 A_corr= -0.274549616400776     
 Ecorr_band=  -1523.00325583860     
 End Solvation calculations
RMM:   2    -0.134743966049E+03   -0.26019E-03   -0.32240E-03  5905   0.128E-01    0.602E-02
 Begin Solvation calculations
  rms_SCF =   6.030427067749450E-003 tol =   6.030427067749450E-004
 Begin minimization
 Creating dielectric and ionic cavities
  area:      150.457552657306     
  volume:    680.630874044936     
  Acav:     7.899021514508581E-002
  Solving linear dielectric/ionic screening model
        iter                  A_solv                     rms
   LPB:       -0.353735502096131E+00   0.176143560902866E-01
   LPB:    0  -0.353735240285927E+00   0.133024801271258E-01  -0.126377E-03   0.000000E+00   0.327853E+02  -0.414332E-02
   LPB:    1  -0.353731916070091E+00   0.695867265976668E-02   0.148160E-01   0.000000E+00   0.137145E+03  -0.231014E-18
   LPB:    2  -0.353731535650897E+00   0.217895883573389E-02   0.136341E-01   0.124359E+00   0.100919E+03   0.305100E-16
   LPB:    3  -0.353731362972527E+00   0.705306901845029E-03   0.219592E-01   0.281829E+00   0.350717E+03   0.336359E-16
   LPB:    4  -0.353731261513495E+00   0.975172094081116E-03   0.378984E-01   0.340446E+00   0.176210E+03   0.338944E-16
   LPB:    5  -0.353731169392168E+00   0.150357836887373E-02   0.348999E-01   0.985975E+00   0.307302E+03   0.359048E-16
   LPB:    6  -0.353731088398903E+00   0.877846464868130E-03   0.288686E-01   0.106289E+01   0.811971E+02   0.512059E-16
   LPB:    7  -0.353731026722172E+00   0.399556052399342E-03   0.331469E-01   0.663216E+00   0.489287E+03   0.586247E-16
  Finished solving LPB equations
  A_corr:   -0.274740811577086     
 End minimization
 Ecorr=   1522.62262505601     
 A_corr= -0.274740811577086     
 Ecorr_band=  -1522.89736586759     
 End Solvation calculations
RMM:   3    -0.134743891191E+03    0.74858E-04   -0.16546E-04  4062   0.295E-02    0.418E-02
 Begin Solvation calculations
  rms_SCF =   6.030427067749450E-003 tol =   6.030427067749450E-004
 Begin minimization
 Creating dielectric and ionic cavities
  area:      150.458557284399     
  volume:    680.629940112322     
  Acav:     7.899074257430930E-002
  Solving linear dielectric/ionic screening model
        iter                  A_solv                     rms
   LPB:       -0.353911839405374E+00   0.298030466115318E-01
   LPB:    0  -0.353910497059245E+00   0.187531439918377E-01  -0.286159E-03   0.000000E+00   0.327854E+02  -0.938183E-02
   LPB:    1  -0.353904748390359E+00   0.655219415859939E-02   0.152914E-01   0.000000E+00   0.106963E+03  -0.125839E-18
   LPB:    2  -0.353904082172265E+00   0.341479500464065E-02   0.132328E-01   0.133919E+00   0.239680E+03  -0.538296E-16
   LPB:    3  -0.353903853806875E+00   0.176880837299017E-02   0.207134E-01   0.218986E+00   0.131635E+03  -0.598875E-16
   LPB:    4  -0.353903773940471E+00   0.118934148145217E-02   0.234533E-01   0.308873E+00   0.130504E+03  -0.614330E-16
   LPB:    5  -0.353903725781030E+00   0.689374906838792E-03   0.245373E-01   0.576362E+00   0.318390E+03  -0.605325E-16
   LPB:    6  -0.353903684172615E+00   0.299634439421135E-03   0.368554E-01   0.575208E+00   0.158536E+03  -0.561465E-16
  Finished solving LPB equations
  A_corr:   -0.274912941598306     
 End minimization
 Ecorr=   1522.56420593739     
 A_corr= -0.274912941598306     
 Ecorr_band=  -1522.83911887899     
 End Solvation calculations
RMM:   4    -0.134743878595E+03    0.12596E-04   -0.47603E-05  2801   0.201E-02    0.322E-02
 Begin Solvation calculations
  rms_SCF =   6.030427067749450E-003 tol =   6.030427067749450E-004
 Begin minimization
 Creating dielectric and ionic cavities
  area:      150.464118014089     
  volume:    680.630094510777     
  Acav:     7.899366195739684E-002
  Solving linear dielectric/ionic screening model
        iter                  A_solv                     rms
   LPB:       -0.354554883101115E+00   0.112142881112584E+00
   LPB:    0  -0.354546166383538E+00   0.943932325184141E-01  -0.729208E-03   0.000000E+00   0.327854E+02  -0.239074E-01
   LPB:    1  -0.354490199843291E+00   0.261155065499073E-01   0.112035E-01   0.000000E+00   0.917339E+02  -0.450641E-18
   LPB:    2  -0.354482731393176E+00   0.367986640018551E-02   0.131080E-01   0.114057E+00   0.176456E+03  -0.238835E-15
   LPB:    3  -0.354481171387447E+00   0.302050541162755E-02   0.234250E-01   0.116883E+00   0.438383E+03  -0.297187E-15
   LPB:    4  -0.354480704515375E+00   0.267829456263837E-02   0.237932E-01   0.294645E+00   0.121566E+03  -0.310467E-15
   LPB:    5  -0.354480448172358E+00   0.168180372749505E-02   0.242681E-01   0.538319E+00   0.290941E+03  -0.354520E-15
   LPB:    6  -0.354480281915749E+00   0.652247942126623E-03   0.316240E-01   0.497711E+00   0.136121E+03  -0.396768E-15
   LPB:    7  -0.354480174218309E+00   0.412938966581528E-03   0.345285E-01   0.593287E+00   0.380572E+03  -0.434068E-15
  Finished solving LPB equations
  A_corr:   -0.275486512260912     
 End minimization
 Ecorr=   1522.37983479546     
 A_corr= -0.275486512260912     
 Ecorr_band=  -1522.65532130772     
 End Solvation calculations
RMM:   5    -0.134743866164E+03    0.12432E-04   -0.24931E-05  2530   0.204E-02    0.185E-02
 Begin Solvation calculations
  rms_SCF =   6.030427067749450E-003 tol =   6.030427067749450E-004
 Begin minimization
 Creating dielectric and ionic cavities
  area:      150.468350480888     
  volume:    680.640041186935     
  Acav:     7.899588400246611E-002
  Solving linear dielectric/ionic screening model
        iter                  A_solv                     rms
   LPB:       -0.354925848562253E+00   0.630957154042820E-01
   LPB:    0  -0.354921500304522E+00   0.452286589622836E-01  -0.515034E-03   0.000000E+00   0.327849E+02  -0.168853E-01
   LPB:    1  -0.354898237576486E+00   0.155997630414314E-01   0.147592E-01   0.000000E+00   0.836757E+02  -0.170557E-17
   LPB:    2  -0.354895168785433E+00   0.585918815765652E-02   0.124464E-01   0.156431E+00   0.223508E+03  -0.128511E-16
   LPB:    3  -0.354894341029196E+00   0.308776620592912E-02   0.213783E-01   0.157039E+00   0.140084E+03  -0.164812E-16
   LPB:    4  -0.354894059359283E+00   0.208130658352107E-02   0.241284E-01   0.301497E+00   0.101258E+03  -0.194247E-16
   LPB:    5  -0.354893888797892E+00   0.134040924781954E-02   0.256379E-01   0.569883E+00   0.303950E+03  -0.124829E-16
   LPB:    6  -0.354893746940937E+00   0.561785000884264E-03   0.343663E-01   0.620468E+00   0.113771E+03  -0.235521E-16
  Finished solving LPB equations
  A_corr:   -0.275897862938471     
 End minimization
 Ecorr=   1522.19595693837     
 A_corr= -0.275897862938471     
 Ecorr_band=  -1522.47185480131     
 End Solvation calculations
RMM:   6    -0.134743862527E+03    0.36369E-05   -0.22642E-05  2448   0.227E-02
 Begin Solvation calculations
  rms_SCF =   6.030427067749450E-003 tol =   6.030427067749450E-004
 Begin minimization
 Creating dielectric and ionic cavities
  area:      150.477780438394     
  volume:    680.651372555266     
  Acav:     7.900083473015662E-002
  Solving linear dielectric/ionic screening model
        iter                  A_solv                     rms
   LPB:       -0.355279414558530E+00   0.592193223334099E-01
   LPB:    0  -0.355276553815708E+00   0.467533726325073E-01  -0.417754E-03   0.000000E+00   0.327844E+02  -0.136958E-01
   LPB:    1  -0.355260003165814E+00   0.163043646853369E-01   0.116250E-01   0.000000E+00   0.957599E+02  -0.644835E-18
   LPB:    2  -0.355257824201184E+00   0.228486095965233E-02   0.128782E-01   0.118842E+00   0.119265E+03   0.556770E-16
   LPB:    3  -0.355257373008321E+00   0.173505276146438E-02   0.220589E-01   0.120889E+00   0.301527E+03   0.720080E-16
   LPB:    4  -0.355257198480707E+00   0.173785560003591E-02   0.278891E-01   0.305950E+00   0.843194E+02   0.751619E-16
   LPB:    5  -0.355257057450162E+00   0.144649375483474E-02   0.293257E-01   0.768484E+00   0.245809E+03   0.889415E-16
   LPB:    6  -0.355256929746055E+00   0.657018873910196E-03   0.345443E-01   0.768712E+00   0.779622E+02   0.901750E-16
   LPB:    7  -0.355256835491679E+00   0.382227556745155E-03   0.352861E-01   0.722552E+00   0.209528E+03   0.968989E-16
  Finished solving LPB equations
  A_corr:   -0.276256000761523     
 End minimization
 Ecorr=   1522.00339722646     
 A_corr= -0.276256000761523     
 Ecorr_band=  -1522.27965322722     
 End Solvation calculations
   3 F= -.13474386E+03 E0= -.13473873E+03  d E =-.141757E-02
quench:  g(F)=  0.000E+00 g(S)=  0.000E+00 dE (1.order)= 0.000E+00
 bond charge predicted
       N       E                     dE             d eps       ncg     rms          rms(c)
 Begin Solvation calculations
  rms_SCF =   6.030427067749450E-003 tol =   6.030427067749450E-004
 Begin minimization
 Creating dielectric and ionic cavities
  area:      150.586428999779     
  volume:    680.627170657984     
  Acav:     7.905787522488415E-002
  Solving linear dielectric/ionic screening model
        iter                  A_solv                     rms
   LPB:       -0.357748452382008E+00   0.440957990888456E-02
   LPB:    0  -0.357748452173459E+00   0.446780063818767E-02  -0.356679E-05   0.000000E+00   0.327855E+02  -0.116939E-03
   LPB:    1  -0.356396927366561E+00   0.185852205139403E-02   0.152377E-01   0.000000E+00   0.526416E+06  -0.278805E-21
   LPB:    2  -0.356303992919794E+00   0.199355697560364E-02   0.257789E-01   0.406450E-01   0.723166E+05  -0.179061E-17
   LPB:    3  -0.356275815950418E+00   0.434901860284921E-02   0.325507E-01   0.240116E+00   0.176074E+05   0.394702E-18
   LPB:    4  -0.356263596740902E+00   0.119734399402609E-01   0.345585E-01   0.408465E+00   0.147178E+04   0.427691E-17
   LPB:    5  -0.356258552755123E+00   0.155921227370103E-01   0.233826E-01   0.610089E+00   0.189408E+03   0.138990E-17
   LPB:    6  -0.356254593582173E+00   0.482132339633176E-02   0.216663E-01   0.847107E+00   0.302891E+03  -0.562465E-18
   LPB:    7  -0.356251548631418E+00   0.227776520368879E-02   0.363750E-01   0.458097E+00   0.175106E+04   0.613053E-17
   LPB:    8  -0.356249732904601E+00   0.401884196023241E-02   0.366093E-01   0.592491E+00   0.439220E+03   0.105804E-16
   LPB:    9  -0.356248768191828E+00   0.468414751017457E-02   0.274354E-01   0.708970E+00   0.258482E+03  -0.210657E-18
   LPB:   10  -0.356248050434767E+00   0.196186841133287E-02   0.266984E-01   0.764550E+00   0.175984E+03  -0.140769E-16
   LPB:   11  -0.356247505976617E+00   0.804466726176979E-03   0.363744E-01   0.556770E+00   0.158842E+04  -0.334726E-16
   LPB:   12  -0.356247131655369E+00   0.670713341046580E-03   0.407211E-01   0.614124E+00   0.841636E+03  -0.571178E-16
   LPB:   13  -0.356246888269251E+00   0.689126442776728E-03   0.365266E-01   0.724872E+00   0.116913E+04  -0.674114E-16
   LPB:   14  -0.356246731086696E+00   0.571944827384014E-03   0.352485E-01   0.669234E+00   0.754654E+03  -0.745376E-16
  Finished solving LPB equations
  A_corr:   -0.277188855861812     
 End minimization
 Ecorr=   1521.89612039511     
 A_corr= -0.277188855861812     
 Ecorr_band=  -1522.17330925097     
 End Solvation calculations
DAV:   1    -0.134745008347E+03   -0.11422E-02   -0.80089E-02  4215   0.655E-01    0.505E-02
 Begin Solvation calculations
  rms_SCF =   6.030427067749450E-003 tol =   6.030427067749450E-004
 Begin minimization
 Creating dielectric and ionic cavities
  area:      150.513136228327     
  volume:    680.596754358213     
  Acav:     7.901939651987192E-002
  Solving linear dielectric/ionic screening model
        iter                  A_solv                     rms
   LPB:       -0.356994179980151E+00   0.126098167687219E+00
   LPB:    0  -0.356976650038168E+00   0.944260246481470E-01  -0.103408E-02   0.000000E+00   0.327869E+02  -0.339044E-01
   LPB:    1  -0.356912490004232E+00   0.297221732472101E-01   0.118397E-01   0.000000E+00   0.889131E+02   0.139429E-17
   LPB:    2  -0.356903194948663E+00   0.523148147268806E-02   0.134397E-01   0.127625E+00   0.169824E+03  -0.233246E-16
   LPB:    3  -0.356900853448855E+00   0.457819783065419E-02   0.226951E-01   0.149177E+00   0.422240E+03  -0.612908E-17
   LPB:    4  -0.356900115660176E+00   0.352138061488705E-02   0.214549E-01   0.333306E+00   0.115905E+03   0.365517E-17
   LPB:    5  -0.356899699105137E+00   0.163770573144012E-02   0.247121E-01   0.490181E+00   0.304675E+03   0.767212E-17
   LPB:    6  -0.356899466585888E+00   0.590833829424389E-03   0.330134E-01   0.417836E+00   0.211598E+03  -0.140180E-16
  Finished solving LPB equations
  A_corr:   -0.277880070066016     
 End minimization
 Ecorr=   1521.74778056016     
 A_corr= -0.277880070066016     
 Ecorr_band=  -1522.02566063023     
 End Solvation calculations
RMM:   2    -0.134745311334E+03   -0.30299E-03   -0.34663E-03  5292   0.173E-01    0.440E-02
 Begin Solvation calculations
  rms_SCF =   6.030427067749450E-003 tol =   6.030427067749450E-004
 Begin minimization
 Creating dielectric and ionic cavities
  area:      150.509920914706     
  volume:    680.611323672209     
  Acav:     7.901770848022080E-002
  Solving linear dielectric/ionic screening model
        iter                  A_solv                     rms
   LPB:       -0.357106436229977E+00   0.233290051424357E-01
   LPB:    0  -0.357106167278053E+00   0.199687117950726E-01  -0.128087E-03   0.000000E+00   0.327863E+02  -0.419951E-02
   LPB:    1  -0.357102218716901E+00   0.735134019615319E-02   0.144486E-01   0.000000E+00   0.829984E+02  -0.301165E-19
   LPB:    2  -0.357101574721508E+00   0.229028068664113E-02   0.127741E-01   0.184476E+00   0.176578E+03  -0.103777E-15
   LPB:    3  -0.357101381418622E+00   0.109754953380942E-02   0.239174E-01   0.160314E+00   0.158879E+03  -0.122470E-15
   LPB:    4  -0.357101250619989E+00   0.662237804867054E-03   0.381376E-01   0.424351E+00   0.144280E+03  -0.128072E-15
   LPB:    5  -0.357101138920693E+00   0.826232799758061E-03   0.394314E-01   0.825960E+00   0.214610E+03  -0.129619E-15
   LPB:    6  -0.357101066445492E+00   0.104242428117126E-02   0.309884E-01   0.825622E+00   0.962523E+02  -0.136075E-15
   LPB:    7  -0.357101016380149E+00   0.806490635319536E-03   0.280100E-01   0.764247E+00   0.313648E+03  -0.140022E-15
   LPB:    8  -0.357100974707353E+00   0.492432124424131E-03   0.325655E-01   0.715931E+00   0.126468E+03  -0.149156E-15
  Finished solving LPB equations
  A_corr:   -0.278083266227132     
 End minimization
 Ecorr=   1521.59701223336     
 A_corr= -0.278083266227132     
 Ecorr_band=  -1521.87509549959     
 End Solvation calculations
RMM:   3    -0.134745258646E+03    0.52688E-04   -0.26577E-04  5061   0.440E-02    0.313E-02
 Begin Solvation calculations
  rms_SCF =   6.030427067749450E-003 tol =   6.030427067749450E-004
 Begin minimization
 Creating dielectric and ionic cavities
  area:      150.512184034801     
  volume:    680.611347371886     
  Acav:     7.901889661827063E-002
  Solving linear dielectric/ionic screening model
        iter                  A_solv                     rms
   LPB:       -0.357278282700161E+00   0.285807620190867E-01
   LPB:    0  -0.357277146502051E+00   0.189795032298805E-01  -0.263267E-03   0.000000E+00   0.327862E+02  -0.863153E-02
   LPB:    1  -0.357273016510954E+00   0.844362955745360E-02   0.133220E-01   0.000000E+00   0.102283E+03  -0.764780E-18
   LPB:    2  -0.357272491495086E+00   0.155648071446168E-02   0.128426E-01   0.131868E+00   0.113822E+03  -0.830103E-16
   LPB:    3  -0.357272344873608E+00   0.994330907180485E-03   0.212394E-01   0.168864E+00   0.361980E+03  -0.944677E-16
   LPB:    4  -0.357272297009712E+00   0.856325973704768E-03   0.230650E-01   0.300607E+00   0.122224E+03  -0.972300E-16
   LPB:    5  -0.357272270657698E+00   0.597121580705977E-03   0.249657E-01   0.508647E+00   0.279574E+03  -0.102482E-15
  Finished solving LPB equations
  A_corr:   -0.278253374039427     
 End minimization
 Ecorr=   1521.55109151608     
 A_corr= -0.278253374039427     
 Ecorr_band=  -1521.82934489011     
 End Solvation calculations
RMM:   4    -0.134745247911E+03    0.10735E-04   -0.27223E-05  2602   0.148E-02    0.232E-02
 Begin Solvation calculations
  rms_SCF =   6.030427067749450E-003 tol =   6.030427067749450E-004
 Begin minimization
 Creating dielectric and ionic cavities
  area:      150.516182604833     
  volume:    680.612784209316     
  Acav:     7.902099586753715E-002
  Solving linear dielectric/ionic screening model
        iter                  A_solv                     rms
   LPB:       -0.357533471065896E+00   0.543587137502091E-01
   LPB:    0  -0.357531935853970E+00   0.477044480850564E-01  -0.306023E-03   0.000000E+00   0.327862E+02  -0.100333E-01
   LPB:    1  -0.357521435300681E+00   0.908345352272982E-02   0.100293E-01   0.000000E+00   0.853358E+02  -0.506268E-19
   LPB:    2  -0.357520220543801E+00   0.138014259053792E-02   0.138228E-01   0.839361E-01   0.160480E+03  -0.207032E-16
   LPB:    3  -0.357520010775234E+00   0.138024873182285E-02   0.238394E-01   0.100127E+00   0.362016E+03  -0.913233E-17
   LPB:    4  -0.357519931085194E+00   0.115342056934805E-02   0.248307E-01   0.364730E+00   0.828370E+02  -0.640847E-17
   LPB:    5  -0.357519874710750E+00   0.722598934391136E-03   0.275999E-01   0.636441E+00   0.296330E+03   0.110172E-17
   LPB:    6  -0.357519831732250E+00   0.322182220570886E-03   0.351711E-01   0.598263E+00   0.108366E+03  -0.178579E-17
  Finished solving LPB equations
  A_corr:   -0.278498835864713     
 End minimization
 Ecorr=   1521.45384324836     
 A_corr= -0.278498835864713     
 Ecorr_band=  -1521.73234208422     
 End Solvation calculations
RMM:   5    -0.134745247824E+03    0.87573E-07   -0.12305E-05  2308   0.163E-02
 Begin Solvation calculations
  rms_SCF =   6.030427067749450E-003 tol =   6.030427067749450E-004
 Begin minimization
 Creating dielectric and ionic cavities
  area:      150.523213528800     
  volume:    680.621445995744     
  Acav:     7.902468710261999E-002
  Solving linear dielectric/ionic screening model
        iter                  A_solv                     rms
   LPB:       -0.358041675839778E+00   0.666938488056247E-01
   LPB:    0  -0.358035285753722E+00   0.403968671618956E-01  -0.624346E-03   0.000000E+00   0.327858E+02  -0.204697E-01
   LPB:    1  -0.358009877557447E+00   0.102409604582395E-01   0.160462E-01   0.000000E+00   0.834979E+02   0.128453E-18
   LPB:    2  -0.358007518092258E+00   0.500214736494002E-02   0.158899E-01   0.937758E-01   0.194809E+03   0.305018E-15
   LPB:    3  -0.358006870711814E+00   0.242211961646493E-02   0.204362E-01   0.213337E+00   0.998532E+02   0.314653E-15
   LPB:    4  -0.358006593209257E+00   0.230277450601769E-02   0.267083E-01   0.327991E+00   0.212586E+03   0.307496E-15
   LPB:    5  -0.358006458746832E+00   0.200835097425285E-02   0.232410E-01   0.556832E+00   0.133075E+03   0.311484E-15
   LPB:    6  -0.358006354342528E+00   0.890074017445125E-03   0.235337E-01   0.766800E+00   0.133654E+03   0.311522E-15
   LPB:    7  -0.358006269906158E+00   0.511269294266108E-03   0.333096E-01   0.571390E+00   0.187609E+03   0.311553E-15
  Finished solving LPB equations
  A_corr:   -0.278981582803538     
 End minimization
 Ecorr=   1521.24052967256     
 A_corr= -0.278981582803538     
 Ecorr_band=  -1521.51951125537     
 End Solvation calculations
   4 F= -.13474525E+03 E0= -.13474011E+03  d E =-.138530E-02
quench:  g(F)=  0.000E+00 g(S)=  0.000E+00 dE (1.order)= 0.000E+00
 bond charge predicted
       N       E                     dE             d eps       ncg     rms          rms(c)
 Begin Solvation calculations
  rms_SCF =   6.030427067749450E-003 tol =   6.030427067749450E-004
 Begin minimization
 Creating dielectric and ionic cavities
  area:      150.659165907807     
  volume:    680.581336267372     
  Acav:     7.909606210159874E-002
  Solving linear dielectric/ionic screening model
        iter                  A_solv                     rms
   LPB:       -0.361558207034277E+00   0.549981104248529E-02
   LPB:    0  -0.361558206571350E+00   0.560016715092114E-02  -0.531393E-05   0.000000E+00   0.327877E+02  -0.174231E-03
   LPB:    1  -0.359527232555769E+00   0.211476347040028E-02   0.152236E-01   0.000000E+00   0.485347E+06   0.117296E-19
   LPB:    2  -0.359387472431853E+00   0.206600116971246E-02   0.258986E-01   0.404501E-01   0.852159E+05  -0.132269E-16
   LPB:    3  -0.359344183706552E+00   0.454623467158566E-02   0.328362E-01   0.244295E+00   0.254889E+05  -0.132308E-16
   LPB:    4  -0.359324872099222E+00   0.128614991891034E-01   0.353421E-01   0.414481E+00   0.197438E+04  -0.112369E-17
   LPB:    5  -0.359316664144206E+00   0.200846726965910E-01   0.255592E-01   0.587708E+00   0.218667E+03   0.353001E-17
   LPB:    6  -0.359310841024525E+00   0.703072443640737E-02   0.202199E-01   0.896787E+00   0.249357E+03   0.692034E-17
   LPB:    7  -0.359306066005921E+00   0.146828200795889E-02   0.353957E-01   0.468432E+00   0.127567E+04   0.568228E-17
   LPB:    8  -0.359303111118469E+00   0.111555975752599E-02   0.391221E-01   0.559879E+00   0.193700E+04  -0.214020E-17
   LPB:    9  -0.359301381076449E+00   0.256368572878859E-02   0.382184E-01   0.599330E+00   0.257236E+04  -0.607047E-17
   LPB:   10  -0.359300408881770E+00   0.404172739985579E-02   0.326958E-01   0.656866E+00   0.230757E+03  -0.100183E-16
[...]
   LPB:   10  -0.377786401931651E+00   0.859578196125307E-03   0.225413E-01   0.820957E+00   0.193711E+03  -0.657459E-16
   LPB:   11  -0.377786345776685E+00   0.248945402422764E-03   0.339699E-01   0.559678E+00   0.945871E+03  -0.784686E-16
   LPB:   12  -0.377786307978264E+00   0.172633476949715E-03   0.395614E-01   0.577974E+00   0.318021E+04  -0.921038E-16
   LPB:   13  -0.377786283695688E+00   0.215630828668248E-03   0.376776E-01   0.674543E+00   0.221920E+04  -0.101054E-15
   LPB:   14  -0.377786267983636E+00   0.190239481950643E-03   0.338914E-01   0.719336E+00   0.137676E+04  -0.107497E-15
   LPB:   15  -0.377786256567501E+00   0.115693811625276E-03   0.350887E-01   0.701793E+00   0.174392E+04  -0.111646E-15
   LPB:   16  -0.377786248202031E+00   0.710090511214902E-04   0.383927E-01   0.669714E+00   0.293928E+04  -0.114701E-15
  Finished solving LPB equations
  A_corr:   -0.298557669786201     
 End minimization
 Ecorr=   1520.98836074287     
 A_corr= -0.298557669786201     
 Ecorr_band=  -1521.28691841265     
 End Solvation calculations
DAV:   1    -0.134761250203E+03   -0.10199E-04   -0.10766E-02  5004   0.232E-01    0.352E-02
 Begin Solvation calculations
  rms_SCF =   1.114117543325768E-003 tol =   1.114117543325768E-004
 Begin minimization
 Creating dielectric and ionic cavities
  area:      150.911646238414     
  volume:    679.736875527242     
  Acav:     7.922861427516759E-002
  Solving linear dielectric/ionic screening model
        iter                  A_solv                     rms
   LPB:       -0.377883165811168E+00   0.413781852805901E-01
   LPB:    0  -0.377882289962147E+00   0.375394017390572E-01  -0.231000E-03   0.000000E+00   0.328272E+02  -0.758310E-02
   LPB:    1  -0.377877122092356E+00   0.548184356993222E-02   0.979370E-02   0.000000E+00   0.740223E+02  -0.222794E-18
   LPB:    2  -0.377876104568240E+00   0.119275041991298E-02   0.180086E-01   0.107078E+00   0.174351E+03   0.330977E-17
   LPB:    3  -0.377875943463584E+00   0.123794423824886E-02   0.237201E-01   0.120206E+00   0.431522E+03  -0.999882E-17
   LPB:    4  -0.377875881295822E+00   0.905245338047572E-03   0.222329E-01   0.411697E+00   0.163444E+03  -0.146490E-16
   LPB:    5  -0.377875848830917E+00   0.534801297540596E-03   0.260211E-01   0.446190E+00   0.222061E+03  -0.199868E-16
   LPB:    6  -0.377875830263284E+00   0.233493290499297E-03   0.295385E-01   0.503825E+00   0.253225E+03  -0.243356E-16
   LPB:    7  -0.377875818776148E+00   0.108227349584682E-03   0.338549E-01   0.539786E+00   0.626653E+03  -0.310208E-16
  Finished solving LPB equations
  A_corr:   -0.298647204500980     
 End minimization
 Ecorr=   1520.98651586204     
 A_corr= -0.298647204500980     
 Ecorr_band=  -1521.28516306654     
 End Solvation calculations
RMM:   2    -0.134761332302E+03   -0.82098E-04   -0.64457E-04  4880   0.561E-02    0.564E-02
 Begin Solvation calculations
  rms_SCF =   1.114117543325768E-003 tol =   1.114117543325768E-004
 Begin minimization
 Creating dielectric and ionic cavities
  area:      150.912800615100     
  volume:    679.741241888298     
  Acav:     7.922922032292763E-002
  Solving linear dielectric/ionic screening model
        iter                  A_solv                     rms
   LPB:       -0.377927857694586E+00   0.488505989106979E-01
   LPB:    0  -0.377927823366981E+00   0.487817377534974E-01   0.457321E-04   0.000000E+00   0.328270E+02   0.150125E-02
   LPB:    1  -0.377920874437599E+00   0.453758231836243E-02   0.884674E-02   0.000000E+00   0.746149E+02   0.106794E-18
   LPB:    2  -0.377920289146339E+00   0.799220069643883E-03   0.165379E-01   0.450565E-01   0.139237E+03  -0.112206E-17
   LPB:    3  -0.377920200024798E+00   0.356079953886150E-03   0.240848E-01   0.104556E+00   0.295557E+03  -0.229295E-17
   LPB:    4  -0.377920168217246E+00   0.174736462401841E-03   0.300932E-01   0.285642E+00   0.489501E+03  -0.167732E-17
   LPB:    5  -0.377920154831434E+00   0.120033627168757E-03   0.301276E-01   0.420357E+00   0.596901E+03  -0.136670E-17
   LPB:    6  -0.377920147254495E+00   0.817298611506609E-04   0.352292E-01   0.484073E+00   0.748761E+03  -0.134309E-17
  Finished solving LPB equations
  A_corr:   -0.298690926931567     
 End minimization
 Ecorr=   1520.96688257376     
 A_corr= -0.298690926931567     
 Ecorr_band=  -1521.26557350070     
 End Solvation calculations
RMM:   3    -0.134761292887E+03    0.39415E-04   -0.69873E-05  2856   0.203E-02    0.248E-02
 Begin Solvation calculations
  rms_SCF =   1.114117543325768E-003 tol =   1.114117543325768E-004
 Begin minimization
 Creating dielectric and ionic cavities
  area:      150.910082988728     
  volume:    679.743614668040     
  Acav:     7.922779356908202E-002
  Solving linear dielectric/ionic screening model
        iter                  A_solv                     rms
   LPB:       -0.377953850826587E+00   0.198160295170331E-01
   LPB:    0  -0.377953837063568E+00   0.196693720505099E-01  -0.289572E-04   0.000000E+00   0.328269E+02  -0.950576E-03
   LPB:    1  -0.377952487222308E+00   0.297308843889102E-02   0.981798E-02   0.000000E+00   0.721323E+02  -0.335083E-19
   LPB:    2  -0.377952230138567E+00   0.496069586869644E-03   0.173495E-01   0.107777E+00   0.146340E+03  -0.427803E-17
   LPB:    3  -0.377952190319853E+00   0.423291554285962E-03   0.267377E-01   0.100502E+00   0.216496E+03  -0.703253E-17
   LPB:    4  -0.377952175957697E+00   0.386551524316310E-03   0.257616E-01   0.374354E+00   0.301599E+03  -0.103206E-16
   LPB:    5  -0.377952168882474E+00   0.296538933842556E-03   0.270474E-01   0.469210E+00   0.137634E+03  -0.116754E-16
   LPB:    6  -0.377952164389824E+00   0.201898206265968E-03   0.277253E-01   0.619459E+00   0.373999E+03  -0.120456E-16
   LPB:    7  -0.377952160619941E+00   0.923987896713162E-04   0.336556E-01   0.691263E+00   0.243436E+03  -0.133432E-16
  Finished solving LPB equations
  A_corr:   -0.298724367050859     
 End minimization
 Ecorr=   1520.94031889388     
 A_corr= -0.298724367050859     
 Ecorr_band=  -1521.23904326093     
 End Solvation calculations
RMM:   4    -0.134761287476E+03    0.54104E-05   -0.10231E-05  2279   0.154E-02
 Begin Solvation calculations
  rms_SCF =   1.114117543325768E-003 tol =   1.114117543325768E-004
 Begin minimization
 Creating dielectric and ionic cavities
  area:      150.910499371993     
  volume:    679.741386130905     
  Acav:     7.922801217029650E-002
  Solving linear dielectric/ionic screening model
        iter                  A_solv                     rms
   LPB:       -0.378088326919530E+00   0.284541634813398E-01
   LPB:    0  -0.378087906444375E+00   0.254959153675914E-01  -0.160055E-03   0.000000E+00   0.328270E+02  -0.525413E-02
   LPB:    1  -0.378085115802451E+00   0.419845924239742E-02   0.985319E-02   0.000000E+00   0.847400E+02  -0.149776E-18
   LPB:    2  -0.378084762866667E+00   0.765135233061468E-03   0.147605E-01   0.844241E-01   0.203883E+03   0.150189E-16
   LPB:    3  -0.378084687779226E+00   0.703778900125835E-03   0.251978E-01   0.124627E+00   0.471176E+03   0.654733E-17
   LPB:    4  -0.378084662740505E+00   0.647337232357968E-03   0.243305E-01   0.345348E+00   0.123045E+03   0.582223E-17
   LPB:    5  -0.378084646758182E+00   0.386170668528849E-03   0.261969E-01   0.592827E+00   0.298442E+03   0.518623E-17
   LPB:    6  -0.378084635189421E+00   0.176374044355408E-03   0.334207E-01   0.567389E+00   0.183973E+03   0.924332E-17
   LPB:    7  -0.378084627004398E+00   0.110357422204199E-03   0.354416E-01   0.667168E+00   0.502683E+03   0.999558E-17
  Finished solving LPB equations
  A_corr:   -0.298856614834102     
 End minimization
 Ecorr=   1520.91471511731     
 A_corr= -0.298856614834102     
 Ecorr_band=  -1521.21357173214     
 End Solvation calculations
 166 F= -.13476129E+03 E0= -.13475672E+03  d E =-.569189E-04
quench:  g(F)=  0.000E+00 g(S)=  0.000E+00 dE (1.order)= 0.000E+00
 bond charge predicted
       N       E                     dE             d eps       ncg     rms          rms(c)
 Begin Solvation calculations
  rms_SCF =   1.114117543325768E-003 tol =   1.114117543325768E-004
 Begin minimization
 Creating dielectric and ionic cavities
  area:      150.922665156445     
  volume:    679.750370887388     
  Acav:     7.923439920713382E-002
  Solving linear dielectric/ionic screening model
        iter                  A_solv                     rms
   LPB:       -0.378265353494551E+00   0.142007127461633E-02
   LPB:    0  -0.378265353489641E+00   0.142170811294315E-02   0.546949E-06   0.000000E+00   0.328266E+02   0.179545E-04
   LPB:    1  -0.378089111171147E+00   0.459459079827126E-03   0.155789E-01   0.000000E+00   0.708755E+06   0.706286E-22
   LPB:    2  -0.378073577629599E+00   0.321450194261014E-03   0.257627E-01   0.532973E-01   0.192369E+06  -0.144678E-17
   LPB:    3  -0.378069002596680E+00   0.457712087110812E-03   0.321757E-01   0.235824E+00   0.711551E+05  -0.999346E-18
   LPB:    4  -0.378067042323670E+00   0.982750926248856E-03   0.356816E-01   0.386373E+00   0.147816E+05   0.748143E-18
   LPB:    5  -0.378066067840484E+00   0.211829736812075E-02   0.365050E-01   0.485902E+00   0.151556E+04   0.338687E-17
   LPB:    6  -0.378065584495135E+00   0.345798964989048E-02   0.305331E-01   0.593014E+00   0.278095E+03   0.430567E-17
   LPB:    7  -0.378065299278715E+00   0.210793324498652E-02   0.226729E-01   0.794659E+00   0.176629E+03   0.101164E-16
   LPB:    8  -0.378065083377328E+00   0.195781367080343E-02   0.293931E-01   0.583906E+00   0.487363E+03   0.283559E-16
   LPB:    9  -0.378064970454490E+00   0.203242373914083E-02   0.233148E-01   0.659384E+00   0.195295E+03   0.447743E-16
   LPB:   10  -0.378064876561450E+00   0.679268992964597E-03   0.247224E-01   0.784141E+00   0.281213E+03   0.545740E-16
   LPB:   11  -0.378064804721987E+00   0.210044799081394E-03   0.372288E-01   0.508091E+00   0.206800E+04   0.642134E-16
   LPB:   12  -0.378064757757031E+00   0.185233710692113E-03   0.402537E-01   0.604622E+00   0.405478E+04   0.748708E-16
   LPB:   13  -0.378064727377263E+00   0.230779701054351E-03   0.382993E-01   0.679869E+00   0.214688E+04   0.829487E-16
   LPB:   14  -0.378064707698570E+00   0.213440912322354E-03   0.346175E-01   0.716651E+00   0.148093E+04   0.881311E-16
   LPB:   15  -0.378064693432681E+00   0.136364445011766E-03   0.352158E-01   0.712623E+00   0.155274E+04   0.916783E-16
   LPB:   16  -0.378064682913401E+00   0.867796296005219E-04   0.381099E-01   0.681377E+00   0.283632E+04   0.942007E-16
  Finished solving LPB equations
  A_corr:   -0.298830283706267     
 End minimization
 Ecorr=   1520.90700219497     
 A_corr= -0.298830283706267     
 Ecorr_band=  -1521.20583247867     
 End Solvation calculations
DAV:   1    -0.134761323761E+03   -0.30874E-04   -0.13180E-02  4107   0.219E-01    0.350E-02
 Begin Solvation calculations
  rms_SCF =   1.114117543325768E-003 tol =   1.114117543325768E-004
 Begin minimization
 Creating dielectric and ionic cavities
  area:      150.923991361747     
  volume:    679.746723193351     
  Acav:     7.923509546491733E-002
  Solving linear dielectric/ionic screening model
        iter                  A_solv                     rms
   LPB:       -0.378150051476112E+00   0.215088608906579E-01
   LPB:    0  -0.378149644890883E+00   0.177305489983445E-01  -0.157390E-03   0.000000E+00   0.328268E+02  -0.516660E-02
   LPB:    1  -0.378147487693752E+00   0.600679985779454E-02   0.123945E-01   0.000000E+00   0.824515E+02   0.248925E-18
   LPB:    2  -0.378146891115145E+00   0.111825730314859E-02   0.156294E-01   0.219313E+00   0.271459E+03   0.392638E-16
   LPB:    3  -0.378146759172959E+00   0.126612516837130E-02   0.256059E-01   0.134995E+00   0.411017E+03   0.485757E-16
   LPB:    4  -0.378146708675720E+00   0.835351226880338E-03   0.217843E-01   0.449865E+00   0.140175E+03   0.485959E-16
   LPB:    5  -0.378146678988996E+00   0.408364154295304E-03   0.268393E-01   0.477162E+00   0.327011E+03   0.439846E-16
   LPB:    6  -0.378146661667738E+00   0.203562094120676E-03   0.308349E-01   0.507862E+00   0.376245E+03   0.451120E-16
   LPB:    7  -0.378146650521658E+00   0.118122101939185E-03   0.342742E-01   0.578920E+00   0.649945E+03   0.470209E-16
   LPB:    8  -0.378146643020393E+00   0.757303466964190E-04   0.374826E-01   0.615390E+00   0.681469E+03   0.476676E-16
  Finished solving LPB equations
  A_corr:   -0.298911547555476     
 End minimization
 Ecorr=   1520.89099222312     
 A_corr= -0.298911547555476     
 Ecorr_band=  -1521.18990377068     
 End Solvation calculations
RMM:   2    -0.134761388705E+03   -0.64944E-04   -0.67536E-04  5442   0.546E-02    0.362E-02
 Begin Solvation calculations
  rms_SCF =   1.114117543325768E-003 tol =   1.114117543325768E-004
 Begin minimization
 Creating dielectric and ionic cavities
  area:      150.923819703379     
  volume:    679.750519694862     
  Acav:     7.923500534427420E-002
  Solving linear dielectric/ionic screening model
        iter                  A_solv                     rms
   LPB:       -0.378206834686198E+00   0.358921726941176E-01
   LPB:    0  -0.378206828344272E+00   0.358932995086736E-01   0.196568E-04   0.000000E+00   0.328266E+02   0.645266E-03
   LPB:    1  -0.378202972632429E+00   0.314410826499368E-02   0.885691E-02   0.000000E+00   0.762962E+02   0.223192E-19
   LPB:    2  -0.378202662417547E+00   0.561842233197365E-03   0.161384E-01   0.441549E-01   0.163055E+03   0.994144E-19
   LPB:    3  -0.378202607203979E+00   0.270093149963090E-03   0.258869E-01   0.110960E+00   0.358795E+03   0.888812E-18
   LPB:    4  -0.378202586707001E+00   0.148329401990683E-03   0.312388E-01   0.307631E+00   0.510230E+03   0.781069E-18
   LPB:    5  -0.378202576551576E+00   0.116424574998427E-03   0.317275E-01   0.487828E+00   0.600874E+03  -0.300827E-18
   LPB:    6  -0.378202570285096E+00   0.818986767880203E-04   0.362574E-01   0.539964E+00   0.638625E+03  -0.110713E-17
  Finished solving LPB equations
  A_corr:   -0.298967564940822     
 End minimization
 Ecorr=   1520.86644949856     
 A_corr= -0.298967564940822     
 Ecorr_band=  -1521.16541706350     
 End Solvation calculations
RMM:   3    -0.134761377762E+03    0.10943E-04   -0.51479E-05  2821   0.181E-02    0.312E-02
 Begin Solvation calculations
  rms_SCF =   1.114117543325768E-003 tol =   1.114117543325768E-004
 Begin minimization
 Creating dielectric and ionic cavities
  area:      150.921751222801     
  volume:    679.750663857900     
  Acav:     7.923391939197057E-002
  Solving linear dielectric/ionic screening model
        iter                  A_solv                     rms
   LPB:       -0.378234372611703E+00   0.255803470265868E-01
   LPB:    0  -0.378234324425585E+00   0.252373360975931E-01  -0.541830E-04   0.000000E+00   0.328266E+02  -0.177864E-02
   LPB:    1  -0.378232308227807E+00   0.323706118993837E-02   0.940125E-02   0.000000E+00   0.712883E+02  -0.978712E-19
   LPB:    2  -0.378231991047795E+00   0.513455336010527E-03   0.176447E-01   0.838191E-01   0.129852E+03   0.724911E-17
   LPB:    3  -0.378231946511438E+00   0.317076640432926E-03   0.256238E-01   0.966899E-01   0.278949E+03   0.757948E-17
   LPB:    4  -0.378231930177911E+00   0.183157931432345E-03   0.278352E-01   0.337610E+00   0.383661E+03   0.574176E-17
   LPB:    5  -0.378231922353928E+00   0.136963456494426E-03   0.320903E-01   0.415496E+00   0.344011E+03   0.430810E-17
   LPB:    6  -0.378231917813417E+00   0.215750830091357E-03   0.342243E-01   0.544147E+00   0.514449E+03   0.606701E-17
   LPB:    7  -0.378231914825325E+00   0.235353953993526E-03   0.298227E-01   0.755228E+00   0.128787E+03   0.683203E-17
   LPB:    8  -0.378231912295951E+00   0.149216601191949E-03   0.296589E-01   0.851157E+00   0.303171E+03   0.862513E-17
   LPB:    9  -0.378231910000039E+00   0.694541171423330E-04   0.374222E-01   0.719398E+00   0.203892E+03   0.837642E-17
  Finished solving LPB equations
  A_corr:   -0.298997990608068     
 End minimization
 Ecorr=   1520.84531455756     
 A_corr= -0.298997990608068     
 Ecorr_band=  -1521.14431254817     
 End Solvation calculations
RMM:   4    -0.134761366755E+03    0.11007E-04   -0.12790E-05  2396   0.156E-02    0.135E-02
 Begin Solvation calculations
  rms_SCF =   1.114117543325768E-003 tol =   1.114117543325768E-004
 Begin minimization
 Creating dielectric and ionic cavities
  area:      150.922622787386     
  volume:    679.749073040366     
  Acav:     7.923437696337747E-002
  Solving linear dielectric/ionic screening model
        iter                  A_solv                     rms
   LPB:       -0.378371285495893E+00   0.285000215271538E-01
   LPB:    0  -0.378370869317216E+00   0.255238947748371E-01  -0.159236E-03   0.000000E+00   0.328267E+02  -0.522719E-02
   LPB:    1  -0.378368049832812E+00   0.431926864503608E-02   0.984942E-02   0.000000E+00   0.852777E+02  -0.229069E-18
   LPB:    2  -0.378367681742852E+00   0.807879990103449E-03   0.149758E-01   0.858629E-01   0.193300E+03  -0.223341E-16
   LPB:    3  -0.378367603658891E+00   0.704953457756542E-03   0.247878E-01   0.128162E+00   0.457502E+03  -0.229867E-16
   LPB:    4  -0.378367578670348E+00   0.629058973603672E-03   0.240526E-01   0.329803E+00   0.126616E+03  -0.244581E-16
   LPB:    5  -0.378367564378908E+00   0.358935079618756E-03   0.248496E-01   0.553577E+00   0.297680E+03  -0.215449E-16
   LPB:    6  -0.378367554809124E+00   0.158460327952355E-03   0.323648E-01   0.514131E+00   0.192845E+03  -0.183132E-16
   LPB:    7  -0.378367548221594E+00   0.979945636263156E-04   0.349319E-01   0.637780E+00   0.518436E+03  -0.127817E-16
  Finished solving LPB equations
  A_corr:   -0.299133171258216     
 End minimization
 Ecorr=   1520.81760998349     
 A_corr= -0.299133171258216     
 Ecorr_band=  -1521.11674315475     
 End Solvation calculations
RMM:   5    -0.134761368050E+03   -0.12953E-05   -0.50509E-06  2216   0.977E-03
 Begin Solvation calculations
  rms_SCF =   1.114117543325768E-003 tol =   1.114117543325768E-004
 Begin minimization
 Creating dielectric and ionic cavities
  area:      150.923297690053     
  volume:    679.753036332602     
  Acav:     7.923473128727795E-002
  Solving linear dielectric/ionic screening model
        iter                  A_solv                     rms
   LPB:       -0.378433100502293E+00   0.166647012815868E-01
   LPB:    0  -0.378433056247883E+00   0.160203055788311E-01  -0.519255E-04   0.000000E+00   0.328265E+02  -0.170453E-02
   LPB:    1  -0.378432012291120E+00   0.332002724501169E-02   0.109517E-01   0.000000E+00   0.660569E+02  -0.153306E-19
   LPB:    2  -0.378431771961596E+00   0.458332486942137E-03   0.158608E-01   0.158957E+00   0.152730E+03   0.333957E-17
   LPB:    3  -0.378431732901503E+00   0.238547274570636E-03   0.252915E-01   0.101924E+00   0.388026E+03   0.413260E-17
   LPB:    4  -0.378431717943352E+00   0.148205874566941E-03   0.299324E-01   0.323577E+00   0.275399E+03   0.516920E-17
   LPB:    5  -0.378431707955019E+00   0.169565805032559E-03   0.374041E-01   0.534365E+00   0.341062E+03   0.509408E-17
   LPB:    6  -0.378431700500475E+00   0.237601303802081E-03   0.379742E-01   0.735120E+00   0.156384E+03   0.468448E-17
   LPB:    7  -0.378431695479432E+00   0.305223155348188E-03   0.314700E-01   0.812764E+00   0.293325E+03   0.631852E-17
   LPB:    8  -0.378431691860220E+00   0.190546922514349E-03   0.272547E-01   0.832293E+00   0.114984E+03   0.604941E-17
   LPB:    9  -0.378431688975049E+00   0.864749040454480E-04   0.326910E-01   0.664616E+00   0.546754E+03   0.679182E-17
  Finished solving LPB equations
  A_corr:   -0.299196957687771     
 End minimization
 Ecorr=   1520.77746843828     
 A_corr= -0.299196957687771     
 Ecorr_band=  -1521.07666539597     
 End Solvation calculations
 167 F= -.13476137E+03 E0= -.13475678E+03  d E =-.805737E-04
quench:  g(F)=  0.000E+00 g(S)=  0.000E+00 dE (1.order)= 0.000E+00
 reached required accuracy - stopping structural energy minimisation
