 vasp.5.4.4.18Apr17-6-g9f103f2a35 (build Feb 06 2024 13:54:16) complex          
  
 POSCAR found type information on POSCAR  Cu Ni Cu N  O 
 05/POSCAR found :  5 types and      40 ions
 scaLAPACK will be used

 ----------------------------------------------------------------------------- 
|                                                                             |
|  ADVICE TO THIS USER RUNNING 'VASP/VAMP'   (HEAR YOUR MASTER'S VOICE ...):  |
|                                                                             |
|      You enforced a specific xc-type in the INCAR file,                     |
|      a different type was found on the POTCAR file                          |
|          I HOPE YOU KNOW, WHAT YOU ARE  DOING                               |
|                                                                             |
 ----------------------------------------------------------------------------- 

 LDA part: xc-table for Pade appr. of Perdew
 POSCAR found type information on POSCAR  Cu Ni Cu N  O 
 00/POSCAR found :  5 types and      40 ions
 POSCAR found type information on POSCAR  Cu Ni Cu N  O 
 06/POSCAR found :  5 types and      40 ions
 Jacobian:    19.9537150754471     
 POSCAR, INCAR and KPOINTS ok, starting setup
 FFT: planning ...
 WAVECAR not read
 entering main loop
       N       E                     dE             d eps       ncg     rms          rms(c)
  Solvation turned off during non-self-consistent phase (first NELMDL steps)
DAV:   1     0.424434092682E+04    0.42443E+04   -0.18052E+05 12096   0.211E+03
DAV:   2     0.625196851839E+03   -0.36191E+04   -0.34928E+04 12096   0.476E+02
DAV:   3    -0.361352068777E+02   -0.66133E+03   -0.61124E+03 13968   0.238E+02
DAV:   4    -0.152551824901E+03   -0.11642E+03   -0.10282E+03 21411   0.952E+01
DAV:   5    -0.166232302766E+03   -0.13680E+02   -0.13080E+02 18747   0.326E+01    0.454E+01
 Begin Solvation calculations
  rms_SCF =    6.29795280734248      tol =   0.629795280734248     
 Begin minimization
 Creating dielectric and ionic cavities
  area:      144.045859856445     
  volume:    639.042673273127     
  Acav:     7.562407642463345E-002
  Solving linear dielectric/ionic screening model
        iter                  A_solv                     rms
   LPB:       -0.382401778131487E+03   0.279840779396028E+03
   LPB:    0  -0.838635034776253E+01   0.401920754882537E+02  -0.508485E+01   0.000000E+00   0.289310E+02  -0.147110E+03
   LPB:    1  -0.150891620234285E+01   0.791764426138048E+01   0.103598E-01   0.000000E+00   0.767767E+02   0.825305E-14
   LPB:    2  -0.548222182898201E+00   0.108456986979647E+01   0.131863E-01   0.109745E+00   0.315402E+03  -0.169072E-13
   LPB:    3  -0.345310893083422E+00   0.130304025661612E+01   0.259504E-01   0.107325E+00   0.557405E+03  -0.144789E-13
   LPB:    4  -0.282289994931659E+00   0.107454058715891E+01   0.240911E-01   0.334553E+00   0.689850E+02  -0.131387E-13
   LPB:    5  -0.248291620276802E+00   0.596340047408876E+00   0.230623E-01   0.563545E+00   0.417339E+03  -0.146705E-13
  Finished solving LPB equations
  A_corr:   -0.172667543852169     
 End minimization
 Ecorr=   2000.99823834256     
 A_corr= -0.172667543852169     
 Ecorr_band=  -2001.17090588641     
 End Solvation calculations
RMM:   6    -0.159043964197E+03    0.71883E+01   -0.37718E+02 12254   0.970E+01    0.357E+01
 Begin Solvation calculations
  rms_SCF =    6.29795280734248      tol =   0.629795280734248     
 Begin minimization
 Creating dielectric and ionic cavities
  area:      165.179006052907     
  volume:    657.031092052738     
  Acav:     8.671897817777627E-002
  Solving linear dielectric/ionic screening model
        iter                  A_solv                     rms
   LPB:       -0.123498351175977E+02   0.656154670450732E+02
   LPB:    0  -0.107923250257260E+02   0.619117234283247E+02   0.333022E+00   0.000000E+00   0.280877E+02   0.935380E+01
   LPB:    1  -0.115561667602498E+01   0.556490642441684E+01   0.894872E-02   0.000000E+00   0.625654E+02   0.734158E-15
   LPB:    2  -0.352330857341943E+00   0.133850455704949E+01   0.150012E-01   0.497253E-01   0.157430E+03  -0.253111E-14
   LPB:    3  -0.232516083208587E+00   0.884974847424389E+00   0.237846E-01   0.940740E-01   0.136409E+03  -0.203940E-14
   LPB:    4  -0.196187396898649E+00   0.790987417980143E+00   0.223984E-01   0.321972E+00   0.257005E+03  -0.160563E-14
   LPB:    5  -0.177393402293843E+00   0.328770402108558E+00   0.248953E-01   0.465446E+00   0.983021E+02   0.279343E-14
  Finished solving LPB equations
  A_corr:   -9.067442411606677E-002
 End minimization
 Ecorr=   1876.06889257378     
 A_corr= -9.067442411606677E-002
 Ecorr_band=  -1876.15956699790     
 End Solvation calculations
RMM:   7    -0.142141902899E+03    0.16902E+02   -0.72499E+01 12379   0.449E+01    0.136E+01
 Begin Solvation calculations
  rms_SCF =    6.29795280734248      tol =   0.629795280734248     
 Begin minimization
 Creating dielectric and ionic cavities
  area:      141.929488990720     
  volume:    654.744572369792     
  Acav:     7.451298172012798E-002
  Solving linear dielectric/ionic screening model
        iter                  A_solv                     rms
   LPB:       -0.530546440094578E+01   0.437763549169220E+02
   LPB:    0  -0.530544301273804E+01   0.437751669623778E+02  -0.123173E-02   0.000000E+00   0.281949E+02  -0.347286E-01
   LPB:    1  -0.643572061521684E+00   0.411406920300011E+01   0.888596E-02   0.000000E+00   0.616077E+02  -0.197534E-17
   LPB:    2  -0.244624784828671E+00   0.623183443482078E+00   0.152773E-01   0.497752E-01   0.133304E+03   0.255790E-14
   LPB:    3  -0.189803339716764E+00   0.302286036974605E+00   0.232044E-01   0.904715E-01   0.287570E+03   0.586611E-14
   LPB:    4  -0.176995450906896E+00   0.145755323544393E+00   0.263042E-01   0.206097E+00   0.219575E+03   0.586929E-14
  Finished solving LPB equations
  A_corr:   -0.102482469186768     
 End minimization
 Ecorr=   1860.00831861796     
 A_corr= -0.102482469186768     
 Ecorr_band=  -1860.11080108715     
 End Solvation calculations
RMM:   8    -0.138093979894E+03    0.40479E+01   -0.63012E+00 12326   0.107E+01    0.110E+01
 Begin Solvation calculations
  rms_SCF =    3.91651403201419      tol =   0.391651403201419     
 Begin minimization
 Creating dielectric and ionic cavities
  area:      149.501761231311     
  volume:    652.475472929837     
  Acav:     7.848842464643836E-002
  Solving linear dielectric/ionic screening model
        iter                  A_solv                     rms
   LPB:       -0.299637082085441E+00   0.407905584390132E+01
   LPB:    0  -0.280127396131064E+00   0.230817988148828E+01  -0.371311E-01   0.000000E+00   0.283012E+02  -0.105086E+01
   LPB:    1  -0.214911468517686E+00   0.824278040215867E+00   0.155144E-01   0.000000E+00   0.648442E+02  -0.233284E-16
   LPB:    2  -0.201873124358133E+00   0.459285719340948E+00   0.180340E-01   0.171993E+00   0.209192E+03   0.149133E-13
   LPB:    3  -0.194664406959148E+00   0.335751066868964E+00   0.250351E-01   0.398271E+00   0.111685E+03   0.176946E-13
   LPB:    4  -0.190803383118767E+00   0.467509482549118E+00   0.243436E-01   0.550820E+00   0.556762E+02   0.191885E-13
   LPB:    5  -0.187011284102059E+00   0.236970740641741E+00   0.264457E-01   0.904079E+00   0.738928E+02   0.201976E-13
  Finished solving LPB equations
  A_corr:   -0.108522859455620     
 End minimization
 Ecorr=   1836.02249869226     
 A_corr= -0.108522859455620     
 Ecorr_band=  -1836.13102155172     
 End Solvation calculations
RMM:   9    -0.137082132901E+03    0.10118E+01   -0.19221E+00 12392   0.496E+00    0.122E+01
 Begin Solvation calculations
  rms_SCF =    3.91651403201419      tol =   0.391651403201419     
 Begin minimization
 Creating dielectric and ionic cavities
  area:      148.131110493918     
  volume:    651.379402826949     
  Acav:     7.776883300930684E-002
  Solving linear dielectric/ionic screening model
        iter                  A_solv                     rms
   LPB:       -0.626485183975613E+00   0.128237200318755E+02
   LPB:    0  -0.626484452923314E+00   0.128243112560528E+02   0.227087E-03   0.000000E+00   0.283526E+02   0.643852E-02
   LPB:    1  -0.231887771641912E+00   0.127920551219767E+01   0.874490E-02   0.000000E+00   0.626129E+02   0.233647E-18
   LPB:    2  -0.193691139743036E+00   0.245806785145394E+00   0.171209E-01   0.494423E-01   0.102791E+03  -0.390993E-14
   LPB:    3  -0.187450231659660E+00   0.106368991773725E+00   0.239700E-01   0.116703E+00   0.178777E+03  -0.389340E-14
   LPB:    4  -0.184608296250662E+00   0.716082159190860E-01   0.348171E-01   0.313503E+00   0.134526E+03  -0.414985E-14
  Finished solving LPB equations
  A_corr:   -0.106839463241355     
 End minimization
 Ecorr=   1820.99011327791     
 A_corr= -0.106839463241355     
 Ecorr_band=  -1821.09695274115     
 End Solvation calculations
RMM:  10    -0.137411557513E+03   -0.32942E+00   -0.19577E+00 12297   0.500E+00    0.975E+00
 Begin Solvation calculations
  rms_SCF =    3.91651403201419      tol =   0.391651403201419     
 Begin minimization
 Creating dielectric and ionic cavities
  area:      132.740974168119     
  volume:    647.711165572294     
  Acav:     6.968901143826238E-002
  Solving linear dielectric/ionic screening model
        iter                  A_solv                     rms
   LPB:       -0.796444771275039E+00   0.124152062711814E+02
   LPB:    0  -0.796364190193826E+00   0.123974860451704E+02  -0.237696E-02   0.000000E+00   0.285246E+02  -0.678018E-01
   LPB:    1  -0.333955656513814E+00   0.159744910001644E+01   0.958003E-02   0.000000E+00   0.646310E+02   0.330787E-17
   LPB:    2  -0.271088553924959E+00   0.335557161862318E+00   0.150685E-01   0.864359E-01   0.207281E+03  -0.156946E-14
   LPB:    3  -0.255341851405239E+00   0.265417503712049E+00   0.277160E-01   0.136178E+00   0.306575E+03  -0.466719E-14
   LPB:    4  -0.248761361005225E+00   0.245782891297416E+00   0.306329E-01   0.378104E+00   0.850429E+02  -0.606272E-14
  Finished solving LPB equations
  A_corr:   -0.179072349566963     
 End minimization
 Ecorr=   1789.66652037777     
 A_corr= -0.179072349566963     
 Ecorr_band=  -1789.84559272734     
 End Solvation calculations
RMM:  11    -0.136527769308E+03    0.88379E+00   -0.57947E-01 12370   0.274E+00    0.421E+00
 Begin Solvation calculations
  rms_SCF =   0.680137874857742      tol =   6.801378748577423E-002
 Begin minimization
 Creating dielectric and ionic cavities
  area:      129.503258957914     
  volume:    646.410992077600     
  Acav:     6.798921095290494E-002
  Solving linear dielectric/ionic screening model
        iter                  A_solv                     rms
   LPB:       -0.282767164017087E+00   0.129410726359584E+01
   LPB:    0  -0.282718547890088E+00   0.132478023664999E+01   0.184430E-02   0.000000E+00   0.285855E+02   0.527204E-01
   LPB:    1  -0.266694148466337E+00   0.710278745338538E+00   0.130316E-01   0.000000E+00   0.979005E+02  -0.471879E-18
   LPB:    2  -0.262906033196138E+00   0.181522339622308E+00   0.154270E-01   0.199690E+00   0.836368E+02   0.415566E-15
   LPB:    3  -0.258064056349141E+00   0.182818852208396E+00   0.491098E-01   0.401527E+00   0.508315E+02   0.179906E-15
   LPB:    4  -0.253594909389834E+00   0.702127439140931E-01   0.412878E-01   0.109786E+01   0.556950E+02  -0.881246E-15
   LPB:    5  -0.251389207882965E+00   0.690517011234733E-01   0.328052E-01   0.621156E+00   0.131982E+03  -0.210261E-14
   LPB:    6  -0.250088536464041E+00   0.722250993183375E-01   0.355360E-01   0.544371E+00   0.822740E+02  -0.262030E-14
   LPB:    7  -0.249212070641808E+00   0.104719277455596E+00   0.359719E-01   0.665691E+00   0.473240E+03  -0.248302E-14
   LPB:    8  -0.248682492680382E+00   0.989135042943676E-01   0.293175E-01   0.741363E+00   0.599772E+02  -0.236938E-14
   LPB:    9  -0.248328059072357E+00   0.581834888244845E-01   0.261765E-01   0.749585E+00   0.392170E+03  -0.198478E-14
  Finished solving LPB equations
  A_corr:   -0.180338848119452     
 End minimization
 Ecorr=   1756.27021909977     
 A_corr= -0.180338848119452     
 Ecorr_band=  -1756.45055794789     
 End Solvation calculations
RMM:  12    -0.136356091863E+03    0.17168E+00   -0.38237E-01 12426   0.217E+00    0.208E+00
 Begin Solvation calculations
  rms_SCF =   0.680137874857742      tol =   6.801378748577423E-002
 Begin minimization
 Creating dielectric and ionic cavities
  area:      126.618402709300     
  volume:    645.099594970177     
  Acav:     6.647466142238254E-002
  Solving linear dielectric/ionic screening model
        iter                  A_solv                     rms
   LPB:       -0.280578966876898E+00   0.106579058679765E+01
   LPB:    0  -0.280327625743974E+00   0.113628465013928E+01   0.418897E-02   0.000000E+00   0.286470E+02   0.120001E+00
   LPB:    1  -0.267196968227624E+00   0.570055670920530E+00   0.149825E-01   0.000000E+00   0.808053E+02   0.662060E-17
   LPB:    2  -0.263900003949175E+00   0.165385912609089E+00   0.137314E-01   0.273968E+00   0.186233E+03  -0.750243E-15
   LPB:    3  -0.262814025283076E+00   0.101763870186367E+00   0.251227E-01   0.180034E+00   0.173129E+03  -0.941187E-15
   LPB:    4  -0.262401071284946E+00   0.822991019235680E-01   0.251918E-01   0.379216E+00   0.103198E+03  -0.960935E-15
   LPB:    5  -0.262178843716262E+00   0.618865423608955E-01   0.244359E-01   0.554788E+00   0.252952E+03  -0.843268E-15
  Finished solving LPB equations
  A_corr:   -0.195704182293879     
 End minimization
 Ecorr=   1746.41578030244     
 A_corr= -0.195704182293879     
 Ecorr_band=  -1746.61148448473     
 End Solvation calculations
RMM:  13    -0.136334828898E+03    0.21263E-01   -0.17097E-01 12364   0.178E+00    0.219E+00
 Begin Solvation calculations
  rms_SCF =   0.680137874857742      tol =   6.801378748577423E-002
 Begin minimization
 Creating dielectric and ionic cavities
  area:      125.135675776293     
  volume:    642.690826954829     
  Acav:     6.569622978255366E-002
  Solving linear dielectric/ionic screening model
        iter                  A_solv                     rms
   LPB:       -0.335247986908162E+00   0.130645263120250E+01
   LPB:    0  -0.335247665015764E+00   0.130072493174875E+01  -0.149615E-03   0.000000E+00   0.287600E+02  -0.430293E-02
   LPB:    1  -0.301001262116951E+00   0.864248492590929E+00   0.160617E-01   0.000000E+00   0.113913E+03   0.844538E-20
   LPB:    2  -0.295678034080573E+00   0.276534198832518E+00   0.143976E-01   0.173405E+00   0.865039E+02   0.269447E-14
   LPB:    3  -0.293573017401984E+00   0.158303035575315E+00   0.204556E-01   0.278329E+00   0.211289E+03   0.279669E-14
   LPB:    4  -0.292477152263932E+00   0.161108935315730E+00   0.257619E-01   0.413369E+00   0.773480E+02   0.331047E-14
   LPB:    5  -0.291701569656619E+00   0.124714926583765E+00   0.257554E-01   0.707912E+00   0.232605E+03   0.267030E-14
   LPB:    6  -0.291062385785777E+00   0.483047835955566E-01   0.340347E-01   0.623656E+00   0.591188E+02   0.277209E-14
  Finished solving LPB equations
  A_corr:   -0.225366156003223     
 End minimization
 Ecorr=   1728.55307717004     
 A_corr= -0.225366156003223     
 Ecorr_band=  -1728.77844332605     
 End Solvation calculations
RMM:  14    -0.136326486793E+03    0.83421E-02   -0.80664E-02 12299   0.130E+00    0.154E+00
 Begin Solvation calculations
  rms_SCF =   0.680137874857742      tol =   6.801378748577423E-002
 Begin minimization
 Creating dielectric and ionic cavities
  area:      125.224900459561     
  volume:    640.491518681040     
  Acav:     6.574307274126930E-002
  Solving linear dielectric/ionic screening model
        iter                  A_solv                     rms
   LPB:       -0.360778512510392E+00   0.153783385911507E+01
   LPB:    0  -0.360213427031492E+00   0.127177345546726E+01  -0.625750E-02   0.000000E+00   0.288631E+02  -0.180611E+00
   LPB:    1  -0.329775027471098E+00   0.797114139483766E+00   0.158969E-01   0.000000E+00   0.105281E+03   0.121219E-16
   LPB:    2  -0.324992488983076E+00   0.256472683428697E+00   0.145220E-01   0.171997E+00   0.883478E+02  -0.205414E-15
   LPB:    3  -0.323299403256112E+00   0.155125247033383E+00   0.197282E-01   0.260592E+00   0.202386E+03  -0.781561E-15
   LPB:    4  -0.322269375553173E+00   0.172723754854042E+00   0.276052E-01   0.434775E+00   0.659817E+02  -0.132885E-14
   LPB:    5  -0.321320906574871E+00   0.141027180686238E+00   0.287074E-01   0.885465E+00   0.186446E+03  -0.982972E-15
   LPB:    6  -0.320449432745938E+00   0.547437313775401E-01   0.348806E-01   0.756210E+00   0.488584E+02  -0.266002E-16
  Finished solving LPB equations
  A_corr:   -0.254706360004668     
 End minimization
 Ecorr=   1711.79263267521     
 A_corr= -0.254706360004668     
 Ecorr_band=  -1712.04733903521     
 End Solvation calculations
RMM:  15    -0.136314913840E+03    0.11573E-01   -0.34262E-02 12298   0.774E-01    0.636E-01
 Begin Solvation calculations
  rms_SCF =   0.488149166537222      tol =   4.881491665372217E-002
 Begin minimization
 Creating dielectric and ionic cavities
  area:      125.446026530221     
  volume:    639.931338970939     
  Acav:     6.585916392836623E-002
  Solving linear dielectric/ionic screening model
        iter                  A_solv                     rms
   LPB:       -0.335910446471745E+00   0.463444213419840E+00
   LPB:    0  -0.335910443651094E+00   0.463006619847501E+00  -0.139740E-04   0.000000E+00   0.288893E+02  -0.403700E-03
   LPB:    1  -0.331621595996129E+00   0.375093727174153E+00   0.149705E-01   0.000000E+00   0.143935E+03   0.741873E-20
   LPB:    2  -0.330836772346718E+00   0.867541768787198E-01   0.135237E-01   0.202569E+00   0.721547E+02   0.212686E-14
   LPB:    3  -0.330549417248617E+00   0.476895347284940E-01   0.220635E-01   0.224423E+00   0.198700E+03   0.249532E-14
   LPB:    4  -0.330150334281831E+00   0.907727290095158E-01   0.547122E-01   0.560060E+00   0.497661E+02   0.255744E-14
   LPB:    5  -0.329630774947892E+00   0.121970905321161E+00   0.360326E-01   0.197679E+01   0.923493E+02   0.253974E-14
   LPB:    6  -0.329251472335457E+00   0.460637947918862E-01   0.249727E-01   0.105337E+01   0.325371E+02   0.226237E-14
  Finished solving LPB equations
  A_corr:   -0.263392308407090     
 End minimization
 Ecorr=   1701.44788580630     
 A_corr= -0.263392308407090     
 Ecorr_band=  -1701.71127811471     
 End Solvation calculations
RMM:  16    -0.136311580237E+03    0.33336E-02   -0.87643E-03 12601   0.377E-01    0.464E-01
 Begin Solvation calculations
  rms_SCF =   0.488149166537222      tol =   4.881491665372217E-002
 Begin minimization
 Creating dielectric and ionic cavities
  area:      125.910824657151     
  volume:    639.025692781718     
  Acav:     6.610318294500435E-002
  Solving linear dielectric/ionic screening model
        iter                  A_solv                     rms
   LPB:       -0.360181943641952E+00   0.105153236732041E+01
   LPB:    0  -0.359683106915942E+00   0.816524195111367E+00  -0.587228E-02   0.000000E+00   0.289318E+02  -0.169895E+00
   LPB:    1  -0.347297750678064E+00   0.291505055999283E+00   0.173006E-01   0.000000E+00   0.944068E+02   0.990282E-17
   LPB:    2  -0.345824087212829E+00   0.126745710719869E+00   0.155057E-01   0.132758E+00   0.135155E+03   0.414967E-14
   LPB:    3  -0.345409491543273E+00   0.462357816621604E-01   0.216656E-01   0.201349E+00   0.963700E+02   0.415776E-14
   LPB:    4  -0.345200322746151E+00   0.442819628107279E-01   0.294863E-01   0.370699E+00   0.235117E+03   0.387063E-14
  Finished solving LPB equations
  A_corr:   -0.279097139801146     
 End minimization
 Ecorr=   1696.10428184469     
 A_corr= -0.279097139801146     
 Ecorr_band=  -1696.38337898449     
 End Solvation calculations
RMM:  17    -0.136312253907E+03   -0.67367E-03   -0.69137E-03 12853   0.173E-01    0.165E-01
 Begin Solvation calculations
  rms_SCF =   0.192606585354263      tol =   1.926065853542632E-002
 Begin minimization
 Creating dielectric and ionic cavities
  area:      126.495961395758     
  volume:    638.311403798221     
  Acav:     6.641037973277310E-002
  Solving linear dielectric/ionic screening model
        iter                  A_solv                     rms
   LPB:       -0.380391936176140E+00   0.103660808014463E+01
   LPB:    0  -0.380175100398605E+00   0.888979864068749E+00  -0.386938E-02   0.000000E+00   0.289653E+02  -0.112078E+00
   LPB:    1  -0.367568635674954E+00   0.688951783897154E+00   0.142480E-01   0.000000E+00   0.120531E+03  -0.214626E-17
   LPB:    2  -0.365037974011962E+00   0.132877760161566E+00   0.133687E-01   0.213947E+00   0.656597E+02  -0.176817E-14
   LPB:    3  -0.364214650763139E+00   0.113418673785320E+00   0.239285E-01   0.181765E+00   0.217566E+03  -0.202711E-14
   LPB:    4  -0.363722787098342E+00   0.100582132534393E+00   0.263402E-01   0.542715E+00   0.633666E+02  -0.215979E-14
   LPB:    5  -0.363329910128135E+00   0.715347301891561E-01   0.289241E-01   0.727396E+00   0.218163E+03  -0.160822E-14
   LPB:    6  -0.362998153295190E+00   0.290834443494167E-01   0.351983E-01   0.693906E+00   0.669511E+02  -0.120303E-14
   LPB:    7  -0.362741497991393E+00   0.171144121053382E-01   0.390551E-01   0.697228E+00   0.160902E+03  -0.449245E-15
  Finished solving LPB equations
  A_corr:   -0.296331118258620     
 End minimization
 Ecorr=   1685.48265434464     
 A_corr= -0.296331118258620     
 Ecorr_band=  -1685.77898546290     
 End Solvation calculations
RMM:  18    -0.136315371843E+03   -0.31179E-02   -0.30365E-03 12266   0.170E-01    0.240E-01
 Begin Solvation calculations
  rms_SCF =   0.192606585354263      tol =   1.926065853542632E-002
 Begin minimization
 Creating dielectric and ionic cavities
  area:      127.223930470978     
  volume:    637.543757497034     
  Acav:     6.679256349726319E-002
  Solving linear dielectric/ionic screening model
        iter                  A_solv                     rms
   LPB:       -0.411836400490985E+00   0.142706436786503E+01
   LPB:    0  -0.411044907487794E+00   0.113541923713577E+01  -0.738805E-02   0.000000E+00   0.290013E+02  -0.214263E+00
   LPB:    1  -0.389372178246477E+00   0.501491016944250E+00   0.169159E-01   0.000000E+00   0.898464E+02  -0.465111E-17
   LPB:    2  -0.386556476124805E+00   0.205424432628794E+00   0.145955E-01   0.150574E+00   0.945901E+02  -0.208906E-14
   LPB:    3  -0.385726285596257E+00   0.126250854976106E+00   0.198635E-01   0.216648E+00   0.155147E+03  -0.243183E-14
   LPB:    4  -0.385370707362063E+00   0.106077007753799E+00   0.215997E-01   0.393881E+00   0.864633E+02  -0.219947E-14
   LPB:    5  -0.385061442739865E+00   0.787223574608873E-01   0.269118E-01   0.698070E+00   0.205958E+03  -0.204554E-14
   LPB:    6  -0.384722534495468E+00   0.305935656151056E-01   0.379403E-01   0.777309E+00   0.552428E+02  -0.189104E-14
   LPB:    7  -0.384443001823399E+00   0.159560644341523E-01   0.389119E-01   0.804209E+00   0.116529E+03  -0.135661E-14
  Finished solving LPB equations
  A_corr:   -0.317650438326136     
 End minimization
 Ecorr=   1674.92761557868     
 A_corr= -0.317650438326136     
 Ecorr_band=  -1675.24526601700     
 End Solvation calculations
RMM:  19    -0.136317981435E+03   -0.26096E-02   -0.31773E-03 12199   0.127E-01    0.277E-01
 Begin Solvation calculations
  rms_SCF =   0.192606585354263      tol =   1.926065853542632E-002
 Begin minimization
 Creating dielectric and ionic cavities
  area:      127.480496383011     
  volume:    637.354722222905     
  Acav:     6.692726060108073E-002
  Solving linear dielectric/ionic screening model
        iter                  A_solv                     rms
   LPB:       -0.396798091949461E+00   0.707336504977774E+00
   LPB:    0  -0.396602039437730E+00   0.589367753994339E+00  -0.367643E-02   0.000000E+00   0.290101E+02  -0.106654E+00
   LPB:    1  -0.392869942734285E+00   0.153283301471119E+00   0.168163E-01   0.000000E+00   0.646571E+02   0.291302E-17
   LPB:    2  -0.392425619612163E+00   0.805622836051925E-01   0.146804E-01   0.136377E+00   0.209943E+03  -0.757182E-15
   LPB:    3  -0.392291603736013E+00   0.456505599303158E-01   0.198473E-01   0.223097E+00   0.100557E+03  -0.121137E-14
   LPB:    4  -0.392222117413275E+00   0.630581520178984E-01   0.254304E-01   0.404659E+00   0.113448E+03  -0.129675E-14
   LPB:    5  -0.392119327450379E+00   0.517218664250156E-01   0.349166E-01   0.107739E+01   0.814408E+02  -0.134012E-14
   LPB:    6  -0.391958013641621E+00   0.216346689296280E-01   0.433300E-01   0.126463E+01   0.410060E+02  -0.114239E-14
   LPB:    7  -0.391853418508264E+00   0.124868290324584E-01   0.321670E-01   0.873409E+00   0.964725E+02  -0.147896E-15
  Finished solving LPB equations
  A_corr:   -0.324926157907183     
 End minimization
 Ecorr=   1669.91378803210     
 A_corr= -0.324926157907183     
 Ecorr_band=  -1670.23871419000     
 End Solvation calculations
RMM:  20    -0.136318366170E+03   -0.38473E-03   -0.57412E-04 13874   0.581E-02    0.278E-01
 Begin Solvation calculations
  rms_SCF =   0.192606585354263      tol =   1.926065853542632E-002
 Begin minimization
 Creating dielectric and ionic cavities
  area:      127.693211730129     
  volume:    637.276218371124     
  Acav:     6.703893615831785E-002
  Solving linear dielectric/ionic screening model
        iter                  A_solv                     rms
   LPB:       -0.404679472420489E+00   0.972819662004218E+00
   LPB:    0  -0.404227633736159E+00   0.821081745623996E+00  -0.558090E-02   0.000000E+00   0.290138E+02  -0.161923E+00
   LPB:    1  -0.399566589207952E+00   0.223599685278493E+00   0.152327E-01   0.000000E+00   0.540048E+02   0.695654E-17
   LPB:    2  -0.398971591592770E+00   0.820015971736789E-01   0.127315E-01   0.152732E+00   0.226531E+03   0.171857E-14
   LPB:    3  -0.398832871810832E+00   0.396331226096631E-01   0.175094E-01   0.169524E+00   0.153973E+03   0.220554E-14
   LPB:    4  -0.398790492801862E+00   0.324855605328268E-01   0.202244E-01   0.264489E+00   0.106131E+03   0.216394E-14
   LPB:    5  -0.398763869769612E+00   0.198200231705935E-01   0.267860E-01   0.474325E+00   0.116279E+03   0.197739E-14
   LPB:    6  -0.398738540972964E+00   0.876150946847048E-02   0.381896E-01   0.667297E+00   0.790637E+02   0.177183E-14
  Finished solving LPB equations
  A_corr:   -0.331699604814647     
 End minimization
 Ecorr=   1667.84252313004     
 A_corr= -0.331699604814647     
 Ecorr_band=  -1668.17422273485     
 End Solvation calculations
RMM:  21    -0.136318034375E+03    0.33180E-03   -0.76495E-04 12176   0.587E-02    0.184E-01
 Begin Solvation calculations
  rms_SCF =   0.192606585354263      tol =   1.926065853542632E-002
 Begin minimization
 Creating dielectric and ionic cavities
  area:      128.045087419425     
  volume:    637.286158379154     
  Acav:     6.722367089519825E-002
  Solving linear dielectric/ionic screening model
        iter                  A_solv                     rms
   LPB:       -0.428098207314417E+00   0.159951283965130E+01
   LPB:    0  -0.426779215695080E+00   0.132879533476573E+01  -0.953536E-02   0.000000E+00   0.290133E+02  -0.276653E+00
   LPB:    1  -0.413086770565442E+00   0.301195207903016E+00   0.156552E-01   0.000000E+00   0.567098E+02   0.972065E-17
   LPB:    2  -0.411560223560202E+00   0.155843958326914E+00   0.138554E-01   0.125970E+00   0.232132E+03   0.144272E-14
   LPB:    3  -0.411172764028424E+00   0.731339217432348E-01   0.173553E-01   0.202630E+00   0.106781E+03   0.192742E-14
   LPB:    4  -0.411006326197273E+00   0.718790376369175E-01   0.222464E-01   0.335119E+00   0.118370E+03   0.213332E-14
   LPB:    5  -0.410902205210705E+00   0.431842638620408E-01   0.246735E-01   0.564046E+00   0.986527E+02   0.221273E-14
   LPB:    6  -0.410818151641536E+00   0.162136789014199E-01   0.322810E-01   0.617023E+00   0.937099E+02   0.222096E-14
  Finished solving LPB equations
  A_corr:   -0.343594480746337     
 End minimization
 Ecorr=   1664.00335974940     
 A_corr= -0.343594480746337     
 Ecorr_band=  -1664.34695423015     
 End Solvation calculations
RMM:  22    -0.136319112339E+03   -0.10780E-02   -0.15509E-03 12181   0.849E-02    0.108E-01
 Begin Solvation calculations
  rms_SCF =   0.154022429532717      tol =   1.540224295327173E-002
 Begin minimization
 Creating dielectric and ionic cavities
  area:      128.216398241767     
  volume:    637.394332523020     
  Acav:     6.731360907692753E-002
  Solving linear dielectric/ionic screening model
        iter                  A_solv                     rms
   LPB:       -0.421900585546447E+00   0.820231898899575E+00
   LPB:    0  -0.421584167682254E+00   0.689103984302719E+00  -0.467073E-02   0.000000E+00   0.290083E+02  -0.135490E+00
   LPB:    1  -0.417673272145461E+00   0.118128182940495E+00   0.155524E-01   0.000000E+00   0.607594E+02  -0.104791E-16
   LPB:    2  -0.417277232347226E+00   0.802198837264760E-01   0.155068E-01   0.101563E+00   0.239626E+03  -0.994721E-15
   LPB:    3  -0.417178010865427E+00   0.421605502742254E-01   0.182624E-01   0.212732E+00   0.736212E+02  -0.149904E-14
   LPB:    4  -0.417104256676872E+00   0.574106039324062E-01   0.288319E-01   0.470832E+00   0.110761E+03  -0.187764E-14
   LPB:    5  -0.417030376545364E+00   0.501799639814989E-01   0.288157E-01   0.100227E+01   0.653832E+02  -0.214805E-14
   LPB:    6  -0.416955988850533E+00   0.182667317677842E-01   0.303794E-01   0.955041E+00   0.625624E+02  -0.229230E-14
   LPB:    7  -0.416906146575922E+00   0.787300285144845E-02   0.326611E-01   0.623226E+00   0.181424E+03  -0.190736E-14
  Finished solving LPB equations
  A_corr:   -0.349592537498994     
 End minimization
 Ecorr=   1660.72402367289     
 A_corr= -0.349592537498994     
 Ecorr_band=  -1661.07361621039     
 End Solvation calculations
RMM:  23    -0.136319880499E+03   -0.76816E-03   -0.28910E-04 12075   0.398E-02    0.128E-01
 Begin Solvation calculations
  rms_SCF =   0.154022429532717      tol =   1.540224295327173E-002
 Begin minimization
 Creating dielectric and ionic cavities
  area:      128.315852291443     
  volume:    637.502891777036     
  Acav:     6.736582245300744E-002
  Solving linear dielectric/ionic screening model
        iter                  A_solv                     rms
   LPB:       -0.423925270993630E+00   0.751351636737892E+00
   LPB:    0  -0.423710012482406E+00   0.660174718456241E+00  -0.385276E-02   0.000000E+00   0.290032E+02  -0.111742E+00
   LPB:    1  -0.421145805752665E+00   0.140452164099954E+00   0.142368E-01   0.000000E+00   0.537107E+02  -0.517538E-17
   LPB:    2  -0.420876647239746E+00   0.638233319136508E-01   0.128060E-01   0.116696E+00   0.234042E+03  -0.765565E-16
   LPB:    3  -0.420811352773077E+00   0.234832861787214E-01   0.166439E-01   0.186649E+00   0.123923E+03  -0.848771E-16
   LPB:    4  -0.420790439370765E+00   0.232246357195263E-01   0.231543E-01   0.230236E+00   0.100776E+03  -0.152664E-15
   LPB:    5  -0.420773624572036E+00   0.199286835420450E-01   0.309947E-01   0.600634E+00   0.103259E+03  -0.612543E-16
   LPB:    6  -0.420748571662022E+00   0.112341778615678E-01   0.446238E-01   0.103488E+01   0.550839E+02   0.300694E-16
  Finished solving LPB equations
  A_corr:   -0.353382749209015     
 End minimization
 Ecorr=   1659.11019000372     
 A_corr= -0.353382749209015     
 Ecorr_band=  -1659.46357275293     
 End Solvation calculations
RMM:  24    -0.136320199726E+03   -0.31923E-03   -0.18657E-04 11799   0.314E-02    0.993E-02
 Begin Solvation calculations
  rms_SCF =   0.154022429532717      tol =   1.540224295327173E-002
 Begin minimization
 Creating dielectric and ionic cavities
  area:      128.394327466426     
  volume:    637.661055694562     
  Acav:     6.740702191987377E-002
  Solving linear dielectric/ionic screening model
        iter                  A_solv                     rms
   LPB:       -0.429491597036428E+00   0.102685749222978E+01
   LPB:    0  -0.429151550448288E+00   0.930051121960894E+00  -0.484303E-02   0.000000E+00   0.289958E+02  -0.140427E+00
   LPB:    1  -0.424976310500729E+00   0.192339732695469E+00   0.130967E-01   0.000000E+00   0.533695E+02  -0.988754E-17
   LPB:    2  -0.424525238837670E+00   0.720069435744941E-01   0.121071E-01   0.116866E+00   0.222576E+03  -0.148344E-14
   LPB:    3  -0.424429139621580E+00   0.230626321244645E-01   0.170758E-01   0.151054E+00   0.127760E+03  -0.163033E-14
   LPB:    4  -0.424398656266140E+00   0.251544170469895E-01   0.263384E-01   0.205653E+00   0.915712E+02  -0.169004E-14
   LPB:    5  -0.424377390063330E+00   0.223051533196812E-01   0.292854E-01   0.627432E+00   0.990373E+02  -0.183413E-14
   LPB:    6  -0.424356695958708E+00   0.109514904807786E-01   0.330129E-01   0.863224E+00   0.623200E+02  -0.199544E-14
  Finished solving LPB equations
  A_corr:   -0.356949674038834     
 End minimization
 Ecorr=   1657.53864136427     
 A_corr= -0.356949674038834     
 Ecorr_band=  -1657.89559103830     
 End Solvation calculations
RMM:  25    -0.136320519194E+03   -0.31947E-03   -0.19321E-04 12085   0.282E-02    0.641E-02
 Begin Solvation calculations
  rms_SCF =   0.131669983534128      tol =   1.316699835341277E-002
 Begin minimization
 Creating dielectric and ionic cavities
  area:      128.426736314644     
  volume:    637.814550307772     
  Acav:     6.742403656518821E-002
  Solving linear dielectric/ionic screening model
        iter                  A_solv                     rms
   LPB:       -0.433522226214440E+00   0.122326686324963E+01
   LPB:    0  -0.433106630572104E+00   0.112828883012501E+01  -0.535472E-02   0.000000E+00   0.289886E+02  -0.155226E+00
   LPB:    1  -0.427829974328940E+00   0.215095994402742E+00   0.120948E-01   0.000000E+00   0.543584E+02  -0.100041E-16
   LPB:    2  -0.427263808573341E+00   0.694186345355088E-01   0.118104E-01   0.109881E+00   0.218379E+03  -0.918557E-16
   LPB:    3  -0.427158440955745E+00   0.220982323832491E-01   0.177897E-01   0.123555E+00   0.129239E+03  -0.106044E-15
   LPB:    4  -0.427129104634163E+00   0.233664256338118E-01   0.261256E-01   0.189583E+00   0.907767E+02  -0.153095E-16
   LPB:    5  -0.427109752565688E+00   0.210831481475852E-01   0.291965E-01   0.590279E+00   0.103829E+03   0.201854E-15
   LPB:    6  -0.427091381210043E+00   0.108945168305854E-01   0.324686E-01   0.853654E+00   0.641346E+02   0.471417E-15
  Finished solving LPB equations
  A_corr:   -0.359667344644854     
 End minimization
 Ecorr=   1656.19877655492     
 A_corr= -0.359667344644854     
 Ecorr_band=  -1656.55844389957     
 End Solvation calculations
RMM:  26    -0.136320801916E+03   -0.28272E-03   -0.16391E-04 11823   0.244E-02    0.280E-02
 Begin Solvation calculations
  rms_SCF =   5.014494696011340E-002 tol =   5.014494696011340E-003
 Begin minimization
 Creating dielectric and ionic cavities
  area:      128.424299150048     
  volume:    637.845532920528     
  Acav:     6.742275705377496E-002
  Solving linear dielectric/ionic screening model
        iter                  A_solv                     rms
   LPB:       -0.428759126232168E+00   0.531333715177182E+00
   LPB:    0  -0.428706630651012E+00   0.503163161598764E+00  -0.190315E-02   0.000000E+00   0.289871E+02  -0.551669E-01
   LPB:    1  -0.427771446706417E+00   0.841802239500291E-01   0.110757E-01   0.000000E+00   0.583515E+02  -0.109997E-18
   LPB:    2  -0.427680079994146E+00   0.247824589364239E-01   0.116355E-01   0.929995E-01   0.218006E+03   0.114480E-15
   LPB:    3  -0.427664932437818E+00   0.788922999466570E-02   0.189905E-01   0.101578E+00   0.120497E+03   0.774309E-16
   LPB:    4  -0.427657310812299E+00   0.136810449362051E-01   0.403710E-01   0.236686E+00   0.671079E+02   0.910316E-16
   LPB:    5  -0.427644749270281E+00   0.191387969627107E-01   0.465035E-01   0.143080E+01   0.630571E+02   0.136063E-15
   LPB:    6  -0.427631839559119E+00   0.101919122503579E-01   0.293086E-01   0.163067E+01   0.406143E+02   0.342902E-15
   LPB:    7  -0.427624589183669E+00   0.303011277410717E-02   0.274586E-01   0.599459E+00   0.175999E+03   0.576126E-15
  Finished solving LPB equations
  A_corr:   -0.360201832129894     
 End minimization
 Ecorr=   1655.25946863943     
 A_corr= -0.360201832129894     
 Ecorr_band=  -1655.61967047156     
 End Solvation calculations
RMM:  27    -0.136320883268E+03   -0.81353E-04   -0.57152E-05  9039   0.206E-02    0.327E-02
 Begin Solvation calculations
  rms_SCF =   5.014494696011340E-002 tol =   5.014494696011340E-003
 Begin minimization
 Creating dielectric and ionic cavities
  area:      128.427443931611     
  volume:    637.837650592887     
  Acav:     6.742440806409601E-002
  Solving linear dielectric/ionic screening model
        iter                  A_solv                     rms
   LPB:       -0.428725762099457E+00   0.413959218467386E+00
   LPB:    0  -0.428699890506186E+00   0.393663869620353E+00  -0.133605E-02   0.000000E+00   0.289875E+02  -0.387286E-01
   LPB:    1  -0.428188031185446E+00   0.588344073479390E-01   0.104739E-01   0.000000E+00   0.580601E+02  -0.138272E-17
   LPB:    2  -0.428137763614034E+00   0.152421102801185E-01   0.118719E-01   0.866412E-01   0.214757E+03  -0.406612E-16
   LPB:    3  -0.428131062655980E+00   0.557826321182700E-02   0.183190E-01   0.863907E-01   0.148899E+03  -0.402035E-16
   LPB:    4  -0.428129771588206E+00   0.486905188282083E-02   0.225674E-01   0.156399E+00   0.101627E+03  -0.478948E-16
  Finished solving LPB equations
  A_corr:   -0.360705363524110     
 End minimization
 Ecorr=   1654.91422200914     
 A_corr= -0.360705363524110     
 Ecorr_band=  -1655.27492737266     
 End Solvation calculations
RMM:  28    -0.136320901440E+03   -0.18172E-04   -0.25372E-05  7410   0.155E-02    0.564E-03
 Begin Solvation calculations
  rms_SCF =   1.032526953971604E-002 tol =   1.032526953971604E-003
 Begin minimization
 Creating dielectric and ionic cavities
  area:      128.435997400956     
  volume:    637.810114908113     
  Acav:     6.742889863550203E-002
  Solving linear dielectric/ionic screening model
        iter                  A_solv                     rms
   LPB:       -0.428691864593849E+00   0.215002861879665E+00
   LPB:    0  -0.428685697581078E+00   0.204241823051783E+00  -0.652285E-03   0.000000E+00   0.289888E+02  -0.189089E-01
   LPB:    1  -0.428553958395416E+00   0.282518249794220E-01   0.100131E-01   0.000000E+00   0.600673E+02   0.222232E-18
   LPB:    2  -0.428542260223240E+00   0.841331558721060E-02   0.120525E-01   0.737722E-01   0.182534E+03  -0.102280E-16
   LPB:    3  -0.428540179367267E+00   0.413490924962477E-02   0.217816E-01   0.984262E-01   0.963504E+02   0.661461E-17
   LPB:    4  -0.428539051339290E+00   0.576315415802374E-02   0.341819E-01   0.345439E+00   0.574195E+02   0.116684E-16
   LPB:    5  -0.428537802691759E+00   0.502426368411756E-02   0.349489E-01   0.108264E+01   0.127134E+03  -0.179011E-16
   LPB:    6  -0.428535903451249E+00   0.309033229053289E-02   0.432293E-01   0.122969E+01   0.600386E+02  -0.456001E-16
   LPB:    7  -0.428533495793802E+00   0.160232331536783E-02   0.445632E-01   0.122975E+01   0.821724E+02  -0.149233E-15
   LPB:    8  -0.428531746411110E+00   0.125823075663687E-02   0.381823E-01   0.848018E+00   0.109439E+03  -0.279159E-15
   LPB:    9  -0.428530853556336E+00   0.808193585481867E-03   0.344741E-01   0.565282E+00   0.381793E+03  -0.375960E-15
  Finished solving LPB equations
  A_corr:   -0.361101954920834     
 End minimization
 Ecorr=   1654.29612328418     
 A_corr= -0.361101954920834     
 Ecorr_band=  -1654.65722523910     
 End Solvation calculations
RMM:  29    -0.136320909183E+03   -0.77433E-05   -0.13442E-05  7212   0.128E-02
 Begin Solvation calculations
  rms_SCF =   1.032526953971604E-002 tol =   1.032526953971604E-003
 Begin minimization
 Creating dielectric and ionic cavities
  area:      128.439859206056     
  volume:    637.782440959955     
  Acav:     6.743092608317934E-002
  Solving linear dielectric/ionic screening model
        iter                  A_solv                     rms
   LPB:       -0.428739229440467E+00   0.122466628715261E+00
   LPB:    0  -0.428737294725331E+00   0.115735001977120E+00  -0.365341E-03   0.000000E+00   0.289901E+02  -0.105913E-01
   LPB:    1  -0.428697153233967E+00   0.123897528766859E-01   0.914402E-02   0.000000E+00   0.673264E+02   0.222664E-18
   LPB:    2  -0.428694718801674E+00   0.302260514747896E-02   0.119940E-01   0.462355E-01   0.183867E+03   0.691480E-17
   LPB:    3  -0.428694356684468E+00   0.214675857984892E-02   0.220966E-01   0.807406E-01   0.144489E+03   0.669386E-18
   LPB:    4  -0.428694172792160E+00   0.271407738228861E-02   0.299905E-01   0.374159E+00   0.960413E+02  -0.134478E-17
   LPB:    5  -0.428693951178776E+00   0.123233831524457E-02   0.347259E-01   0.104079E+01   0.214298E+03   0.273579E-16
   LPB:    6  -0.428693507912651E+00   0.124934081347765E-02   0.669749E-01   0.103708E+01   0.454271E+03   0.432803E-16
   LPB:    7  -0.428692705961038E+00   0.116311762293610E-02   0.538669E-01   0.224943E+01   0.159089E+03   0.820678E-16
   LPB:    8  -0.428692055649807E+00   0.876104308386476E-03   0.410480E-01   0.106415E+01   0.565042E+03   0.158464E-15
  Finished solving LPB equations
  A_corr:   -0.361261129566627     
 End minimization
 Ecorr=   1654.21533527684     
 A_corr= -0.361261129566627     
 Ecorr_band=  -1654.57659640641     
 End Solvation calculations
   1 F= -.13632091E+03 E0= -.13631471E+03  d E =-.136321E+03
quench:  g(F)=  0.000E+00 g(S)=  0.000E+00 dE (1.order)= 0.000E+00
 bond charge predicted
       N       E                     dE             d eps       ncg     rms          rms(c)
 Begin Solvation calculations
  rms_SCF =   1.032526953971604E-002 tol =   1.032526953971604E-003
 Begin minimization
 Creating dielectric and ionic cavities
  area:      128.551391781557     
  volume:    637.806413878610     
  Acav:     6.748948068531732E-002
  Solving linear dielectric/ionic screening model
        iter                  A_solv                     rms
   LPB:       -0.433280041497248E+00   0.691106779576922E-02
   LPB:    0  -0.433280041441822E+00   0.692374989660015E-02   0.195548E-05   0.000000E+00   0.289889E+02   0.566874E-04
   LPB:    1  -0.429415582657128E+00   0.271906454727124E-02   0.161593E-01   0.000000E+00   0.601724E+06   0.734360E-21
   LPB:    2  -0.428943334582511E+00   0.281368001647444E-02   0.278533E-01   0.708970E-01   0.147145E+06  -0.961308E-20
   LPB:    3  -0.428785324447915E+00   0.363610050890434E-02   0.325526E-01   0.286290E+00   0.295544E+05  -0.100857E-16
   LPB:    4  -0.428719735960762E+00   0.849319208169911E-02   0.347066E-01   0.389328E+00   0.962488E+04  -0.238760E-16
   LPB:    5  -0.428689856482466E+00   0.170902844986671E-01   0.345565E-01   0.457539E+00   0.610899E+03  -0.610896E-16
   LPB:    6  -0.428676438398620E+00   0.209679098501013E-01   0.259714E-01   0.597519E+00   0.172716E+03  -0.361830E-16
   LPB:    7  -0.428667086637705E+00   0.109471199893194E-01   0.240004E-01   0.754188E+00   0.177702E+03  -0.760548E-16
   LPB:    8  -0.428660681813813E+00   0.157404246439735E-01   0.301108E-01   0.545897E+00   0.351601E+03  -0.121903E-15
   LPB:    9  -0.428657114552815E+00   0.104827218979713E-01   0.198782E-01   0.843668E+00   0.147358E+03  -0.154843E-15
   LPB:   10  -0.428653551077135E+00   0.289536098030420E-02   0.306235E-01   0.648429E+00   0.432102E+03  -0.167285E-15
   LPB:   11  -0.428650945694309E+00   0.118275851536516E-02   0.396044E-01   0.565339E+00   0.280187E+04  -0.232425E-15
   LPB:   12  -0.428649262899653E+00   0.133906830261414E-02   0.397119E-01   0.644143E+00   0.326671E+04  -0.295804E-15
   LPB:   13  -0.428648141971938E+00   0.148830678680556E-02   0.381804E-01   0.692830E+00   0.133676E+04  -0.340870E-15
   LPB:   14  -0.428647323915011E+00   0.125447030733156E-02   0.368647E-01   0.755850E+00   0.166550E+04  -0.370627E-15
   LPB:   15  -0.428646695969388E+00   0.836325674492993E-03   0.389438E-01   0.726627E+00   0.132522E+04  -0.392177E-15
  Finished solving LPB equations
  A_corr:   -0.361157215284071     
 End minimization
 Ecorr=   1654.05135867793     
 A_corr= -0.361157215284071     
 Ecorr_band=  -1654.41251589322     
 End Solvation calculations
DAV:   1    -0.136323084406E+03   -0.21830E-02   -0.38652E-01 12663   0.105E+00    0.195E-01
 Begin Solvation calculations
  rms_SCF =   1.032526953971604E-002 tol =   1.032526953971604E-003
 Begin minimization
 Creating dielectric and ionic cavities
  area:      128.499488732894     
  volume:    637.681499361458     
  Acav:     6.746223158476931E-002
  Solving linear dielectric/ionic screening model
        iter                  A_solv                     rms
   LPB:       -0.431798178057802E+00   0.444069727370179E+00
   LPB:    0  -0.431675976126384E+00   0.382251174150408E+00  -0.290331E-02   0.000000E+00   0.289948E+02  -0.841810E-01
   LPB:    1  -0.431078437306503E+00   0.813210504542667E-01   0.106423E-01   0.000000E+00   0.696780E+02   0.607880E-18
   LPB:    2  -0.430979902389571E+00   0.143632657519353E-01   0.138796E-01   0.126439E+00   0.283165E+03  -0.244211E-15
   LPB:    3  -0.430955495780618E+00   0.140379589030681E-01   0.251096E-01   0.136916E+00   0.531360E+03  -0.284962E-15
   LPB:    4  -0.430948017202156E+00   0.124965316109787E-01   0.221086E-01   0.348009E+00   0.131427E+03  -0.302699E-15
   LPB:    5  -0.430943809863348E+00   0.574465475545538E-02   0.240641E-01   0.516869E+00   0.203339E+03  -0.359595E-15
   LPB:    6  -0.430941412740381E+00   0.253253709788210E-02   0.316281E-01   0.433491E+00   0.263949E+03  -0.425455E-15
   LPB:    7  -0.430940053000202E+00   0.152898246902564E-02   0.335346E-01   0.534989E+00   0.709904E+03  -0.438945E-15
   LPB:    8  -0.430939195385225E+00   0.100063710052476E-02   0.349280E-01   0.605558E+00   0.654900E+03  -0.450193E-15
  Finished solving LPB equations
  A_corr:   -0.363476963800456     
 End minimization
 Ecorr=   1654.16158739031     
 A_corr= -0.363476963800456     
 Ecorr_band=  -1654.52506435411     
 End Solvation calculations
RMM:   2    -0.136325581165E+03   -0.24968E-02   -0.28465E-02 18301   0.315E-01    0.191E-01
 Begin Solvation calculations
  rms_SCF =   1.032526953971604E-002 tol =   1.032526953971604E-003
 Begin minimization
 Creating dielectric and ionic cavities
  area:      128.489932542227     
  volume:    637.697167207646     
  Acav:     6.745721458466925E-002
  Solving linear dielectric/ionic screening model
        iter                  A_solv                     rms
   LPB:       -0.431666205236678E+00   0.311417426634310E+00
   LPB:    0  -0.431665213646278E+00   0.310704171988462E+00  -0.261533E-03   0.000000E+00   0.289941E+02  -0.758291E-02
   LPB:    1  -0.431435649302403E+00   0.315078914353511E-01   0.864785E-02   0.000000E+00   0.635496E+02   0.616560E-18
   LPB:    2  -0.431411047942507E+00   0.645494991843702E-02   0.173817E-01   0.533177E-01   0.107926E+03   0.756049E-17
   LPB:    3  -0.431407744066293E+00   0.299094049692141E-02   0.225540E-01   0.103498E+00   0.171658E+03  -0.754664E-17
   LPB:    4  -0.431406626556132E+00   0.202102496747500E-02   0.286873E-01   0.265927E+00   0.327588E+03  -0.426403E-16
   LPB:    5  -0.431406090677980E+00   0.228437069229777E-02   0.306461E-01   0.448879E+00   0.216802E+03  -0.594357E-16
   LPB:    6  -0.431405746528425E+00   0.267666424373423E-02   0.296546E-01   0.663689E+00   0.226164E+03  -0.648479E-16
   LPB:    7  -0.431405471587023E+00   0.178758726149980E-02   0.291474E-01   0.812801E+00   0.129961E+03  -0.870731E-16
   LPB:    8  -0.431405195856954E+00   0.945482445904703E-03   0.378210E-01   0.772879E+00   0.436974E+03  -0.128102E-15
  Finished solving LPB equations
  A_corr:   -0.363947981272285     
 End minimization
 Ecorr=   1654.00806605297     
 A_corr= -0.363947981272285     
 Ecorr_band=  -1654.37201403424     
 End Solvation calculations
RMM:   3    -0.136325652304E+03   -0.71139E-04   -0.20984E-03 14320   0.111E-01    0.386E-01
 Begin Solvation calculations
  rms_SCF =   1.032526953971604E-002 tol =   1.032526953971604E-003
 Begin minimization
 Creating dielectric and ionic cavities
  area:      128.498669945516     
  volume:    637.693325183465     
  Acav:     6.746180172139601E-002
  Solving linear dielectric/ionic screening model
        iter                  A_solv                     rms
   LPB:       -0.431999391246541E+00   0.187612071436852E+00
   LPB:    0  -0.431995335448794E+00   0.182638894544175E+00  -0.528929E-03   0.000000E+00   0.289942E+02  -0.153359E-01
   LPB:    1  -0.431910348603545E+00   0.173878360767134E-01   0.891802E-02   0.000000E+00   0.635950E+02   0.103032E-17
   LPB:    2  -0.431902301816263E+00   0.318089960768210E-02   0.146035E-01   0.578204E-01   0.176922E+03  -0.108381E-16
   LPB:    3  -0.431900972501690E+00   0.307592103433057E-02   0.257657E-01   0.936314E-01   0.313639E+03  -0.150174E-16
   LPB:    4  -0.431900502097182E+00   0.279966394666658E-02   0.255415E-01   0.356976E+00   0.125945E+03  -0.169050E-16
   LPB:    5  -0.431900216732879E+00   0.184005761644345E-02   0.254863E-01   0.607949E+00   0.252545E+03  -0.531693E-17
   LPB:    6  -0.431900014580107E+00   0.109148430931532E-02   0.314476E-01   0.574117E+00   0.162449E+03   0.347495E-17
   LPB:    7  -0.431899836062644E+00   0.721837718657290E-03   0.385711E-01   0.719988E+00   0.447871E+03   0.818987E-17
  Finished solving LPB equations
  A_corr:   -0.364438034341248     
 End minimization
 Ecorr=   1653.98876141392     
 A_corr= -0.364438034341248     
 Ecorr_band=  -1654.35319944826     
 End Solvation calculations
RMM:   4    -0.136324847522E+03    0.80478E-03   -0.88067E-04 13081   0.763E-02    0.125E-01
 Begin Solvation calculations
  rms_SCF =   1.032526953971604E-002 tol =   1.032526953971604E-003
 Begin minimization
 Creating dielectric and ionic cavities
  area:      128.483354183781     
  volume:    637.675418450306     
  Acav:     6.745376094648496E-002
  Solving linear dielectric/ionic screening model
        iter                  A_solv                     rms
   LPB:       -0.433818242701503E+00   0.278564138215491E+00
   LPB:    0  -0.433785881040480E+00   0.251605125774802E+00  -0.149406E-02   0.000000E+00   0.289951E+02  -0.433204E-01
   LPB:    1  -0.433545071366924E+00   0.489794046512935E-01   0.102689E-01   0.000000E+00   0.701582E+02  -0.150494E-17
   LPB:    2  -0.433509129619043E+00   0.729355853754483E-02   0.136530E-01   0.112259E+00   0.245453E+03  -0.165294E-15
   LPB:    3  -0.433501870786902E+00   0.610023806802439E-02   0.248173E-01   0.111107E+00   0.497875E+03  -0.155059E-15
   LPB:    4  -0.433499886033794E+00   0.580163194406480E-02   0.237256E-01   0.286008E+00   0.126728E+03  -0.150835E-15
   LPB:    5  -0.433498885117803E+00   0.377434823293780E-02   0.233131E-01   0.513224E+00   0.233920E+03  -0.137208E-15
   LPB:    6  -0.433498245000185E+00   0.155644911108088E-02   0.300812E-01   0.495642E+00   0.126136E+03  -0.193939E-15
   LPB:    7  -0.433497831691148E+00   0.936760725177520E-03   0.339748E-01   0.571679E+00   0.467659E+03  -0.189189E-15
  Finished solving LPB equations
  A_corr:   -0.366044070744663     
 End minimization
 Ecorr=   1653.85623161864     
 A_corr= -0.366044070744663     
 Ecorr_band=  -1654.22227568939     
 End Solvation calculations
RMM:   5    -0.136324868757E+03   -0.21235E-04   -0.44527E-04 12299   0.803E-02    0.109E-01
 Begin Solvation calculations
  rms_SCF =   1.032526953971604E-002 tol =   1.032526953971604E-003
 Begin minimization
 Creating dielectric and ionic cavities
  area:      128.468759459805     
  volume:    637.675765037257     
  Acav:     6.744609871639766E-002
  Solving linear dielectric/ionic screening model
        iter                  A_solv                     rms
   LPB:       -0.435152221888512E+00   0.191648218396451E+00
   LPB:    0  -0.435124409998523E+00   0.153525064834247E+00  -0.138506E-02   0.000000E+00   0.289951E+02  -0.401599E-01
   LPB:    1  -0.435000081542823E+00   0.497311051445827E-01   0.116066E-01   0.000000E+00   0.718099E+02  -0.695659E-18
   LPB:    2  -0.434968627586541E+00   0.895041849875370E-02   0.147118E-01   0.199592E+00   0.159756E+03  -0.138772E-15
   LPB:    3  -0.434963280337869E+00   0.710499929608144E-02   0.245435E-01   0.101902E+00   0.244140E+03  -0.182707E-15
   LPB:    4  -0.434961630712946E+00   0.536781290887153E-02   0.223610E-01   0.338610E+00   0.101866E+03  -0.178946E-15
   LPB:    5  -0.434960646170338E+00   0.306632408246883E-02   0.253022E-01   0.527453E+00   0.288637E+03  -0.208157E-15
   LPB:    6  -0.434959974439501E+00   0.135706135900229E-02   0.331130E-01   0.521339E+00   0.127482E+03  -0.277149E-15
   LPB:    7  -0.434959527757174E+00   0.131061067176932E-02   0.353259E-01   0.623317E+00   0.344630E+03  -0.347477E-15
   LPB:    8  -0.434959210912644E+00   0.100267260464330E-02   0.365578E-01   0.685425E+00   0.198068E+03  -0.395861E-15
  Finished solving LPB equations
  A_corr:   -0.367513112196246     
 End minimization
 Ecorr=   1653.54953943324     
 A_corr= -0.367513112196246     
 Ecorr_band=  -1653.91705254544     
 End Solvation calculations
RMM:   6    -0.136324681323E+03    0.18743E-03   -0.24232E-04 12164   0.671E-02    0.348E-02
 Begin Solvation calculations
  rms_SCF =   1.032526953971604E-002 tol =   1.032526953971604E-003
 Begin minimization
 Creating dielectric and ionic cavities
  area:      128.476837323051     
  volume:    637.704043643279     
  Acav:     6.745033959460188E-002
  Solving linear dielectric/ionic screening model
        iter                  A_solv                     rms
   LPB:       -0.437006846113319E+00   0.187714279563658E+00
   LPB:    0  -0.436974254050504E+00   0.137586916412945E+00  -0.149940E-02   0.000000E+00   0.289937E+02  -0.434733E-01
   LPB:    1  -0.436826158543499E+00   0.600782642749042E-01   0.126965E-01   0.000000E+00   0.835990E+02   0.153958E-18
   LPB:    2  -0.436803096315529E+00   0.887904131673323E-02   0.124837E-01   0.158381E+00   0.118115E+03   0.333617E-15
   LPB:    3  -0.436797082524946E+00   0.615233804255771E-02   0.224529E-01   0.144983E+00   0.277689E+03   0.378579E-15
   LPB:    4  -0.436795369868725E+00   0.537240614437313E-02   0.237774E-01   0.268923E+00   0.948353E+02   0.389929E-15
   LPB:    5  -0.436794542257706E+00   0.378161836243949E-02   0.229306E-01   0.501078E+00   0.247233E+03   0.326344E-15
   LPB:    6  -0.436793927670387E+00   0.134711903601952E-02   0.326043E-01   0.522275E+00   0.879570E+02   0.299273E-15
   LPB:    7  -0.436793476180361E+00   0.871354300492289E-03   0.368303E-01   0.650331E+00   0.186293E+03   0.210648E-15
  Finished solving LPB equations
  A_corr:   -0.369343136585759     
 End minimization
 Ecorr=   1653.13284383125     
 A_corr= -0.369343136585759     
 Ecorr_band=  -1653.50218696783     
 End Solvation calculations
RMM:   7    -0.136324662819E+03    0.18504E-04   -0.10870E-04 11703   0.388E-02    0.209E-02
 Begin Solvation calculations
  rms_SCF =   1.032526953971604E-002 tol =   1.032526953971604E-003
 Begin minimization
 Creating dielectric and ionic cavities
  area:      128.485516255320     
  volume:    637.715327581549     
  Acav:     6.745489603404289E-002
  Solving linear dielectric/ionic screening model
        iter                  A_solv                     rms
   LPB:       -0.437312067101864E+00   0.470976837394701E-01
   LPB:    0  -0.437309037009223E+00   0.248838208515188E-01  -0.457188E-03   0.000000E+00   0.289932E+02  -0.132553E-01
   LPB:    1  -0.437300456476608E+00   0.111385328287841E-01   0.155511E-01   0.000000E+00   0.726999E+02  -0.254151E-18
   LPB:    2  -0.437299473578008E+00   0.394825068925000E-02   0.142986E-01   0.124584E+00   0.914985E+02  -0.580460E-16
   LPB:    3  -0.437299116947253E+00   0.227309882501933E-02   0.193102E-01   0.268669E+00   0.194971E+03  -0.613843E-16
   LPB:    4  -0.437298911313698E+00   0.282854421784725E-02   0.279988E-01   0.397670E+00   0.547264E+02  -0.298970E-16
   LPB:    5  -0.437298635501638E+00   0.242338683513962E-02   0.349348E-01   0.107498E+01   0.134646E+03  -0.224586E-16
   LPB:    6  -0.437298271341282E+00   0.956362850733431E-03   0.408062E-01   0.113035E+01   0.436492E+02   0.129759E-17
  Finished solving LPB equations
  A_corr:   -0.369843375307239     
 End minimization
 Ecorr=   1652.90504394942     
 A_corr= -0.369843375307239     
 Ecorr_band=  -1653.27488732472     
 End Solvation calculations
RMM:   8    -0.136324661171E+03    0.16487E-05   -0.26255E-05  7336   0.240E-02
 Begin Solvation calculations
  rms_SCF =   1.032526953971604E-002 tol =   1.032526953971604E-003
 Begin minimization
 Creating dielectric and ionic cavities
  area:      128.498855309056     
  volume:    637.734730537098     
  Acav:     6.746189903725423E-002
  Solving linear dielectric/ionic screening model
        iter                  A_solv                     rms
   LPB:       -0.438035649431940E+00   0.635845903684009E-01
   LPB:    0  -0.438030397972550E+00   0.339888512457621E-01  -0.601885E-03   0.000000E+00   0.289923E+02  -0.174500E-01
   LPB:    1  -0.438013723970753E+00   0.111973131173864E-01   0.161349E-01   0.000000E+00   0.681338E+02  -0.111990E-17
   LPB:    2  -0.438012122769375E+00   0.474435684134731E-02   0.157738E-01   0.982279E-01   0.110821E+03  -0.169277E-15
   LPB:    3  -0.438011742349990E+00   0.222561395872267E-02   0.175536E-01   0.213494E+00   0.118247E+03  -0.211033E-15
   LPB:    4  -0.438011545655530E+00   0.253693514751069E-02   0.250046E-01   0.362976E+00   0.805139E+02  -0.231315E-15
   LPB:    5  -0.438011387855522E+00   0.248174144837803E-02   0.259679E-01   0.772499E+00   0.143352E+03  -0.254097E-15
   LPB:    6  -0.438011193930272E+00   0.101231904927741E-02   0.343945E-01   0.927845E+00   0.480440E+02  -0.255047E-15
  Finished solving LPB equations
  A_corr:   -0.370549294893018     
 End minimization
 Ecorr=   1652.66202414330     
 A_corr= -0.370549294893018     
 Ecorr_band=  -1653.03257343819     
 End Solvation calculations
   2 F= -.13632466E+03 E0= -.13631841E+03  d E =-.375199E-02
quench:  g(F)=  0.000E+00 g(S)=  0.000E+00 dE (1.order)= 0.000E+00
 bond charge predicted
       N       E                     dE             d eps       ncg     rms          rms(c)
 Begin Solvation calculations
  rms_SCF =   1.032526953971604E-002 tol =   1.032526953971604E-003
 Begin minimization
 Creating dielectric and ionic cavities
  area:      128.534642176558     
  volume:    637.700531514705     
  Acav:     6.748068714269316E-002
  Solving linear dielectric/ionic screening model
        iter                  A_solv                     rms
   LPB:       -0.439493294395169E+00   0.428306159084296E-02
   LPB:    0  -0.439493294117139E+00   0.439459592927142E-02  -0.437932E-05   0.000000E+00   0.289939E+02  -0.126974E-03
   LPB:    1  -0.438452517001965E+00   0.164083678550575E-02   0.157807E-01   0.000000E+00   0.348119E+06  -0.876482E-21
   LPB:    2  -0.438343810276794E+00   0.162778024354725E-02   0.270183E-01   0.610050E-01   0.957614E+05   0.571326E-17
   LPB:    3  -0.438309023404555E+00   0.363098436052594E-02   0.323340E-01   0.267398E+00   0.259933E+05   0.123749E-16
   LPB:    4  -0.438294196580260E+00   0.678672968879847E-02   0.347562E-01   0.396516E+00   0.150251E+04   0.185821E-16
   LPB:    5  -0.438287470589559E+00   0.123553593626212E-01   0.314054E-01   0.502038E+00   0.357417E+03   0.314103E-16
   LPB:    6  -0.438283981161356E+00   0.821712981577339E-02   0.227294E-01   0.716826E+00   0.120002E+03   0.567246E-16
   LPB:    7  -0.438281221973227E+00   0.573102081814638E-02   0.296254E-01   0.606669E+00   0.456480E+03   0.750954E-16
   LPB:    8  -0.438279693834798E+00   0.949485267533033E-02   0.277954E-01   0.590299E+00   0.237016E+03  -0.948448E-17
   LPB:    9  -0.438278622840839E+00   0.384578749523084E-02   0.198827E-01   0.979765E+00   0.133113E+03  -0.631178E-16
   LPB:   10  -0.438277611971327E+00   0.949235160806409E-03   0.356291E-01   0.526719E+00   0.127560E+04  -0.107831E-15
  Finished solving LPB equations
  A_corr:   -0.370796924828634     
 End minimization
 Ecorr=   1652.55268647696     
 A_corr= -0.370796924828634     
 Ecorr_band=  -1652.92348340179     
 End Solvation calculations
DAV:   1    -0.136325315162E+03   -0.65234E-03   -0.87211E-02 12636   0.611E-01    0.762E-02
 Begin Solvation calculations
  rms_SCF =   1.032526953971604E-002 tol =   1.032526953971604E-003
 Begin minimization
 Creating dielectric and ionic cavities
  area:      128.515685739234     
  volume:    637.702984021009     
  Acav:     6.747073501309769E-002
  Solving linear dielectric/ionic screening model
        iter                  A_solv                     rms
   LPB:       -0.439229797359074E+00   0.125632577090659E+00
   LPB:    0  -0.439220330444991E+00   0.104649713488502E+00  -0.808103E-03   0.000000E+00   0.289938E+02  -0.234300E-01
   LPB:    1  -0.439183107289688E+00   0.186498251427316E-01   0.963192E-02   0.000000E+00   0.671635E+02   0.132744E-19
   LPB:    2  -0.439177256291546E+00   0.477019185341653E-02   0.158321E-01   0.956292E-01   0.120298E+03  -0.120017E-15
   LPB:    3  -0.439175637897126E+00   0.424321770144883E-02   0.244626E-01   0.179016E+00   0.330582E+03  -0.853518E-16
   LPB:    4  -0.439174980905767E+00   0.374426161954471E-02   0.249087E-01   0.398682E+00   0.827645E+02  -0.791032E-16
   LPB:    5  -0.439174487956086E+00   0.205867049039646E-02   0.280982E-01   0.665142E+00   0.342325E+03  -0.797993E-16
   LPB:    6  -0.439174093264914E+00   0.970609371470320E-03   0.359324E-01   0.626106E+00   0.160162E+03  -0.326028E-16
  Finished solving LPB equations
  A_corr:   -0.371703358251816     
 End minimization
 Ecorr=   1652.36085691719     
 A_corr= -0.371703358251816     
 Ecorr_band=  -1652.73256027544     
 End Solvation calculations
RMM:   2    -0.136325867733E+03   -0.55257E-03   -0.48384E-03 15879   0.170E-01    0.162E-01
 Begin Solvation calculations
  rms_SCF =   1.032526953971604E-002 tol =   1.032526953971604E-003
 Begin minimization
 Creating dielectric and ionic cavities
  area:      128.514632719402     
  volume:    637.710177063437     
  Acav:     6.747018217768579E-002
  Solving linear dielectric/ionic screening model
        iter                  A_solv                     rms
   LPB:       -0.439226929016605E+00   0.977267700309074E-01
   LPB:    0  -0.439226893688983E+00   0.976838367999899E-01   0.493653E-04   0.000000E+00   0.289935E+02   0.143127E-02
   LPB:    1  -0.439204350921916E+00   0.991176132525546E-02   0.876518E-02   0.000000E+00   0.614987E+02  -0.474559E-19
   LPB:    2  -0.439202016061425E+00   0.205194594681455E-02   0.161402E-01   0.562479E-01   0.119229E+03  -0.165419E-17
   LPB:    3  -0.439201630544646E+00   0.126288773492486E-02   0.253888E-01   0.104966E+00   0.141271E+03  -0.103130E-17
   LPB:    4  -0.439201434949374E+00   0.174843318452408E-02   0.342801E-01   0.375764E+00   0.244260E+03   0.467131E-17
   LPB:    5  -0.439201264733787E+00   0.176338398540034E-02   0.320877E-01   0.929703E+00   0.108726E+03   0.196211E-16
   LPB:    6  -0.439201073208642E+00   0.174387950603143E-02   0.359943E-01   0.100307E+01   0.268878E+03  -0.176349E-16
   LPB:    7  -0.439200863085212E+00   0.969289957435290E-03   0.384350E-01   0.102744E+01   0.775247E+02  -0.598572E-16
  Finished solving LPB equations
  A_corr:   -0.371730680907526     
 End minimization
 Ecorr=   1652.23733861557     
 A_corr= -0.371730680907526     
 Ecorr_band=  -1652.60906929648     
 End Solvation calculations
RMM:   3    -0.136325741022E+03    0.12671E-03   -0.43845E-04 13205   0.541E-02    0.133E-01
 Begin Solvation calculations
  rms_SCF =   1.032526953971604E-002 tol =   1.032526953971604E-003
 Begin minimization
 Creating dielectric and ionic cavities
  area:      128.521389856950     
  volume:    637.722238528447     
  Acav:     6.747372967489884E-002
  Solving linear dielectric/ionic screening model
        iter                  A_solv                     rms
   LPB:       -0.439548298667104E+00   0.572307117509455E-01
   LPB:    0  -0.439547199813116E+00   0.513481667541920E-01  -0.275321E-03   0.000000E+00   0.289929E+02  -0.798235E-02
   LPB:    1  -0.439539182515635E+00   0.721613702008772E-02   0.901640E-02   0.000000E+00   0.698910E+02  -0.412876E-18
   LPB:    2  -0.439538250234133E+00   0.180415019414417E-02   0.161599E-01   0.648805E-01   0.931433E+02   0.121235E-16
   LPB:    3  -0.439537958036412E+00   0.145729473675458E-02   0.261094E-01   0.193986E+00   0.372158E+03   0.329244E-16
   LPB:    4  -0.439537833230436E+00   0.159774779733135E-02   0.278986E-01   0.399735E+00   0.929340E+02   0.415711E-16
   LPB:    5  -0.439537742971740E+00   0.107645184719815E-02   0.273432E-01   0.737882E+00   0.302592E+03   0.475785E-16
   LPB:    6  -0.439537663644932E+00   0.613422291807176E-03   0.349585E-01   0.687428E+00   0.112450E+03   0.474724E-16
  Finished solving LPB equations
  A_corr:   -0.372063933970033     
 End minimization
 Ecorr=   1652.11475390946     
 A_corr= -0.372063933970033     
 Ecorr_band=  -1652.48681784343     
 End Solvation calculations
RMM:   4    -0.136325658319E+03    0.82704E-04   -0.11922E-04 10911   0.383E-02    0.420E-02
 Begin Solvation calculations
  rms_SCF =   1.032526953971604E-002 tol =   1.032526953971604E-003
 Begin minimization
 Creating dielectric and ionic cavities
  area:      128.528326886278     
  volume:    637.735151546957     
  Acav:     6.747737161529604E-002
  Solving linear dielectric/ionic screening model
        iter                  A_solv                     rms
   LPB:       -0.439833707082228E+00   0.328274059551820E-01
   LPB:    0  -0.439833055342000E+00   0.255785028833288E-01  -0.212037E-03   0.000000E+00   0.289923E+02  -0.614743E-02
   LPB:    1  -0.439828943617381E+00   0.799059909593430E-02   0.139812E-01   0.000000E+00   0.515789E+02  -0.177256E-18
   LPB:    2  -0.439828167589071E+00   0.286487415447486E-02   0.136351E-01   0.193526E+00   0.188161E+03   0.868863E-16
   LPB:    3  -0.439827926577138E+00   0.160386946038130E-02   0.202014E-01   0.209623E+00   0.195988E+03   0.102157E-15
   LPB:    4  -0.439827799999886E+00   0.159173176605070E-02   0.308917E-01   0.343444E+00   0.850004E+02   0.105659E-15
   LPB:    5  -0.439827709298120E+00   0.137077762374155E-02   0.289579E-01   0.764425E+00   0.190349E+03   0.983927E-16
   LPB:    6  -0.439827614167654E+00   0.632938337727655E-03   0.338460E-01   0.897354E+00   0.860077E+02   0.977538E-16
  Finished solving LPB equations
  A_corr:   -0.372350242552358     
 End minimization
 Ecorr=   1651.97196885814     
 A_corr= -0.372350242552358     
 Ecorr_band=  -1652.34431910070     
 End Solvation calculations
RMM:   5    -0.136325658311E+03    0.77052E-08   -0.45437E-05  8826   0.303E-02
 Begin Solvation calculations
  rms_SCF =   1.032526953971604E-002 tol =   1.032526953971604E-003
 Begin minimization
 Creating dielectric and ionic cavities
  area:      128.542570685770     
  volume:    637.750327968641     
  Acav:     6.748484961002918E-002
  Solving linear dielectric/ionic screening model
        iter                  A_solv                     rms
   LPB:       -0.440420895181780E+00   0.597405845754969E-01
   LPB:    0  -0.440417675533495E+00   0.400680077677562E-01  -0.471285E-03   0.000000E+00   0.289916E+02  -0.136633E-01
   LPB:    1  -0.440407270698887E+00   0.163899400638678E-01   0.115039E-01   0.000000E+00   0.700000E+02   0.598536E-18
   LPB:    2  -0.440405193596110E+00   0.398429892564109E-02   0.149056E-01   0.154071E+00   0.711279E+02  -0.366066E-16
   LPB:    3  -0.440404616773601E+00   0.238218563992374E-02   0.199442E-01   0.207547E+00   0.344822E+03  -0.399241E-16
   LPB:    4  -0.440404362567699E+00   0.211952820343265E-02   0.285074E-01   0.308320E+00   0.793669E+02  -0.236456E-16
   LPB:    5  -0.440404175567399E+00   0.150487016901629E-02   0.268233E-01   0.781812E+00   0.274559E+03  -0.153638E-16
   LPB:    6  -0.440403993820184E+00   0.626772708574049E-03   0.374729E-01   0.695698E+00   0.795390E+02  -0.167922E-16
  Finished solving LPB equations
  A_corr:   -0.372919144210154     
 End minimization
 Ecorr=   1651.74125013461     
 A_corr= -0.372919144210154     
 Ecorr_band=  -1652.11416927882     
 End Solvation calculations
   3 F= -.13632566E+03 E0= -.13631939E+03  d E =-.997140E-03
quench:  g(F)=  0.000E+00 g(S)=  0.000E+00 dE (1.order)= 0.000E+00
 bond charge predicted
       N       E                     dE             d eps       ncg     rms          rms(c)
 Begin Solvation calculations
  rms_SCF =   1.032526953971604E-002 tol =   1.032526953971604E-003
 Begin minimization
 Creating dielectric and ionic cavities
  area:      128.644333797723     
  volume:    637.712807104572     
  Acav:     6.753827524380432E-002
  Solving linear dielectric/ionic screening model
        iter                  A_solv                     rms
   LPB:       -0.443135978489753E+00   0.534479617143475E-02
   LPB:    0  -0.443135978117034E+00   0.545817892156434E-02  -0.507057E-05   0.000000E+00   0.289933E+02  -0.147013E-03
   LPB:    1  -0.441067074126577E+00   0.203080526503234E-02   0.155510E-01   0.000000E+00   0.486114E+06  -0.113122E-19
   LPB:    2  -0.440874803266027E+00   0.242521409435499E-02   0.263550E-01   0.548363E-01   0.128813E+06  -0.789722E-17
   LPB:    3  -0.440815826660194E+00   0.528068073827078E-02   0.319945E-01   0.252670E+00   0.235602E+05  -0.116574E-16
   LPB:    4  -0.440791354472477E+00   0.145196185166527E-01   0.342388E-01   0.387748E+00   0.170363E+04  -0.131241E-16
   LPB:    5  -0.440781577415115E+00   0.244264868940061E-01   0.255933E-01   0.534475E+00   0.198846E+03  -0.126151E-16
   LPB:    6  -0.440775163185145E+00   0.888544546049848E-02   0.187764E-01   0.894235E+00   0.191191E+03  -0.300729E-16
   LPB:    7  -0.440769862637361E+00   0.469676158828865E-02   0.343293E-01   0.451983E+00   0.502382E+03  -0.500816E-16
   LPB:    8  -0.440766812970520E+00   0.862243092402001E-02   0.335363E-01   0.588955E+00   0.427364E+03  -0.547443E-16
   LPB:    9  -0.440764943515607E+00   0.558448364443548E-02   0.243299E-01   0.844963E+00   0.101853E+03  -0.727547E-16
   LPB:   10  -0.440763280096776E+00   0.192770671880902E-02   0.327733E-01   0.660551E+00   0.770181E+03  -0.588300E-16
   LPB:   11  -0.440762103312480E+00   0.604533277241169E-03   0.397775E-01   0.582878E+00   0.525343E+03  -0.551453E-16
  Finished solving LPB equations
  A_corr:   -0.373223828068676     
 End minimization
 Ecorr=   1651.54638627975     
 A_corr= -0.373223828068676     
 Ecorr_band=  -1651.91961010782     
 End Solvation calculations
DAV:   1    -0.136325912166E+03   -0.25385E-03   -0.16795E-01 12510   0.893E-01    0.956E-02
 Begin Solvation calculations
  rms_SCF =   1.032526953971604E-002 tol =   1.032526953971604E-003
 Begin minimization
 Creating dielectric and ionic cavities
  area:      128.566080928528     
  volume:    637.666750310910     
  Acav:     6.749719248747708E-002
  Solving linear dielectric/ionic screening model
        iter                  A_solv                     rms
   LPB:       -0.442310558876353E+00   0.163565132740825E+00
   LPB:    0  -0.442278070997003E+00   0.112719120540425E+00  -0.149696E-02   0.000000E+00   0.289955E+02  -0.434051E-01
   LPB:    1  -0.442211884243272E+00   0.352095366602953E-01   0.113733E-01   0.000000E+00   0.707727E+02   0.124728E-17
   LPB:    2  -0.442198512490949E+00   0.738552112938875E-02   0.146282E-01   0.157077E+00   0.159387E+03  -0.265658E-15
   LPB:    3  -0.442194777573907E+00   0.688254089105187E-02   0.228913E-01   0.178490E+00   0.311319E+03  -0.333806E-15
   LPB:    4  -0.442193440329684E+00   0.544189922230018E-02   0.215629E-01   0.380096E+00   0.968562E+02  -0.378538E-15
   LPB:    5  -0.442192537050398E+00   0.249702254404455E-02   0.273411E-01   0.532723E+00   0.250243E+03  -0.376402E-15
   LPB:    6  -0.442191951290033E+00   0.103550393145364E-02   0.363550E-01   0.487696E+00   0.232799E+03  -0.416096E-15
   LPB:    7  -0.442191545779434E+00   0.762770927252959E-03   0.369467E-01   0.681195E+00   0.434850E+03  -0.430935E-15
  Finished solving LPB equations
  A_corr:   -0.374694353291957     
 End minimization
 Ecorr=   1651.48790462969     
 A_corr= -0.374694353291957     
 Ecorr_band=  -1651.86259898298     
 End Solvation calculations
RMM:   2    -0.136326757481E+03   -0.84532E-03   -0.87756E-03 17407   0.233E-01    0.148E-01
 Begin Solvation calculations
  rms_SCF =   1.032526953971604E-002 tol =   1.032526953971604E-003
 Begin minimization
 Creating dielectric and ionic cavities
  area:      128.562939940324     
  volume:    637.676780408392     
  Acav:     6.749554346867015E-002
  Solving linear dielectric/ionic screening model
        iter                  A_solv                     rms
   LPB:       -0.442317292186609E+00   0.103989679460792E+00
   LPB:    0  -0.442317268352595E+00   0.103957524984451E+00   0.405464E-04   0.000000E+00   0.289950E+02   0.117564E-02
   LPB:    1  -0.442291851367358E+00   0.104618317126004E-01   0.869258E-02   0.000000E+00   0.622507E+02  -0.198905E-19
   LPB:    2  -0.442289272385615E+00   0.251048777679827E-02   0.166890E-01   0.528498E-01   0.111598E+03   0.179519E-17
   LPB:    3  -0.442288812470584E+00   0.131594016370717E-02   0.238480E-01   0.124798E+00   0.135575E+03   0.994331E-18
   LPB:    4  -0.442288603512138E+00   0.151551852366250E-02   0.322649E-01   0.335817E+00   0.323785E+03   0.744703E-17
   LPB:    5  -0.442288437015667E+00   0.182640047928203E-02   0.335735E-01   0.765737E+00   0.121901E+03   0.149730E-16
   LPB:    6  -0.442288263193399E+00   0.170579325550092E-02   0.335306E-01   0.104533E+01   0.234755E+03   0.167038E-16
   LPB:    7  -0.442288069560699E+00   0.917472276500409E-03   0.377623E-01   0.989137E+00   0.111539E+03   0.218839E-16
  Finished solving LPB equations
  A_corr:   -0.374792526092029     
 End minimization
 Ecorr=   1651.37835237045     
 A_corr= -0.374792526092029     
 Ecorr_band=  -1651.75314489654     
 End Solvation calculations
RMM:   3    -0.136326755530E+03    0.19514E-05   -0.77419E-04 13885   0.701E-02    0.220E-01
 Begin Solvation calculations
  rms_SCF =   1.032526953971604E-002 tol =   1.032526953971604E-003
 Begin minimization
 Creating dielectric and ionic cavities
  area:      128.568690598967     
  volume:    637.684708604831     
  Acav:     6.749856256445780E-002
  Solving linear dielectric/ionic screening model
        iter                  A_solv                     rms
   LPB:       -0.442738360051659E+00   0.116283865369387E+00
   LPB:    0  -0.442736708106638E+00   0.112910013663896E+00  -0.337562E-03   0.000000E+00   0.289947E+02  -0.978750E-02
   LPB:    1  -0.442704675081843E+00   0.103416920974891E-01   0.874518E-02   0.000000E+00   0.650672E+02   0.665274E-18
   LPB:    2  -0.442701723887865E+00   0.209826592301798E-02   0.155710E-01   0.517431E-01   0.148699E+03  -0.159811E-16
   LPB:    3  -0.442701117875261E+00   0.203021011551209E-02   0.263752E-01   0.121228E+00   0.426659E+03  -0.129448E-16
   LPB:    4  -0.442700880185751E+00   0.180692671315373E-02   0.271440E-01   0.381111E+00   0.113912E+03  -0.586948E-17
   LPB:    5  -0.442700749701656E+00   0.137894206611247E-02   0.254210E-01   0.586176E+00   0.296120E+03   0.147565E-16
   LPB:    6  -0.442700655243263E+00   0.795791750730809E-03   0.301949E-01   0.609456E+00   0.129661E+03   0.252911E-16
  Finished solving LPB equations
  A_corr:   -0.375202092678805     
 End minimization
 Ecorr=   1651.32146048078     
 A_corr= -0.375202092678805     
 Ecorr_band=  -1651.69666257346     
 End Solvation calculations
RMM:   4    -0.136326492857E+03    0.26267E-03   -0.22845E-04 11440   0.425E-02    0.558E-02
 Begin Solvation calculations
  rms_SCF =   1.032526953971604E-002 tol =   1.032526953971604E-003
 Begin minimization
 Creating dielectric and ionic cavities
  area:      128.567561363415     
  volume:    637.687716494138     
  Acav:     6.749796971579304E-002
  Solving linear dielectric/ionic screening model
        iter                  A_solv                     rms
   LPB:       -0.443223952645865E+00   0.503782762149220E-01
   LPB:    0  -0.443220505679510E+00   0.311059758932738E-01  -0.487613E-03   0.000000E+00   0.289945E+02  -0.141381E-01
   LPB:    1  -0.443213245139692E+00   0.127244740590753E-01   0.148116E-01   0.000000E+00   0.544413E+02   0.483557E-18
   LPB:    2  -0.443211641111888E+00   0.345440046289970E-02   0.130998E-01   0.249793E+00   0.175246E+03   0.471730E-16
   LPB:    3  -0.443211235705487E+00   0.286061684676768E-02   0.226353E-01   0.146270E+00   0.176687E+03   0.615233E-16
   LPB:    4  -0.443211067998096E+00   0.167888477963065E-02   0.227171E-01   0.412188E+00   0.711098E+02   0.603956E-16
   LPB:    5  -0.443210944332449E+00   0.886001063064272E-03   0.291634E-01   0.574396E+00   0.270715E+03   0.637398E-16
  Finished solving LPB equations
  A_corr:   -0.375712974616656     
 End minimization
 Ecorr=   1651.24936491748     
 A_corr= -0.375712974616656     
 Ecorr_band=  -1651.62507789210     
 End Solvation calculations
RMM:   5    -0.136326478471E+03    0.14387E-04   -0.55863E-05  8858   0.274E-02    0.332E-02
 Begin Solvation calculations
  rms_SCF =   1.032526953971604E-002 tol =   1.032526953971604E-003
 Begin minimization
 Creating dielectric and ionic cavities
  area:      128.571223579378     
  volume:    637.695976900777     
  Acav:     6.749989237917332E-002
  Solving linear dielectric/ionic screening model
        iter                  A_solv                     rms
   LPB:       -0.444145663415544E+00   0.114749751209521E+00
   LPB:    0  -0.444138356964808E+00   0.977893298362926E-01  -0.709926E-03   0.000000E+00   0.289941E+02  -0.205837E-01
   LPB:    1  -0.444105529229583E+00   0.180436162482183E-01   0.958645E-02   0.000000E+00   0.698055E+02  -0.108878E-17
   LPB:    2  -0.444100358973214E+00   0.400792858059919E-02   0.156957E-01   0.961939E-01   0.121292E+03  -0.524557E-16
   LPB:    3  -0.444099206737854E+00   0.343278610351265E-02   0.238888E-01   0.146425E+00   0.257840E+03  -0.782848E-16
   LPB:    4  -0.444098782806736E+00   0.295603501700592E-02   0.249797E-01   0.351853E+00   0.699248E+02  -0.711103E-16
   LPB:    5  -0.444098481821448E+00   0.181875847205196E-02   0.269398E-01   0.658329E+00   0.275628E+03  -0.382701E-16
   LPB:    6  -0.444098259121847E+00   0.766546052851565E-03   0.341001E-01   0.584539E+00   0.961519E+02  -0.963296E-17
  Finished solving LPB equations
  A_corr:   -0.376598366742673     
 End minimization
 Ecorr=   1651.06854298536     
 A_corr= -0.376598366742673     
 Ecorr_band=  -1651.44514135210     
 End Solvation calculations
RMM:   6    -0.136326484447E+03   -0.59769E-05   -0.55352E-05 10012   0.334E-02
 Begin Solvation calculations
  rms_SCF =   1.032526953971604E-002 tol =   1.032526953971604E-003
 Begin minimization
 Creating dielectric and ionic cavities
  area:      128.574445698389     
  volume:    637.708631119943     
  Acav:     6.750158399165433E-002
  Solving linear dielectric/ionic screening model
        iter                  A_solv                     rms
   LPB:       -0.444787568089264E+00   0.701620562193025E-01
   LPB:    0  -0.444783840759443E+00   0.545445932272615E-01  -0.507065E-03   0.000000E+00   0.289935E+02  -0.147016E-01
   LPB:    1  -0.444769803718281E+00   0.175078168422763E-01   0.127943E-01   0.000000E+00   0.501973E+02  -0.344275E-18
   LPB:    2  -0.444766164099901E+00   0.324435683762778E-02   0.140550E-01   0.236030E+00   0.133810E+03   0.486387E-16
   LPB:    3  -0.444765490027030E+00   0.311167391724156E-02   0.232070E-01   0.112166E+00   0.263873E+03   0.568866E-16
   LPB:    4  -0.444765194397059E+00   0.232996228657549E-02   0.260764E-01   0.390312E+00   0.599867E+02   0.668853E-16
[...]
   LPB:    5  -0.457959841920247E+00   0.161640549949550E-03   0.305749E-01   0.408903E+00   0.384357E+03   0.195966E-16
   LPB:    6  -0.457959837646492E+00   0.208485593850113E-03   0.345813E-01   0.516645E+00   0.303682E+03   0.175364E-16
   LPB:    7  -0.457959834876168E+00   0.266334170695707E-03   0.320245E-01   0.699971E+00   0.168847E+03   0.158944E-16
   LPB:    8  -0.457959832517539E+00   0.161878767399738E-03   0.285166E-01   0.956122E+00   0.189931E+03   0.189154E-16
   LPB:    9  -0.457959829928466E+00   0.749254612067982E-04   0.401452E-01   0.779738E+00   0.535676E+03   0.222681E-16
  Finished solving LPB equations
  A_corr:   -0.390327069704011     
 End minimization
 Ecorr=   1647.35533035842     
 A_corr= -0.390327069704011     
 Ecorr_band=  -1647.74565742812     
 End Solvation calculations
RMM:   5    -0.136317856967E+03    0.76447E-05   -0.15052E-05  6702   0.200E-02
 Begin Solvation calculations
  rms_SCF =   1.570637060034077E-003 tol =   1.570637060034077E-004
 Begin minimization
 Creating dielectric and ionic cavities
  area:      128.821636273222     
  volume:    637.476691792001     
  Acav:     6.763135904344157E-002
  Solving linear dielectric/ionic screening model
        iter                  A_solv                     rms
   LPB:       -0.458087688050481E+00   0.196913137034880E-01
   LPB:    0  -0.458087314136036E+00   0.156845919600187E-01  -0.160572E-03   0.000000E+00   0.290044E+02  -0.465729E-02
   LPB:    1  -0.458086044180161E+00   0.468718917649392E-02   0.111575E-01   0.000000E+00   0.792417E+02   0.385050E-18
   LPB:    2  -0.458085791078918E+00   0.774432159778739E-03   0.143465E-01   0.154998E+00   0.225953E+03   0.132768E-16
   LPB:    3  -0.458085726741191E+00   0.624855427649433E-03   0.239524E-01   0.152254E+00   0.489765E+03   0.170716E-16
   LPB:    4  -0.458085704709898E+00   0.685431592255705E-03   0.248229E-01   0.330422E+00   0.163009E+03   0.162073E-16
   LPB:    5  -0.458085692356070E+00   0.385845278528810E-03   0.238879E-01   0.582690E+00   0.180324E+03   0.132491E-16
   LPB:    6  -0.458085683437656E+00   0.181248250454659E-03   0.332500E-01   0.518647E+00   0.255822E+03   0.110283E-16
   LPB:    7  -0.458085677214605E+00   0.106581656938988E-03   0.357267E-01   0.649402E+00   0.988838E+03   0.720568E-17
  Finished solving LPB equations
  A_corr:   -0.390454318171163     
 End minimization
 Ecorr=   1647.36734149971     
 A_corr= -0.390454318171163     
 Ecorr_band=  -1647.75779581788     
 End Solvation calculations
  30 F= -.13631786E+03 E0= -.13631145E+03  d E =0.646815E-03
quench:  g(F)=  0.000E+00 g(S)=  0.000E+00 dE (1.order)= 0.000E+00
 bond charge predicted
       N       E                     dE             d eps       ncg     rms          rms(c)
 Begin Solvation calculations
  rms_SCF =   1.570637060034077E-003 tol =   1.570637060034077E-004
 Begin minimization
 Creating dielectric and ionic cavities
  area:      128.827959911596     
  volume:    637.456207310922     
  Acav:     6.763467895358773E-002
  Solving linear dielectric/ionic screening model
        iter                  A_solv                     rms
   LPB:       -0.458546068209495E+00   0.196824464838501E-02
   LPB:    0  -0.458546068153161E+00   0.200552114074877E-02  -0.197087E-05   0.000000E+00   0.290054E+02  -0.571659E-04
   LPB:    1  -0.458263318978983E+00   0.793122504002146E-03   0.156017E-01   0.000000E+00   0.492943E+06   0.449695E-20
   LPB:    2  -0.458234517565396E+00   0.892944396379231E-03   0.269298E-01   0.590137E-01   0.114755E+06   0.405285E-17
   LPB:    3  -0.458225362663578E+00   0.204304437330642E-02   0.324513E-01   0.263779E+00   0.256693E+05   0.447584E-17
   LPB:    4  -0.458221511414700E+00   0.559605646690114E-02   0.346700E-01   0.393756E+00   0.186072E+04   0.593088E-17
   LPB:    5  -0.458219951674497E+00   0.972326659421030E-02   0.260412E-01   0.539192E+00   0.209073E+03   0.146752E-16
   LPB:    6  -0.458218958637707E+00   0.354739310989465E-02   0.185096E-01   0.895732E+00   0.185902E+03   0.303218E-16
   LPB:    7  -0.458218152119623E+00   0.182904044769733E-02   0.334421E-01   0.449522E+00   0.716185E+03   0.398014E-16
   LPB:    8  -0.458217701460624E+00   0.317907157614645E-02   0.332816E-01   0.561467E+00   0.347785E+03   0.493189E-16
   LPB:    9  -0.458217445688941E+00   0.213060395901877E-02   0.238728E-01   0.791235E+00   0.120422E+03   0.686500E-16
   LPB:   10  -0.458217230400850E+00   0.675103223347011E-03   0.313628E-01   0.640701E+00   0.558437E+03   0.731644E-16
   LPB:   11  -0.458217081797053E+00   0.226331628090558E-03   0.387377E-01   0.558845E+00   0.142358E+04   0.792624E-16
   LPB:   12  -0.458216987396396E+00   0.261184347966772E-03   0.399272E-01   0.616325E+00   0.286894E+04   0.834705E-16
   LPB:   13  -0.458216928686811E+00   0.315513985314232E-03   0.379157E-01   0.654913E+00   0.187073E+04   0.859588E-16
   LPB:   14  -0.458216890117805E+00   0.292913742048116E-03   0.363456E-01   0.685326E+00   0.942046E+03   0.870820E-16
   LPB:   15  -0.458216863321128E+00   0.195923541333453E-03   0.358805E-01   0.703778E+00   0.137645E+04   0.879619E-16
   LPB:   16  -0.458216843771315E+00   0.109021472999290E-03   0.388009E-01   0.674651E+00   0.181794E+04   0.883007E-16
  Finished solving LPB equations
  A_corr:   -0.390582164817728     
 End minimization
 Ecorr=   1647.32673713587     
 A_corr= -0.390582164817728     
 Ecorr_band=  -1647.71731930069     
 End Solvation calculations
DAV:   1    -0.136317287112E+03    0.57750E-03   -0.22265E-02 12384   0.295E-01    0.350E-02
 Begin Solvation calculations
  rms_SCF =   1.570637060034077E-003 tol =   1.570637060034077E-004
 Begin minimization
 Creating dielectric and ionic cavities
  area:      128.822194039939     
  volume:    637.474247043595     
  Acav:     6.763165187096792E-002
  Solving linear dielectric/ionic screening model
        iter                  A_solv                     rms
   LPB:       -0.458063154471315E+00   0.324504625970128E-01
   LPB:    0  -0.458062295255327E+00   0.272086062449530E-01   0.243407E-03   0.000000E+00   0.290045E+02   0.705991E-02
   LPB:    1  -0.458056914818905E+00   0.108158534570145E-01   0.126090E-01   0.000000E+00   0.891362E+02  -0.927544E-19
   LPB:    2  -0.458055872392368E+00   0.178640327427490E-02   0.133370E-01   0.183168E+00   0.232561E+03   0.138399E-16
   LPB:    3  -0.458055557633036E+00   0.126455964036433E-02   0.243566E-01   0.165339E+00   0.603651E+03   0.171453E-16
   LPB:    4  -0.458055452566733E+00   0.137290273126380E-02   0.251405E-01   0.323391E+00   0.213176E+03   0.178935E-16
   LPB:    5  -0.458055399780844E+00   0.870400633635825E-03   0.227643E-01   0.554847E+00   0.174741E+03   0.230724E-16
   LPB:    6  -0.458055364817560E+00   0.410533243347549E-03   0.305435E-01   0.493663E+00   0.204272E+03   0.215215E-16
   LPB:    7  -0.458055343533733E+00   0.231480630599380E-03   0.345182E-01   0.538652E+00   0.602650E+03   0.146556E-16
   LPB:    8  -0.458055329495754E+00   0.134794347689355E-03   0.353348E-01   0.644318E+00   0.669884E+03   0.730711E-17
  Finished solving LPB equations
  A_corr:   -0.390423677624786     
 End minimization
 Ecorr=   1647.29244065787     
 A_corr= -0.390423677624786     
 Ecorr_band=  -1647.68286433549     
 End Solvation calculations
RMM:   2    -0.136317400113E+03   -0.11300E-03   -0.12044E-03 17474   0.757E-02    0.358E-02
 Begin Solvation calculations
  rms_SCF =   1.570637060034077E-003 tol =   1.570637060034077E-004
 Begin minimization
 Creating dielectric and ionic cavities
  area:      128.821184077563     
  volume:    637.475010951343     
  Acav:     6.763112164072081E-002
  Solving linear dielectric/ionic screening model
        iter                  A_solv                     rms
   LPB:       -0.457968235486623E+00   0.276331193471039E-01
   LPB:    0  -0.457968151498129E+00   0.269649193266919E-01   0.761013E-04   0.000000E+00   0.290045E+02   0.220728E-02
   LPB:    1  -0.457966159651879E+00   0.277246179871715E-02   0.909344E-02   0.000000E+00   0.658785E+02  -0.306969E-19
   LPB:    2  -0.457965933796219E+00   0.533156770050835E-03   0.150268E-01   0.686177E-01   0.226014E+03   0.769358E-17
   LPB:    3  -0.457965889767417E+00   0.424206941964019E-03   0.257758E-01   0.113648E+00   0.535297E+03   0.498353E-18
   LPB:    4  -0.457965875905337E+00   0.394683530461606E-03   0.254852E-01   0.318431E+00   0.200087E+03  -0.128059E-17
   LPB:    5  -0.457965868006660E+00   0.396753835890720E-03   0.276473E-01   0.525244E+00   0.238769E+03  -0.370991E-17
   LPB:    6  -0.457965860887846E+00   0.275831216400489E-03   0.325262E-01   0.766078E+00   0.121896E+03  -0.481080E-17
   LPB:    7  -0.457965854375590E+00   0.137587799414792E-03   0.355411E-01   0.837193E+00   0.417666E+03  -0.101022E-16
  Finished solving LPB equations
  A_corr:   -0.390334732734870     
 End minimization
 Ecorr=   1647.29609023094     
 A_corr= -0.390334732734870     
 Ecorr_band=  -1647.68642496367     
 End Solvation calculations
RMM:   3    -0.136317402128E+03   -0.20142E-05   -0.72896E-05  9023   0.220E-02
 Begin Solvation calculations
  rms_SCF =   1.570637060034077E-003 tol =   1.570637060034077E-004
 Begin minimization
 Creating dielectric and ionic cavities
  area:      128.821993327210     
  volume:    637.474789495061     
  Acav:     6.763154649678516E-002
  Solving linear dielectric/ionic screening model
        iter                  A_solv                     rms
   LPB:       -0.457928770164936E+00   0.321666114202832E-01
   LPB:    0  -0.457928769298196E+00   0.321621695352855E-01   0.773084E-05   0.000000E+00   0.290045E+02   0.224229E-03
   LPB:    1  -0.457926235211354E+00   0.330264529366841E-02   0.875393E-02   0.000000E+00   0.639368E+02   0.131612E-19
   LPB:    2  -0.457925939614838E+00   0.752182795157165E-03   0.171625E-01   0.594976E-01   0.125155E+03  -0.191830E-17
   LPB:    3  -0.457925900372979E+00   0.425316439629277E-03   0.223473E-01   0.101955E+00   0.157773E+03  -0.374664E-17
   LPB:    4  -0.457925886670861E+00   0.316319417229072E-03   0.275009E-01   0.283737E+00   0.244720E+03  -0.316215E-17
   LPB:    5  -0.457925880410303E+00   0.315923338508046E-03   0.273664E-01   0.459150E+00   0.171585E+03  -0.437364E-17
   LPB:    6  -0.457925876382641E+00   0.224433704534851E-03   0.266893E-01   0.659661E+00   0.201427E+03  -0.842538E-17
   LPB:    7  -0.457925873006832E+00   0.122264217193375E-03   0.332471E-01   0.672835E+00   0.244668E+03  -0.107804E-16
  Finished solving LPB equations
  A_corr:   -0.390294326510046     
 End minimization
 Ecorr=   1647.31020894670     
 A_corr= -0.390294326510046     
 Ecorr_band=  -1647.70050327321     
 End Solvation calculations
  31 F= -.13631740E+03 E0= -.13631094E+03  d E =0.454839E-03
quench:  g(F)=  0.000E+00 g(S)=  0.000E+00 dE (1.order)= 0.000E+00
 bond charge predicted
       N       E                     dE             d eps       ncg     rms          rms(c)
 Begin Solvation calculations
  rms_SCF =   1.570637060034077E-003 tol =   1.570637060034077E-004
 Begin minimization
 Creating dielectric and ionic cavities
  area:      128.832420428092     
  volume:    637.476124779369     
  Acav:     6.763702072474830E-002
  Solving linear dielectric/ionic screening model
        iter                  A_solv                     rms
   LPB:       -0.458007507437367E+00   0.936250077646693E-03
   LPB:    0  -0.458007507436659E+00   0.938521807684590E-03   0.220839E-06   0.000000E+00   0.290044E+02   0.640531E-05
   LPB:    1  -0.457939436280675E+00   0.464687105912903E-03   0.161218E-01   0.000000E+00   0.568609E+06   0.217857E-21
   LPB:    2  -0.457931289868182E+00   0.509922304286489E-03   0.279008E-01   0.691511E-01   0.807731E+05  -0.278957E-18
   LPB:    3  -0.457928537205278E+00   0.827670030068022E-03   0.327297E-01   0.288046E+00   0.176892E+05   0.157591E-17
   LPB:    4  -0.457927366914544E+00   0.190379605825598E-02   0.347108E-01   0.400883E+00   0.307005E+04   0.454026E-17
   LPB:    5  -0.457926848705579E+00   0.347525019761206E-02   0.314329E-01   0.488980E+00   0.289357E+03   0.781662E-17
   LPB:    6  -0.457926597289121E+00   0.259964756934567E-02   0.215340E-01   0.708186E+00   0.146832E+03  -0.125970E-16
   LPB:    7  -0.457926403923214E+00   0.199611799118761E-02   0.268624E-01   0.616548E+00   0.313255E+03  -0.256670E-16
   LPB:    8  -0.457926298800188E+00   0.221877127744999E-02   0.237335E-01   0.615320E+00   0.161830E+03  -0.375021E-16
   LPB:    9  -0.457926213450296E+00   0.743717945500745E-03   0.233830E-01   0.824074E+00   0.235923E+03  -0.440672E-16
   LPB:   10  -0.457926146647076E+00   0.217564418295950E-03   0.374005E-01   0.489348E+00   0.116964E+04  -0.521076E-16
   LPB:   11  -0.457926102537875E+00   0.158913779921431E-03   0.399825E-01   0.617646E+00   0.419669E+04  -0.539119E-16
   LPB:   12  -0.457926075020752E+00   0.196347440455301E-03   0.386944E-01   0.644607E+00   0.287359E+04  -0.546646E-16
   LPB:   13  -0.457926057607893E+00   0.194246107626680E-03   0.361849E-01   0.676688E+00   0.125919E+04  -0.547764E-16
   LPB:   14  -0.457926045231158E+00   0.142786287378602E-03   0.361977E-01   0.710529E+00   0.158682E+04  -0.544030E-16
  Finished solving LPB equations
  A_corr:   -0.390289024506410     
 End minimization
 Ecorr=   1647.29581924063     
 A_corr= -0.390289024506410     
 Ecorr_band=  -1647.68610826513     
 End Solvation calculations
DAV:   1    -0.136317256512E+03    0.14360E-03   -0.60421E-03 14121   0.169E-01    0.259E-02
 Begin Solvation calculations
  rms_SCF =   1.570637060034077E-003 tol =   1.570637060034077E-004
 Begin minimization
 Creating dielectric and ionic cavities
  area:      128.826023592953     
  volume:    637.472106549725     
  Acav:     6.763366238630057E-002
  Solving linear dielectric/ionic screening model
        iter                  A_solv                     rms
   LPB:       -0.457922160588409E+00   0.373858569031308E-01
   LPB:    0  -0.457922146249057E+00   0.373416728189448E-01  -0.314446E-04   0.000000E+00   0.290046E+02  -0.912039E-03
   LPB:    1  -0.457918699935617E+00   0.358510285440747E-02   0.877127E-02   0.000000E+00   0.642497E+02  -0.786639E-19
   LPB:    2  -0.457918311794512E+00   0.777125673259206E-03   0.168867E-01   0.584996E-01   0.146884E+03  -0.807943E-20
   LPB:    3  -0.457918241292972E+00   0.345860439447432E-03   0.238022E-01   0.128866E+00   0.322411E+03   0.758286E-18
   LPB:    4  -0.457918214081465E+00   0.176523093771166E-03   0.312833E-01   0.293669E+00   0.629383E+03   0.194288E-17
   LPB:    5  -0.457918200171652E+00   0.129847476079578E-03   0.328644E-01   0.486581E+00   0.594879E+03   0.937427E-18
  Finished solving LPB equations
  A_corr:   -0.390284537785351     
 End minimization
 Ecorr=   1647.30850529900     
 A_corr= -0.390284537785351     
 Ecorr_band=  -1647.69878983678     
 End Solvation calculations
RMM:   2    -0.136317341725E+03   -0.85213E-04   -0.48930E-04 12602   0.545E-02    0.920E-02
 Begin Solvation calculations
  rms_SCF =   1.570637060034077E-003 tol =   1.570637060034077E-004
 Begin minimization
 Creating dielectric and ionic cavities
  area:      128.827216182222     
  volume:    637.471165401422     
  Acav:     6.763428849566643E-002
  Solving linear dielectric/ionic screening model
        iter                  A_solv                     rms
   LPB:       -0.457950141023640E+00   0.428986143784372E-01
   LPB:    0  -0.457950110227178E+00   0.427407009335163E-01  -0.460820E-04   0.000000E+00   0.290047E+02  -0.133659E-02
   LPB:    1  -0.457945828760537E+00   0.398974043062622E-02   0.863119E-02   0.000000E+00   0.628666E+02   0.215447E-19
   LPB:    2  -0.457945468128113E+00   0.822231065320471E-03   0.156003E-01   0.466025E-01   0.124016E+03   0.549156E-18
   LPB:    3  -0.457945416850205E+00   0.474334273739163E-03   0.234902E-01   0.944307E-01   0.154471E+03  -0.801728E-18
   LPB:    4  -0.457945401922085E+00   0.406107349912895E-03   0.256116E-01   0.267009E+00   0.215570E+03  -0.536783E-17
   LPB:    5  -0.457945394862408E+00   0.319197664598220E-03   0.246486E-01   0.491386E+00   0.195484E+03  -0.265036E-17
   LPB:    6  -0.457945389813855E+00   0.224840681970556E-03   0.298387E-01   0.590739E+00   0.207626E+03  -0.395172E-17
   LPB:    7  -0.457945385374427E+00   0.122486137834221E-03   0.356955E-01   0.735066E+00   0.301393E+03  -0.510309E-17
  Finished solving LPB equations
  A_corr:   -0.390311096878760     
 End minimization
 Ecorr=   1647.32142917901     
 A_corr= -0.390311096878760     
 Ecorr_band=  -1647.71174027589     
 End Solvation calculations
RMM:   3    -0.136317296772E+03    0.44953E-04   -0.56336E-05  8169   0.237E-02    0.350E-02
 Begin Solvation calculations
  rms_SCF =   1.570637060034077E-003 tol =   1.570637060034077E-004
 Begin minimization
 Creating dielectric and ionic cavities
  area:      128.827266493151     
  volume:    637.471829941572     
  Acav:     6.763431490890444E-002
  Solving linear dielectric/ionic screening model
        iter                  A_solv                     rms
   LPB:       -0.457932172574724E+00   0.464394917394194E-02
   LPB:    0  -0.457932169722766E+00   0.444186798166784E-02   0.140234E-04   0.000000E+00   0.290046E+02   0.406743E-03
   LPB:    1  -0.457932055459762E+00   0.145389778170321E-02   0.109872E-01   0.000000E+00   0.931168E+02   0.634633E-20
   LPB:    2  -0.457932029274493E+00   0.275618013183100E-03   0.154807E-01   0.162648E+00   0.235510E+03  -0.567663E-17
   LPB:    3  -0.457932021001788E+00   0.203793623524276E-03   0.260539E-01   0.187719E+00   0.492820E+03  -0.640428E-17
   LPB:    4  -0.457932016677468E+00   0.226145369502035E-03   0.312752E-01   0.435454E+00   0.256898E+03  -0.637734E-17
   LPB:    5  -0.457932014013425E+00   0.244622526708969E-03   0.292366E-01   0.659016E+00   0.208369E+03  -0.820285E-17
   LPB:    6  -0.457932011537743E+00   0.151289860425106E-03   0.310934E-01   0.873801E+00   0.203828E+03  -0.115427E-16
  Finished solving LPB equations
  A_corr:   -0.390297696628838     
 End minimization
 Ecorr=   1647.32744540239     
 A_corr= -0.390297696628838     
 Ecorr_band=  -1647.71774309902     
 End Solvation calculations
RMM:   4    -0.136317289687E+03    0.70857E-05   -0.92461E-06  6630   0.131E-02
 Begin Solvation calculations
  rms_SCF =   1.570637060034077E-003 tol =   1.570637060034077E-004
 Begin minimization
 Creating dielectric and ionic cavities
  area:      128.825387725009     
  volume:    637.468986909070     
  Acav:     6.763332855562960E-002
  Solving linear dielectric/ionic screening model
        iter                  A_solv                     rms
   LPB:       -0.457993093754536E+00   0.975665019748968E-02
   LPB:    0  -0.457992982981340E+00   0.740254919539069E-02  -0.873972E-04   0.000000E+00   0.290048E+02  -0.253494E-02
   LPB:    1  -0.457992616436958E+00   0.263729968714202E-02   0.121262E-01   0.000000E+00   0.868768E+02  -0.182830E-18
   LPB:    2  -0.457992548394407E+00   0.480585175313852E-03   0.136174E-01   0.165304E+00   0.232512E+03   0.789373E-18
   LPB:    3  -0.457992527220587E+00   0.362740214305026E-03   0.238560E-01   0.177630E+00   0.585922E+03   0.109655E-17
   LPB:    4  -0.457992519540553E+00   0.433111381950822E-03   0.244051E-01   0.354553E+00   0.186652E+03   0.128537E-17
   LPB:    5  -0.457992514795969E+00   0.232537967722549E-03   0.247517E-01   0.609132E+00   0.149045E+03   0.394022E-17
   LPB:    6  -0.457992511231419E+00   0.122639129952905E-03   0.349317E-01   0.532342E+00   0.287091E+03   0.997774E-17
  Finished solving LPB equations
  A_corr:   -0.390359182675790     
 End minimization
 Ecorr=   1647.33896841229     
 A_corr= -0.390359182675790     
 Ecorr_band=  -1647.72932759497     
 End Solvation calculations
  32 F= -.13631729E+03 E0= -.13631088E+03  d E =0.112441E-03
quench:  g(F)=  0.000E+00 g(S)=  0.000E+00 dE (1.order)= 0.000E+00
 reached required accuracy - stopping structural energy minimisation
