 vasp.5.4.4.18Apr17-6-g9f103f2a35 (build Feb 06 2024 13:54:16) complex          
  
 POSCAR found type information on POSCAR  Cu Pd Cu N  O 
 04/POSCAR found :  5 types and      40 ions
 scaLAPACK will be used

 ----------------------------------------------------------------------------- 
|                                                                             |
|  ADVICE TO THIS USER RUNNING 'VASP/VAMP'   (HEAR YOUR MASTER'S VOICE ...):  |
|                                                                             |
|      You enforced a specific xc-type in the INCAR file,                     |
|      a different type was found on the POTCAR file                          |
|          I HOPE YOU KNOW, WHAT YOU ARE  DOING                               |
|                                                                             |
 ----------------------------------------------------------------------------- 

 LDA part: xc-table for Pade appr. of Perdew
 POSCAR found type information on POSCAR  Cu Pd Cu N  O 
 00/POSCAR found :  5 types and      40 ions
 POSCAR found type information on POSCAR  Cu Pd Cu N  O 
 06/POSCAR found :  5 types and      40 ions
 Jacobian:    20.5888137679208     
 POSCAR, INCAR and KPOINTS ok, starting setup
 FFT: planning ...
 WAVECAR not read
 entering main loop
       N       E                     dE             d eps       ncg     rms          rms(c)
DAV:   1     0.349864467026E+04    0.34986E+04   -0.12913E+05  1008   0.131E+03
DAV:   2     0.358623899722E+03   -0.31400E+04   -0.30177E+04  1008   0.370E+02
DAV:   3    -0.922962118011E+02   -0.45092E+03   -0.40906E+03  1287   0.177E+02
DAV:   4    -0.159978248224E+03   -0.67682E+02   -0.64101E+02  1575   0.664E+01
DAV:   5    -0.162870671112E+03   -0.28924E+01   -0.28041E+01  1494   0.172E+01    0.432E+01
RMM:   6    -0.165892053974E+03   -0.30214E+01   -0.35719E+02  1016   0.880E+01    0.448E+01
RMM:   7    -0.165691461989E+03    0.20059E+00   -0.11102E+02  1042   0.403E+01    0.331E+01
RMM:   8    -0.145720663293E+03    0.19971E+02   -0.14248E+01  1021   0.151E+01    0.236E+01
RMM:   9    -0.140597998926E+03    0.51227E+01   -0.52035E+00  1023   0.980E+00    0.145E+01
RMM:  10    -0.137274948816E+03    0.33231E+01   -0.10651E+01  1020   0.110E+01    0.112E+01
RMM:  11    -0.135732880030E+03    0.15421E+01   -0.40372E+00  1022   0.767E+00    0.527E+00
RMM:  12    -0.135369241759E+03    0.36364E+00   -0.94876E-01  1021   0.376E+00    0.396E+00
RMM:  13    -0.135202025682E+03    0.16722E+00   -0.32955E-01  1023   0.201E+00    0.297E+00
RMM:  14    -0.135155856525E+03    0.46169E-01   -0.58453E-01  1026   0.235E+00    0.281E+00
RMM:  15    -0.135081232023E+03    0.74625E-01   -0.15514E-01  1027   0.133E+00    0.201E+00
RMM:  16    -0.135025242101E+03    0.55990E-01   -0.15113E-01  1023   0.123E+00    0.124E+00
RMM:  17    -0.135008327372E+03    0.16915E-01   -0.25985E-02  1024   0.480E-01    0.875E-01
RMM:  18    -0.134997343353E+03    0.10984E-01   -0.11558E-02  1030   0.331E-01    0.558E-01
RMM:  19    -0.134994517103E+03    0.28263E-02   -0.55009E-03  1030   0.250E-01    0.405E-01
RMM:  20    -0.134992403861E+03    0.21132E-02   -0.45516E-03  1034   0.173E-01    0.223E-01
RMM:  21    -0.134991878697E+03    0.52516E-03   -0.15362E-03  1040   0.111E-01    0.148E-01
RMM:  22    -0.134991849597E+03    0.29101E-04   -0.11328E-03  1034   0.849E-02    0.791E-02
RMM:  23    -0.134992478315E+03   -0.62872E-03   -0.53088E-04  1044   0.504E-02    0.747E-02
RMM:  24    -0.134992875789E+03   -0.39747E-03   -0.21240E-04  1022   0.308E-02    0.527E-02
RMM:  25    -0.134993189863E+03   -0.31407E-03   -0.97694E-05   871   0.223E-02    0.396E-02
RMM:  26    -0.134993527884E+03   -0.33802E-03   -0.76526E-05   813   0.239E-02    0.336E-02
RMM:  27    -0.134993722081E+03   -0.19420E-03   -0.42840E-05   665   0.185E-02    0.288E-02
RMM:  28    -0.134993916971E+03   -0.19489E-03   -0.29151E-05   624   0.178E-02    0.260E-02
RMM:  29    -0.134994056288E+03   -0.13932E-03   -0.25424E-05   616   0.156E-02    0.126E-02
RMM:  30    -0.134994054236E+03    0.20516E-05   -0.11180E-05   589   0.115E-02
   1 F= -.13499405E+03 E0= -.13498919E+03  d E =-.134994E+03
quench:  g(F)=  0.000E+00 g(S)=  0.000E+00 dE (1.order)= 0.000E+00
 bond charge predicted
       N       E                     dE             d eps       ncg     rms          rms(c)
DAV:   1    -0.134994119688E+03   -0.63400E-04   -0.51088E-03  1026   0.127E-01    0.233E-02
RMM:   2    -0.134994136388E+03   -0.16701E-04   -0.26017E-04  1039   0.355E-02    0.236E-02
RMM:   3    -0.134994131662E+03    0.47266E-05   -0.23996E-05   591   0.206E-02
   2 F= -.13499413E+03 E0= -.13498924E+03  d E =-.774257E-04
quench:  g(F)=  0.000E+00 g(S)=  0.000E+00 dE (1.order)= 0.000E+00
 bond charge predicted
       N       E                     dE             d eps       ncg     rms          rms(c)
DAV:   1    -0.134994180146E+03   -0.43758E-04   -0.67313E-03  1215   0.181E-01    0.256E-02
RMM:   2    -0.134994212136E+03   -0.31989E-04   -0.33157E-04  1136   0.362E-02    0.138E-02
RMM:   3    -0.134994209448E+03    0.26870E-05   -0.19938E-05   589   0.155E-02
   3 F= -.13499421E+03 E0= -.13498928E+03  d E =-.777867E-04
quench:  g(F)=  0.000E+00 g(S)=  0.000E+00 dE (1.order)= 0.000E+00
 bond charge predicted
       N       E                     dE             d eps       ncg     rms          rms(c)
DAV:   1    -0.134994259259E+03   -0.47124E-04   -0.12870E-02  1053   0.214E-01    0.344E-02
RMM:   2    -0.134994311329E+03   -0.52070E-04   -0.59390E-04  1292   0.503E-02    0.215E-02
RMM:   3    -0.134994315689E+03   -0.43601E-05   -0.40848E-05   684   0.218E-02
   4 F= -.13499432E+03 E0= -.13498942E+03  d E =-.106241E-03
quench:  g(F)=  0.000E+00 g(S)=  0.000E+00 dE (1.order)= 0.000E+00
 bond charge predicted
       N       E                     dE             d eps       ncg     rms          rms(c)
DAV:   1    -0.134994318528E+03   -0.71992E-05   -0.13177E-02  1305   0.265E-01    0.378E-02
RMM:   2    -0.134994382081E+03   -0.63552E-04   -0.73051E-04  1230   0.481E-02    0.235E-02
RMM:   3    -0.134994380657E+03    0.14238E-05   -0.46034E-05   694   0.172E-02
   5 F= -.13499438E+03 E0= -.13498943E+03  d E =-.649678E-04
quench:  g(F)=  0.000E+00 g(S)=  0.000E+00 dE (1.order)= 0.000E+00
 bond charge predicted
       N       E                     dE             d eps       ncg     rms          rms(c)
DAV:   1    -0.134994404166E+03   -0.22085E-04   -0.81626E-03  1377   0.239E-01    0.280E-02
RMM:   2    -0.134994452641E+03   -0.48474E-04   -0.45361E-04  1117   0.428E-02    0.244E-02
RMM:   3    -0.134994445071E+03    0.75700E-05   -0.34379E-05   649   0.197E-02
   6 F= -.13499445E+03 E0= -.13498954E+03  d E =-.644135E-04
quench:  g(F)=  0.000E+00 g(S)=  0.000E+00 dE (1.order)= 0.000E+00
 bond charge predicted
       N       E                     dE             d eps       ncg     rms          rms(c)
DAV:   1    -0.134994473552E+03   -0.20912E-04   -0.73912E-03  1233   0.192E-01    0.287E-02
RMM:   2    -0.134994505955E+03   -0.32403E-04   -0.39313E-04  1136   0.384E-02    0.164E-02
RMM:   3    -0.134994501209E+03    0.47456E-05   -0.26676E-05   600   0.184E-02
   7 F= -.13499450E+03 E0= -.13498958E+03  d E =-.561388E-04
quench:  g(F)=  0.000E+00 g(S)=  0.000E+00 dE (1.order)= 0.000E+00
 bond charge predicted
       N       E                     dE             d eps       ncg     rms          rms(c)
DAV:   1    -0.134994538313E+03   -0.32358E-04   -0.13121E-02  1080   0.220E-01    0.357E-02
RMM:   2    -0.134994589025E+03   -0.50713E-04   -0.60558E-04  1282   0.468E-02    0.209E-02
RMM:   3    -0.134994594452E+03   -0.54269E-05   -0.37741E-05   666   0.195E-02
   8 F= -.13499459E+03 E0= -.13498960E+03  d E =-.932428E-04
quench:  g(F)=  0.000E+00 g(S)=  0.000E+00 dE (1.order)= 0.000E+00
 bond charge predicted
       N       E                     dE             d eps       ncg     rms          rms(c)
DAV:   1    -0.134994598158E+03   -0.91326E-05   -0.14429E-02  1260   0.275E-01    0.404E-02
RMM:   2    -0.134994659175E+03   -0.61018E-04   -0.75332E-04  1273   0.496E-02    0.232E-02
RMM:   3    -0.134994659852E+03   -0.67637E-06   -0.49262E-05   702   0.186E-02
   9 F= -.13499466E+03 E0= -.13498980E+03  d E =-.653996E-04
quench:  g(F)=  0.000E+00 g(S)=  0.000E+00 dE (1.order)= 0.000E+00
 bond charge predicted
       N       E                     dE             d eps       ncg     rms          rms(c)
DAV:   1    -0.134994682845E+03   -0.23669E-04   -0.96675E-03  1305   0.253E-01    0.314E-02
RMM:   2    -0.134994734833E+03   -0.51988E-04   -0.50176E-04  1148   0.458E-02    0.252E-02
RMM:   3    -0.134994728893E+03    0.59397E-05   -0.43430E-05   665   0.194E-02
  10 F= -.13499473E+03 E0= -.13498974E+03  d E =-.690413E-04
quench:  g(F)=  0.000E+00 g(S)=  0.000E+00 dE (1.order)= 0.000E+00
 bond charge predicted
       N       E                     dE             d eps       ncg     rms          rms(c)
DAV:   1    -0.134994754304E+03   -0.19471E-04   -0.65336E-03  1278   0.196E-01    0.275E-02
RMM:   2    -0.134994783294E+03   -0.28990E-04   -0.35311E-04  1114   0.354E-02    0.162E-02
RMM:   3    -0.134994781098E+03    0.21960E-05   -0.21364E-05   597   0.160E-02
  11 F= -.13499478E+03 E0= -.13498983E+03  d E =-.522053E-04
quench:  g(F)=  0.000E+00 g(S)=  0.000E+00 dE (1.order)= 0.000E+00
 bond charge predicted
       N       E                     dE             d eps       ncg     rms          rms(c)
DAV:   1    -0.134994820638E+03   -0.37343E-04   -0.10459E-02  1188   0.219E-01    0.329E-02
RMM:   2    -0.134994882693E+03   -0.62055E-04   -0.50809E-04  1180   0.456E-02    0.323E-02
RMM:   3    -0.134994860782E+03    0.21911E-04   -0.46816E-05   718   0.228E-02    0.258E-02
RMM:   4    -0.134994851587E+03    0.91948E-05   -0.17910E-05   558   0.203E-02
  12 F= -.13499485E+03 E0= -.13498990E+03  d E =-.704891E-04
quench:  g(F)=  0.000E+00 g(S)=  0.000E+00 dE (1.order)= 0.000E+00
 bond charge predicted
       N       E                     dE             d eps       ncg     rms          rms(c)
DAV:   1    -0.134994892164E+03   -0.31382E-04   -0.14955E-02  1008   0.210E-01    0.394E-02
RMM:   2    -0.134994943277E+03   -0.51113E-04   -0.67041E-04  1357   0.487E-02    0.220E-02
RMM:   3    -0.134994935905E+03    0.73727E-05   -0.41771E-05   643   0.180E-02
  13 F= -.13499494E+03 E0= -.13499002E+03  d E =-.843173E-04
quench:  g(F)=  0.000E+00 g(S)=  0.000E+00 dE (1.order)= 0.000E+00
 bond charge predicted
       N       E                     dE             d eps       ncg     rms          rms(c)
DAV:   1    -0.134994963913E+03   -0.20636E-04   -0.15032E-02  1098   0.231E-01    0.397E-02
RMM:   2    -0.134995027463E+03   -0.63550E-04   -0.73640E-04  1213   0.526E-02    0.324E-02
RMM:   3    -0.134995014154E+03    0.13308E-04   -0.75265E-05   841   0.307E-02    0.263E-02
RMM:   4    -0.134995010393E+03    0.37615E-05   -0.24075E-05   592   0.219E-02
  14 F= -.13499501E+03 E0= -.13499005E+03  d E =-.744883E-04
quench:  g(F)=  0.000E+00 g(S)=  0.000E+00 dE (1.order)= 0.000E+00
 bond charge predicted
       N       E                     dE             d eps       ncg     rms          rms(c)
DAV:   1    -0.134995058226E+03   -0.44072E-04   -0.87932E-03  1134   0.181E-01    0.323E-02
RMM:   2    -0.134995124262E+03   -0.66036E-04   -0.49516E-04  1195   0.438E-02    0.376E-02
RMM:   3    -0.134995090924E+03    0.33338E-04   -0.49139E-05   720   0.236E-02    0.234E-02
RMM:   4    -0.134995084507E+03    0.64173E-05   -0.17291E-05   570   0.181E-02
  15 F= -.13499508E+03 E0= -.13499015E+03  d E =-.741140E-04
quench:  g(F)=  0.000E+00 g(S)=  0.000E+00 dE (1.order)= 0.000E+00
 bond charge predicted
       N       E                     dE             d eps       ncg     rms          rms(c)
DAV:   1    -0.134995137012E+03   -0.46088E-04   -0.93691E-03  1017   0.176E-01    0.302E-02
RMM:   2    -0.134995172355E+03   -0.35343E-04   -0.42090E-04  1211   0.397E-02    0.210E-02
RMM:   3    -0.134995167065E+03    0.52899E-05   -0.37836E-05   673   0.231E-02
  16 F= -.13499517E+03 E0= -.13499018E+03  d E =-.825584E-04
quench:  g(F)=  0.000E+00 g(S)=  0.000E+00 dE (1.order)= 0.000E+00
 bond charge predicted
       N       E                     dE             d eps       ncg     rms          rms(c)
DAV:   1    -0.134995206751E+03   -0.34396E-04   -0.13801E-02  1053   0.222E-01    0.388E-02
RMM:   2    -0.134995256584E+03   -0.49833E-04   -0.63980E-04  1325   0.482E-02    0.204E-02
RMM:   3    -0.134995260447E+03   -0.38625E-05   -0.43349E-05   674   0.175E-02
  17 F= -.13499526E+03 E0= -.13499035E+03  d E =-.933812E-04
quench:  g(F)=  0.000E+00 g(S)=  0.000E+00 dE (1.order)= 0.000E+00
 bond charge predicted
       N       E                     dE             d eps       ncg     rms          rms(c)
DAV:   1    -0.134995268319E+03   -0.11735E-04   -0.18050E-02  1197   0.288E-01    0.428E-02
RMM:   2    -0.134995346804E+03   -0.78484E-04   -0.90245E-04  1269   0.557E-02    0.277E-02
RMM:   3    -0.134995350050E+03   -0.32468E-05   -0.66247E-05   803   0.240E-02
  18 F= -.13499535E+03 E0= -.13499030E+03  d E =-.896038E-04
quench:  g(F)=  0.000E+00 g(S)=  0.000E+00 dE (1.order)= 0.000E+00
 bond charge predicted
       N       E                     dE             d eps       ncg     rms          rms(c)
DAV:   1    -0.134995362070E+03   -0.15266E-04   -0.10767E-02  1305   0.271E-01    0.355E-02
RMM:   2    -0.134995415239E+03   -0.53169E-04   -0.61797E-04  1214   0.460E-02    0.223E-02
RMM:   3    -0.134995416419E+03   -0.11804E-05   -0.43246E-05   683   0.200E-02
  19 F= -.13499542E+03 E0= -.13499050E+03  d E =-.663691E-04
quench:  g(F)=  0.000E+00 g(S)=  0.000E+00 dE (1.order)= 0.000E+00
 bond charge predicted
       N       E                     dE             d eps       ncg     rms          rms(c)
DAV:   1    -0.134995443448E+03   -0.28209E-04   -0.78426E-03  1314   0.232E-01    0.290E-02
RMM:   2    -0.134995480374E+03   -0.36925E-04   -0.39299E-04  1108   0.418E-02    0.213E-02
RMM:   3    -0.134995479495E+03    0.87851E-06   -0.31678E-05   647   0.196E-02
  20 F= -.13499548E+03 E0= -.13499046E+03  d E =-.630756E-04
quench:  g(F)=  0.000E+00 g(S)=  0.000E+00 dE (1.order)= 0.000E+00
 bond charge predicted
       N       E                     dE             d eps       ncg     rms          rms(c)
DAV:   1    -0.134995513137E+03   -0.32763E-04   -0.10675E-02  1188   0.226E-01    0.356E-02
RMM:   2    -0.134995556197E+03   -0.43060E-04   -0.53955E-04  1221   0.459E-02    0.213E-02
RMM:   3    -0.134995555408E+03    0.78840E-06   -0.46175E-05   708   0.235E-02
  21 F= -.13499556E+03 E0= -.13499061E+03  d E =-.759134E-04
quench:  g(F)=  0.000E+00 g(S)=  0.000E+00 dE (1.order)= 0.000E+00
 bond charge predicted
       N       E                     dE             d eps       ncg     rms          rms(c)
DAV:   1    -0.134995575743E+03   -0.19547E-04   -0.15200E-02  1206   0.260E-01    0.403E-02
RMM:   2    -0.134995642930E+03   -0.67187E-04   -0.74026E-04  1170   0.547E-02    0.304E-02
RMM:   3    -0.134995638780E+03    0.41504E-05   -0.65038E-05   840   0.268E-02
  22 F= -.13499564E+03 E0= -.13499059E+03  d E =-.833717E-04
quench:  g(F)=  0.000E+00 g(S)=  0.000E+00 dE (1.order)= 0.000E+00
 bond charge predicted
       N       E                     dE             d eps       ncg     rms          rms(c)
DAV:   1    -0.134995647910E+03   -0.49795E-05   -0.13148E-02  1269   0.268E-01    0.397E-02
RMM:   2    -0.134995711354E+03   -0.63444E-04   -0.73911E-04  1223   0.506E-02    0.271E-02
RMM:   3    -0.134995709398E+03    0.19564E-05   -0.59861E-05   764   0.246E-02
  23 F= -.13499571E+03 E0= -.13499078E+03  d E =-.706179E-04
quench:  g(F)=  0.000E+00 g(S)=  0.000E+00 dE (1.order)= 0.000E+00
 bond charge predicted
       N       E                     dE             d eps       ncg     rms          rms(c)
DAV:   1    -0.134995730904E+03   -0.19549E-04   -0.10054E-02  1314   0.257E-01    0.332E-02
RMM:   2    -0.134995783175E+03   -0.52271E-04   -0.53133E-04  1121   0.491E-02    0.280E-02
RMM:   3    -0.134995774946E+03    0.82290E-05   -0.45871E-05   744   0.233E-02
  24 F= -.13499577E+03 E0= -.13499073E+03  d E =-.655476E-04
quench:  g(F)=  0.000E+00 g(S)=  0.000E+00 dE (1.order)= 0.000E+00
 bond charge predicted
       N       E                     dE             d eps       ncg     rms          rms(c)
DAV:   1    -0.134995802793E+03   -0.19619E-04   -0.10006E-02  1224   0.227E-01    0.351E-02
RMM:   2    -0.134995848230E+03   -0.45437E-04   -0.53187E-04  1204   0.457E-02    0.238E-02
RMM:   3    -0.134995848131E+03    0.98808E-07   -0.51311E-05   721   0.242E-02
  25 F= -.13499585E+03 E0= -.13499089E+03  d E =-.731858E-04
quench:  g(F)=  0.000E+00 g(S)=  0.000E+00 dE (1.order)= 0.000E+00
 bond charge predicted
       N       E                     dE             d eps       ncg     rms          rms(c)
DAV:   1    -0.134995865109E+03   -0.16879E-04   -0.13438E-02  1242   0.261E-01    0.384E-02
RMM:   2    -0.134995924788E+03   -0.59678E-04   -0.67032E-04  1147   0.540E-02    0.297E-02
RMM:   3    -0.134995918470E+03    0.63180E-05   -0.61736E-05   822   0.274E-02
  26 F= -.13499592E+03 E0= -.13499086E+03  d E =-.703383E-04
quench:  g(F)=  0.000E+00 g(S)=  0.000E+00 dE (1.order)= 0.000E+00
 bond charge predicted
       N       E                     dE             d eps       ncg     rms          rms(c)
DAV:   1    -0.134995929876E+03   -0.50887E-05   -0.12933E-02  1224   0.258E-01    0.398E-02
RMM:   2    -0.134995997733E+03   -0.67857E-04   -0.71768E-04  1225   0.521E-02    0.313E-02
RMM:   3    -0.134995990907E+03    0.68257E-05   -0.64713E-05   803   0.255E-02
  27 F= -.13499599E+03 E0= -.13499104E+03  d E =-.724375E-04
quench:  g(F)=  0.000E+00 g(S)=  0.000E+00 dE (1.order)= 0.000E+00
 bond charge predicted
       N       E                     dE             d eps       ncg     rms          rms(c)
DAV:   1    -0.134995998631E+03   -0.89808E-06   -0.12016E-02  1287   0.267E-01    0.366E-02
RMM:   2    -0.134996054317E+03   -0.55686E-04   -0.64824E-04  1145   0.521E-02    0.279E-02
RMM:   3    -0.134996044896E+03    0.94213E-05   -0.53994E-05   779   0.264E-02
  28 F= -.13499604E+03 E0= -.13499099E+03  d E =-.539887E-04
quench:  g(F)=  0.000E+00 g(S)=  0.000E+00 dE (1.order)= 0.000E+00
 bond charge predicted
       N       E                     dE             d eps       ncg     rms          rms(c)
DAV:   1    -0.134996065774E+03   -0.11457E-04   -0.11318E-02  1188   0.231E-01    0.371E-02
RMM:   2    -0.134996131296E+03   -0.65522E-04   -0.60361E-04  1220   0.490E-02    0.332E-02
RMM:   3    -0.134996115337E+03    0.15958E-04   -0.56057E-05   765   0.237E-02    0.296E-02
RMM:   4    -0.134996102056E+03    0.13281E-04   -0.22556E-05   576   0.213E-02    0.123E-02
RMM:   5    -0.134996102549E+03   -0.49264E-06   -0.10642E-05   544   0.148E-02
  29 F= -.13499610E+03 E0= -.13499110E+03  d E =-.576529E-04
quench:  g(F)=  0.000E+00 g(S)=  0.000E+00 dE (1.order)= 0.000E+00
 bond charge predicted
       N       E                     dE             d eps       ncg     rms          rms(c)
DAV:   1    -0.134996134427E+03   -0.32371E-04   -0.14446E-02  1008   0.206E-01    0.366E-02
RMM:   2    -0.134996186827E+03   -0.52399E-04   -0.66344E-04  1304   0.459E-02    0.223E-02
RMM:   3    -0.134996177352E+03    0.94746E-05   -0.34174E-05   639   0.175E-02
  30 F= -.13499618E+03 E0= -.13499114E+03  d E =-.748031E-04
quench:  g(F)=  0.000E+00 g(S)=  0.000E+00 dE (1.order)= 0.000E+00
 bond charge predicted
       N       E                     dE             d eps       ncg     rms          rms(c)
DAV:   1    -0.134996197551E+03   -0.10724E-04   -0.13765E-02  1098   0.224E-01    0.397E-02
RMM:   2    -0.134996264643E+03   -0.67092E-04   -0.68501E-04  1249   0.522E-02    0.348E-02
RMM:   3    -0.134996254055E+03    0.10587E-04   -0.75853E-05   838   0.289E-02    0.317E-02
RMM:   4    -0.134996240298E+03    0.13757E-04   -0.21592E-05   592   0.199E-02    0.140E-02
RMM:   5    -0.134996240533E+03   -0.23499E-06   -0.10926E-05   548   0.151E-02
  31 F= -.13499624E+03 E0= -.13499122E+03  d E =-.631811E-04
quench:  g(F)=  0.000E+00 g(S)=  0.000E+00 dE (1.order)= 0.000E+00
 bond charge predicted
       N       E                     dE             d eps       ncg     rms          rms(c)
DAV:   1    -0.134996267541E+03   -0.27243E-04   -0.14478E-02  1017   0.209E-01    0.374E-02
RMM:   2    -0.134996325094E+03   -0.57552E-04   -0.71597E-04  1300   0.474E-02    0.248E-02
RMM:   3    -0.134996314310E+03    0.10784E-04   -0.40426E-05   669   0.194E-02    0.223E-02
RMM:   4    -0.134996313282E+03    0.10280E-05   -0.22612E-05   585   0.218E-02
  32 F= -.13499631E+03 E0= -.13499126E+03  d E =-.727489E-04
quench:  g(F)=  0.000E+00 g(S)=  0.000E+00 dE (1.order)= 0.000E+00
 bond charge predicted
       N       E                     dE             d eps       ncg     rms          rms(c)
DAV:   1    -0.134996340143E+03   -0.25833E-04   -0.13995E-02  1089   0.220E-01    0.390E-02
RMM:   2    -0.134996406526E+03   -0.66383E-04   -0.70545E-04  1290   0.512E-02    0.317E-02
RMM:   3    -0.134996396120E+03    0.10407E-04   -0.65040E-05   800   0.249E-02    0.302E-02
RMM:   4    -0.134996382255E+03    0.13865E-04   -0.23862E-05   589   0.218E-02    0.158E-02
RMM:   5    -0.134996381893E+03    0.36260E-06   -0.14194E-05   566   0.166E-02
  33 F= -.13499638E+03 E0= -.13499137E+03  d E =-.686106E-04
quench:  g(F)=  0.000E+00 g(S)=  0.000E+00 dE (1.order)= 0.000E+00
 bond charge predicted
       N       E                     dE             d eps       ncg     rms          rms(c)
DAV:   1    -0.134996408635E+03   -0.26380E-04   -0.17120E-02  1008   0.225E-01    0.399E-02
RMM:   2    -0.134996538672E+03   -0.13004E-03   -0.76950E-04  1324   0.498E-02    0.243E-02
RMM:   3    -0.134996529063E+03    0.96092E-05   -0.45588E-05   674   0.211E-02
  34 F= -.13499653E+03 E0= -.13499148E+03  d E =-.147170E-03
quench:  g(F)=  0.000E+00 g(S)=  0.000E+00 dE (1.order)= 0.000E+00
 bond charge predicted
       N       E                     dE             d eps       ncg     rms          rms(c)
DAV:   1    -0.134996546425E+03   -0.77525E-05   -0.15005E-02  1233   0.242E-01    0.413E-02
RMM:   2    -0.134996624714E+03   -0.78289E-04   -0.75297E-04  1241   0.528E-02    0.373E-02
RMM:   3    -0.134996608445E+03    0.16269E-04   -0.79390E-05   862   0.285E-02    0.330E-02
RMM:   4    -0.134996524327E+03    0.84118E-04   -0.23475E-05   600   0.203E-02    0.145E-02
RMM:   5    -0.134996524145E+03    0.18188E-06   -0.11602E-05   551   0.155E-02
  35 F= -.13499652E+03 E0= -.13499148E+03  d E =0.491791E-05
quench:  g(F)=  0.000E+00 g(S)=  0.000E+00 dE (1.order)= 0.000E+00
 bond charge predicted
       N       E                     dE             d eps       ncg     rms          rms(c)
DAV:   1    -0.134996555507E+03   -0.31180E-04   -0.13650E-02  1053   0.202E-01    0.364E-02
RMM:   2    -0.134996608879E+03   -0.53372E-04   -0.67687E-04  1285   0.452E-02    0.235E-02
RMM:   3    -0.134996597038E+03    0.11841E-04   -0.34816E-05   633   0.174E-02    0.179E-02
RMM:   4    -0.134996598010E+03   -0.97202E-06   -0.22131E-05   598   0.214E-02
  36 F= -.13499660E+03 E0= -.13499156E+03  d E =-.738653E-04
quench:  g(F)=  0.000E+00 g(S)=  0.000E+00 dE (1.order)= 0.000E+00
 bond charge predicted
       N       E                     dE             d eps       ncg     rms          rms(c)
DAV:   1    -0.134996626805E+03   -0.29767E-04   -0.13295E-02  1035   0.198E-01    0.372E-02
RMM:   2    -0.134996678648E+03   -0.51843E-04   -0.64342E-04  1280   0.475E-02    0.238E-02
RMM:   3    -0.134996678832E+03   -0.18425E-06   -0.53738E-05   718   0.238E-02
  37 F= -.13499668E+03 E0= -.13499162E+03  d E =-.808219E-04
quench:  g(F)=  0.000E+00 g(S)=  0.000E+00 dE (1.order)= 0.000E+00
 bond charge predicted
       N       E                     dE             d eps       ncg     rms          rms(c)
DAV:   1    -0.134996678893E+03   -0.24489E-06   -0.18550E-02  1215   0.289E-01    0.424E-02
RMM:   2    -0.134996766201E+03   -0.87308E-04   -0.91755E-04  1287   0.554E-02    0.287E-02
RMM:   3    -0.134996767217E+03   -0.10156E-05   -0.70100E-05   807   0.228E-02
  38 F= -.13499677E+03 E0= -.13499177E+03  d E =-.883843E-04
quench:  g(F)=  0.000E+00 g(S)=  0.000E+00 dE (1.order)= 0.000E+00
 bond charge predicted
       N       E                     dE             d eps       ncg     rms          rms(c)
DAV:   1    -0.134996737174E+03    0.29027E-04   -0.20027E-02  1224   0.314E-01    0.478E-02
RMM:   2    -0.134996827380E+03   -0.90206E-04   -0.11160E-03  1248   0.584E-02    0.298E-02
RMM:   3    -0.134996813426E+03    0.13954E-04   -0.69895E-05   743   0.221E-02    0.234E-02
RMM:   4    -0.134996815036E+03   -0.16096E-05   -0.25325E-05   618   0.211E-02
  39 F= -.13499682E+03 E0= -.13499175E+03  d E =-.478192E-04
quench:  g(F)=  0.000E+00 g(S)=  0.000E+00 dE (1.order)= 0.000E+00
 bond charge predicted
       N       E                     dE             d eps       ncg     rms          rms(c)
DAV:   1    -0.134996842818E+03   -0.29392E-04   -0.16574E-02  1197   0.263E-01    0.420E-02
RMM:   2    -0.134997013626E+03   -0.17081E-03   -0.84152E-04  1172   0.569E-02    0.460E-02
RMM:   3    -0.134996971605E+03    0.42021E-04   -0.83677E-05   891   0.310E-02    0.313E-02
RMM:   4    -0.134996960691E+03    0.10914E-04   -0.26162E-05   594   0.201E-02    0.148E-02
RMM:   5    -0.134996962828E+03   -0.21372E-05   -0.12427E-05   559   0.149E-02
  40 F= -.13499696E+03 E0= -.13499191E+03  d E =-.147793E-03
quench:  g(F)=  0.000E+00 g(S)=  0.000E+00 dE (1.order)= 0.000E+00
 bond charge predicted
       N       E                     dE             d eps       ncg     rms          rms(c)
DAV:   1    -0.134996998816E+03   -0.38125E-04   -0.11593E-02  1071   0.188E-01    0.350E-02
RMM:   2    -0.134997043248E+03   -0.44432E-04   -0.57601E-04  1270   0.426E-02    0.201E-02
RMM:   3    -0.134997036878E+03    0.63701E-05   -0.32800E-05   631   0.149E-02
  41 F= -.13499704E+03 E0= -.13499198E+03  d E =-.740496E-04
quench:  g(F)=  0.000E+00 g(S)=  0.000E+00 dE (1.order)= 0.000E+00
 bond charge predicted
       N       E                     dE             d eps       ncg     rms          rms(c)
DAV:   1    -0.134997061496E+03   -0.18248E-04   -0.15900E-02  1179   0.254E-01    0.405E-02
RMM:   2    -0.134997160278E+03   -0.98783E-04   -0.77730E-04  1269   0.554E-02    0.420E-02
RMM:   3    -0.134997121961E+03    0.38317E-04   -0.80473E-05   910   0.287E-02    0.299E-02
RMM:   4    -0.134997108826E+03    0.13135E-04   -0.18050E-05   572   0.182E-02    0.105E-02
RMM:   5    -0.134997110591E+03   -0.17651E-05   -0.73690E-06   545   0.117E-02
  42 F= -.13499711E+03 E0= -.13499205E+03  d E =-.737133E-04
quench:  g(F)=  0.000E+00 g(S)=  0.000E+00 dE (1.order)= 0.000E+00
 bond charge predicted
       N       E                     dE             d eps       ncg     rms          rms(c)
DAV:   1    -0.134997123835E+03   -0.15009E-04   -0.22648E-02  1008   0.248E-01    0.482E-02
RMM:   2    -0.134997202190E+03   -0.78355E-04   -0.10416E-03  1426   0.578E-02    0.268E-02
RMM:   3    -0.134997119233E+03    0.82957E-04   -0.57311E-05   698   0.169E-02    0.186E-02
RMM:   4    -0.134997120792E+03   -0.15582E-05   -0.28789E-05   630   0.235E-02
  43 F= -.13499712E+03 E0= -.13499206E+03  d E =-.102003E-04
quench:  g(F)=  0.000E+00 g(S)=  0.000E+00 dE (1.order)= 0.000E+00
 bond charge predicted
       N       E                     dE             d eps       ncg     rms          rms(c)
DAV:   1    -0.134997120041E+03   -0.80752E-06   -0.23127E-02  1053   0.261E-01    0.474E-02
RMM:   2    -0.134997287959E+03   -0.16792E-03   -0.11272E-03  1347   0.593E-02    0.367E-02
RMM:   3    -0.134997276400E+03    0.11560E-04   -0.82931E-05   844   0.287E-02    0.366E-02
RMM:   4    -0.134997257677E+03    0.18723E-04   -0.32549E-05   620   0.244E-02    0.165E-02
RMM:   5    -0.134997258808E+03   -0.11318E-05   -0.12199E-05   557   0.147E-02
  44 F= -.13499726E+03 E0= -.13499219E+03  d E =-.138017E-03
quench:  g(F)=  0.000E+00 g(S)=  0.000E+00 dE (1.order)= 0.000E+00
 bond charge predicted
       N       E                     dE             d eps       ncg     rms          rms(c)
DAV:   1    -0.134997300785E+03   -0.43108E-04   -0.10820E-02  1116   0.183E-01    0.348E-02
RMM:   2    -0.134997345539E+03   -0.44754E-04   -0.57171E-04  1248   0.411E-02    0.220E-02
RMM:   3    -0.134997339813E+03    0.57259E-05   -0.33982E-05   635   0.150E-02
  45 F= -.13499734E+03 E0= -.13499226E+03  d E =-.810051E-04
quench:  g(F)=  0.000E+00 g(S)=  0.000E+00 dE (1.order)= 0.000E+00
 bond charge predicted
       N       E                     dE             d eps       ncg     rms          rms(c)
DAV:   1    -0.134997365320E+03   -0.19781E-04   -0.11081E-02  1269   0.237E-01    0.339E-02
RMM:   2    -0.134997441870E+03   -0.76549E-04   -0.53707E-04  1165   0.483E-02    0.379E-02
RMM:   3    -0.134997405435E+03    0.36434E-04   -0.56585E-05   767   0.240E-02    0.238E-02
RMM:   4    -0.134997398772E+03    0.66636E-05   -0.15367E-05   560   0.187E-02
  46 F= -.13499740E+03 E0= -.13499232E+03  d E =-.589581E-04
quench:  g(F)=  0.000E+00 g(S)=  0.000E+00 dE (1.order)= 0.000E+00
 bond charge predicted
       N       E                     dE             d eps       ncg     rms          rms(c)
DAV:   1    -0.134997425453E+03   -0.20018E-04   -0.20674E-02  1008   0.233E-01    0.454E-02
RMM:   2    -0.134997484766E+03   -0.59313E-04   -0.80205E-04  1379   0.525E-02    0.231E-02
RMM:   3    -0.134997478421E+03    0.63446E-05   -0.42613E-05   662   0.170E-02
  47 F= -.13499748E+03 E0= -.13499242E+03  d E =-.796497E-04
quench:  g(F)=  0.000E+00 g(S)=  0.000E+00 dE (1.order)= 0.000E+00
 bond charge predicted
       N       E                     dE             d eps       ncg     rms          rms(c)
DAV:   1    -0.134997455895E+03    0.28870E-04   -0.30660E-02  1053   0.317E-01    0.562E-02
RMM:   2    -0.134997607353E+03   -0.15146E-03   -0.14597E-03  1372   0.704E-02    0.497E-02
RMM:   3    -0.134997577128E+03    0.30225E-04   -0.14599E-04   993   0.380E-02    0.443E-02
RMM:   4    -0.134997546857E+03    0.30271E-04   -0.40254E-05   665   0.251E-02    0.187E-02
RMM:   5    -0.134997549746E+03   -0.28894E-05   -0.20457E-05   566   0.206E-02
  48 F= -.13499755E+03 E0= -.13499248E+03  d E =-.713253E-04
quench:  g(F)=  0.000E+00 g(S)=  0.000E+00 dE (1.order)= 0.000E+00
 bond charge predicted
       N       E                     dE             d eps       ncg     rms          rms(c)
DAV:   1    -0.134997572164E+03   -0.25307E-04   -0.18279E-02  1053   0.228E-01    0.460E-02
RMM:   2    -0.134997646686E+03   -0.74522E-04   -0.98202E-04  1345   0.522E-02    0.296E-02
RMM:   3    -0.134997560544E+03    0.86142E-04   -0.60035E-05   690   0.171E-02    0.201E-02
RMM:   4    -0.134997563698E+03   -0.31534E-05   -0.31813E-05   649   0.245E-02
  49 F= -.13499756E+03 E0= -.13499251E+03  d E =-.139513E-04
quench:  g(F)=  0.000E+00 g(S)=  0.000E+00 dE (1.order)= 0.000E+00
 bond charge predicted
       N       E                     dE             d eps       ncg     rms          rms(c)
DAV:   1    -0.134997603648E+03   -0.43104E-04   -0.97850E-03  1260   0.207E-01    0.305E-02
RMM:   2    -0.134997649902E+03   -0.46254E-04   -0.46075E-04  1124   0.404E-02    0.261E-02
RMM:   3    -0.134997640833E+03    0.90691E-05   -0.35665E-05   652   0.201E-02
  50 F= -.13499764E+03 E0= -.13499252E+03  d E =-.771353E-04
quench:  g(F)=  0.000E+00 g(S)=  0.000E+00 dE (1.order)= 0.000E+00
 bond charge predicted
       N       E                     dE             d eps       ncg     rms          rms(c)
DAV:   1    -0.134997657441E+03   -0.75394E-05   -0.13518E-02  1170   0.236E-01    0.384E-02
RMM:   2    -0.134997705710E+03   -0.48268E-04   -0.61920E-04  1267   0.461E-02    0.193E-02
RMM:   3    -0.134997701213E+03    0.44964E-05   -0.34390E-05   648   0.187E-02
  51 F= -.13499770E+03 E0= -.13499264E+03  d E =-.603802E-04
quench:  g(F)=  0.000E+00 g(S)=  0.000E+00 dE (1.order)= 0.000E+00
 bond charge predicted
       N       E                     dE             d eps       ncg     rms          rms(c)
DAV:   1    -0.134997696424E+03    0.92853E-05   -0.25258E-02  1062   0.293E-01    0.504E-02
RMM:   2    -0.134997859504E+03   -0.16308E-03   -0.11384E-03  1357   0.638E-02    0.302E-02
RMM:   3    -0.134997870773E+03   -0.11269E-04   -0.88670E-05   926   0.282E-02    0.393E-02
RMM:   4    -0.134997838488E+03    0.32286E-04   -0.27066E-05   610   0.227E-02    0.160E-02
RMM:   5    -0.134997840505E+03   -0.20177E-05   -0.13971E-05   559   0.159E-02
  52 F= -.13499784E+03 E0= -.13499275E+03  d E =-.139292E-03
quench:  g(F)=  0.000E+00 g(S)=  0.000E+00 dE (1.order)= 0.000E+00
 bond charge predicted
       N       E                     dE             d eps       ncg     rms          rms(c)
DAV:   1    -0.134997829189E+03    0.92989E-05   -0.24896E-02  1035   0.254E-01    0.519E-02
RMM:   2    -0.134997920982E+03   -0.91793E-04   -0.12243E-03  1401   0.600E-02    0.318E-02
RMM:   3    -0.134997833192E+03    0.87790E-04   -0.73146E-05   725   0.185E-02    0.211E-02
RMM:   4    -0.134997835447E+03   -0.22546E-05   -0.34806E-05   666   0.255E-02
  53 F= -.13499784E+03 E0= -.13499275E+03  d E =0.505888E-05
quench:  g(F)=  0.000E+00 g(S)=  0.000E+00 dE (1.order)= 0.000E+00
 bond charge predicted
       N       E                     dE             d eps       ncg     rms          rms(c)
DAV:   1    -0.134997876679E+03   -0.43487E-04   -0.13143E-02  1188   0.218E-01    0.365E-02
RMM:   2    -0.134998016060E+03   -0.13938E-03   -0.66486E-04  1161   0.482E-02    0.355E-02
RMM:   3    -0.134997995525E+03    0.20535E-04   -0.51794E-05   724   0.241E-02    0.284E-02
RMM:   4    -0.134997984570E+03    0.10955E-04   -0.22013E-05   581   0.206E-02    0.118E-02
RMM:   5    -0.134997985962E+03   -0.13921E-05   -0.81332E-06   556   0.111E-02
  54 F= -.13499799E+03 E0= -.13499289E+03  d E =-.150516E-03
quench:  g(F)=  0.000E+00 g(S)=  0.000E+00 dE (1.order)= 0.000E+00
 bond charge predicted
       N       E                     dE             d eps       ncg     rms          rms(c)
DAV:   1    -0.134998017452E+03   -0.32882E-04   -0.11441E-02  1035   0.182E-01    0.336E-02
RMM:   2    -0.134998054908E+03   -0.37456E-04   -0.49595E-04  1270   0.414E-02    0.170E-02
RMM:   3    -0.134998050496E+03    0.44120E-05   -0.25134E-05   600   0.139E-02
  55 F= -.13499805E+03 E0= -.13499296E+03  d E =-.645342E-04
quench:  g(F)=  0.000E+00 g(S)=  0.000E+00 dE (1.order)= 0.000E+00
 bond charge predicted
       N       E                     dE             d eps       ncg     rms          rms(c)
DAV:   1    -0.134998059194E+03   -0.42855E-05   -0.22030E-02  1035   0.269E-01    0.466E-02
RMM:   2    -0.134998157084E+03   -0.97891E-04   -0.97790E-04  1367   0.605E-02    0.365E-02
RMM:   3    -0.134998149632E+03    0.74524E-05   -0.97074E-05   945   0.303E-02
  56 F= -.13499815E+03 E0= -.13499310E+03  d E =-.991356E-04
quench:  g(F)=  0.000E+00 g(S)=  0.000E+00 dE (1.order)= 0.000E+00
 bond charge predicted
       N       E                     dE             d eps       ncg     rms          rms(c)
DAV:   1    -0.134998074702E+03    0.82383E-04   -0.29914E-02  1179   0.356E-01    0.579E-02
RMM:   2    -0.134998195538E+03   -0.12084E-03   -0.15406E-03  1278   0.689E-02    0.343E-02
RMM:   3    -0.134998113892E+03    0.81646E-04   -0.97063E-05   830   0.249E-02    0.293E-02
RMM:   4    -0.134998116302E+03   -0.24107E-05   -0.37168E-05   680   0.252E-02
  57 F= -.13499812E+03 E0= -.13499300E+03  d E =0.333296E-04
quench:  g(F)=  0.000E+00 g(S)=  0.000E+00 dE (1.order)= 0.000E+00
 bond charge predicted
       N       E                     dE             d eps       ncg     rms          rms(c)
DAV:   1    -0.134998121847E+03   -0.79552E-05   -0.21512E-02  1197   0.291E-01    0.468E-02
RMM:   2    -0.134998286065E+03   -0.16422E-03   -0.10815E-03  1261   0.572E-02    0.376E-02
RMM:   3    -0.134998268788E+03    0.17278E-04   -0.84377E-05   827   0.290E-02    0.341E-02
RMM:   4    -0.134998258031E+03    0.10757E-04   -0.33525E-05   628   0.254E-02    0.181E-02
RMM:   5    -0.134998260019E+03   -0.19884E-05   -0.15304E-05   571   0.163E-02
  58 F= -.13499826E+03 E0= -.13499317E+03  d E =-.143717E-03
quench:  g(F)=  0.000E+00 g(S)=  0.000E+00 dE (1.order)= 0.000E+00
 bond charge predicted
       N       E                     dE             d eps       ncg     rms          rms(c)
DAV:   1    -0.134998295824E+03   -0.37793E-04   -0.93009E-03  1143   0.182E-01    0.314E-02
RMM:   2    -0.134998332912E+03   -0.37089E-04   -0.46754E-04  1176   0.390E-02    0.191E-02
RMM:   3    -0.134998332227E+03    0.68508E-06   -0.29914E-05   623   0.158E-02
  59 F= -.13499833E+03 E0= -.13499322E+03  d E =-.722080E-04
quench:  g(F)=  0.000E+00 g(S)=  0.000E+00 dE (1.order)= 0.000E+00
 bond charge predicted
       N       E                     dE             d eps       ncg     rms          rms(c)
DAV:   1    -0.134998344488E+03   -0.11576E-04   -0.14984E-02  1170   0.256E-01    0.387E-02
RMM:   2    -0.134998409506E+03   -0.65018E-04   -0.68729E-04  1286   0.498E-02    0.256E-02
RMM:   3    -0.134998415412E+03   -0.59058E-05   -0.61794E-05   750   0.223E-02
  60 F= -.13499842E+03 E0= -.13499336E+03  d E =-.831843E-04
quench:  g(F)=  0.000E+00 g(S)=  0.000E+00 dE (1.order)= 0.000E+00
 bond charge predicted
       N       E                     dE             d eps       ncg     rms          rms(c)
DAV:   1    -0.134998374973E+03    0.34533E-04   -0.28353E-02  1161   0.346E-01    0.558E-02
RMM:   2    -0.134998479050E+03   -0.10408E-03   -0.13444E-03  1315   0.686E-02    0.329E-02
RMM:   3    -0.134998478791E+03    0.25863E-06   -0.10733E-04   869   0.279E-02    0.353E-02
RMM:   4    -0.134998465257E+03    0.13534E-04   -0.34071E-05   648   0.228E-02    0.205E-02
RMM:   5    -0.134998462144E+03    0.31135E-05   -0.18202E-05   564   0.192E-02
  61 F= -.13499846E+03 E0= -.13499338E+03  d E =-.467320E-04
quench:  g(F)=  0.000E+00 g(S)=  0.000E+00 dE (1.order)= 0.000E+00
 bond charge predicted
       N       E                     dE             d eps       ncg     rms          rms(c)
DAV:   1    -0.134998401307E+03    0.63950E-04   -0.38932E-02  1008   0.328E-01    0.604E-02
RMM:   2    -0.134998545126E+03   -0.14382E-03   -0.18045E-03  1417   0.752E-02    0.420E-02
RMM:   3    -0.134998527575E+03    0.17551E-04   -0.12468E-04   916   0.344E-02    0.390E-02
RMM:   4    -0.134998517382E+03    0.10193E-04   -0.47613E-05   728   0.285E-02    0.233E-02
RMM:   5    -0.134998516673E+03    0.70892E-06   -0.18189E-05   578   0.175E-02
  62 F= -.13499852E+03 E0= -.13499341E+03  d E =-.545297E-04
quench:  g(F)=  0.000E+00 g(S)=  0.000E+00 dE (1.order)= 0.000E+00
 bond charge predicted
       N       E                     dE             d eps       ncg     rms          rms(c)
DAV:   1    -0.134998558433E+03   -0.41050E-04   -0.15782E-02  1134   0.223E-01    0.424E-02
RMM:   2    -0.134998624715E+03   -0.66282E-04   -0.85957E-04  1292   0.485E-02    0.278E-02
RMM:   3    -0.134998611594E+03    0.13121E-04   -0.50866E-05   675   0.164E-02    0.208E-02
RMM:   4    -0.134998617223E+03   -0.56292E-05   -0.26347E-05   622   0.226E-02
  63 F= -.13499862E+03 E0= -.13499354E+03  d E =-.100550E-03
quench:  g(F)=  0.000E+00 g(S)=  0.000E+00 dE (1.order)= 0.000E+00
 bond charge predicted
       N       E                     dE             d eps       ncg     rms          rms(c)
DAV:   1    -0.134998634767E+03   -0.23173E-04   -0.11415E-02  1233   0.228E-01    0.326E-02
RMM:   2    -0.134998677796E+03   -0.43028E-04   -0.52576E-04  1178   0.434E-02    0.194E-02
RMM:   3    -0.134998673837E+03    0.39591E-05   -0.34241E-05   659   0.184E-02
  64 F= -.13499867E+03 E0= -.13499353E+03  d E =-.566135E-04
quench:  g(F)=  0.000E+00 g(S)=  0.000E+00 dE (1.order)= 0.000E+00
 bond charge predicted
       N       E                     dE             d eps       ncg     rms          rms(c)
DAV:   1    -0.134998677479E+03    0.31701E-06   -0.21054E-02  1098   0.272E-01    0.476E-02
RMM:   2    -0.134998755854E+03   -0.78375E-04   -0.91130E-04  1321   0.600E-02    0.315E-02
RMM:   3    -0.134998710593E+03    0.45261E-04   -0.10124E-04   944   0.313E-02    0.453E-02
RMM:   4    -0.134998664659E+03    0.45934E-04   -0.28710E-05   603   0.238E-02    0.126E-02
RMM:   5    -0.134998666881E+03   -0.22221E-05   -0.13645E-05   547   0.167E-02
  65 F= -.13499867E+03 E0= -.13499356E+03  d E =0.695606E-05
quench:  g(F)=  0.000E+00 g(S)=  0.000E+00 dE (1.order)= 0.000E+00
 bond charge predicted
       N       E                     dE             d eps       ncg     rms          rms(c)
DAV:   1    -0.134998625987E+03    0.38671E-04   -0.35681E-02  1044   0.318E-01    0.562E-02
RMM:   2    -0.134998816370E+03   -0.19038E-03   -0.15584E-03  1459   0.718E-02    0.312E-02
RMM:   3    -0.134998797892E+03    0.18478E-04   -0.86549E-05   770   0.232E-02    0.250E-02
RMM:   4    -0.134998800167E+03   -0.22749E-05   -0.41527E-05   742   0.284E-02
  66 F= -.13499880E+03 E0= -.13499368E+03  d E =-.133286E-03
quench:  g(F)=  0.000E+00 g(S)=  0.000E+00 dE (1.order)= 0.000E+00
 bond charge predicted
       N       E                     dE             d eps       ncg     rms          rms(c)
DAV:   1    -0.134998786084E+03    0.11808E-04   -0.24547E-02  1044   0.255E-01    0.521E-02
RMM:   2    -0.134998879849E+03   -0.93765E-04   -0.12394E-03  1391   0.597E-02    0.338E-02
RMM:   3    -0.134998794183E+03    0.85666E-04   -0.83454E-05   743   0.233E-02    0.271E-02
RMM:   4    -0.134998795391E+03   -0.12085E-05   -0.44293E-05   737   0.292E-02
  67 F= -.13499880E+03 E0= -.13499370E+03  d E =0.477506E-05
quench:  g(F)=  0.000E+00 g(S)=  0.000E+00 dE (1.order)= 0.000E+00
 bond charge predicted
       N       E                     dE             d eps       ncg     rms          rms(c)
DAV:   1    -0.134998837651E+03   -0.43468E-04   -0.11337E-02  1269   0.226E-01    0.337E-02
RMM:   2    -0.134998963699E+03   -0.12605E-03   -0.54121E-04  1142   0.452E-02    0.335E-02
RMM:   3    -0.134998946440E+03    0.17259E-04   -0.47498E-05   711   0.227E-02    0.252E-02
RMM:   4    -0.134998937798E+03    0.86419E-05   -0.17990E-05   573   0.190E-02
  68 F= -.13499894E+03 E0= -.13499381E+03  d E =-.142406E-03
quench:  g(F)=  0.000E+00 g(S)=  0.000E+00 dE (1.order)= 0.000E+00
 bond charge predicted
       N       E                     dE             d eps       ncg     rms          rms(c)
DAV:   1    -0.134998963248E+03   -0.16809E-04   -0.15437E-02  1044   0.220E-01    0.396E-02
RMM:   2    -0.134999010908E+03   -0.47660E-04   -0.62392E-04  1347   0.489E-02    0.221E-02
RMM:   3    -0.134999014194E+03   -0.32861E-05   -0.60848E-05   768   0.269E-02
  69 F= -.13499901E+03 E0= -.13499390E+03  d E =-.763962E-04
quench:  g(F)=  0.000E+00 g(S)=  0.000E+00 dE (1.order)= 0.000E+00
 bond charge predicted
       N       E                     dE             d eps       ncg     rms          rms(c)
DAV:   1    -0.134998992126E+03    0.18782E-04   -0.31861E-02  1071   0.337E-01    0.568E-02
RMM:   2    -0.134999109597E+03   -0.11747E-03   -0.14026E-03  1387   0.711E-02    0.336E-02
RMM:   3    -0.134999132573E+03   -0.22975E-04   -0.12607E-04  1002   0.284E-02    0.480E-02
RMM:   4    -0.134999082817E+03    0.49756E-04   -0.39087E-05   695   0.256E-02    0.164E-02
RMM:   5    -0.134999086022E+03   -0.32058E-05   -0.18922E-05   572   0.190E-02
  70 F= -.13499909E+03 E0= -.13499395E+03  d E =-.718283E-04
quench:  g(F)=  0.000E+00 g(S)=  0.000E+00 dE (1.order)= 0.000E+00
 bond charge predicted
       N       E                     dE             d eps       ncg     rms          rms(c)
DAV:   1    -0.134999021995E+03    0.60822E-04   -0.43296E-02  1008   0.333E-01    0.662E-02
RMM:   2    -0.134999160987E+03   -0.13899E-03   -0.19091E-03  1486   0.764E-02    0.382E-02
RMM:   3    -0.134999070348E+03    0.90638E-04   -0.11360E-04   794   0.216E-02    0.261E-02
RMM:   4    -0.134999082730E+03   -0.12381E-04   -0.48333E-05   783   0.290E-02    0.302E-02
RMM:   5    -0.134999067997E+03    0.14733E-04   -0.20639E-05   578   0.203E-02    0.139E-02
RMM:   6    -0.134999068065E+03   -0.67783E-07   -0.12197E-05   553   0.152E-02
  71 F= -.13499907E+03 E0= -.13499395E+03  d E =0.179576E-04
quench:  g(F)=  0.000E+00 g(S)=  0.000E+00 dE (1.order)= 0.000E+00
 bond charge predicted
       N       E                     dE             d eps       ncg     rms          rms(c)
DAV:   1    -0.134999077997E+03   -0.99999E-05   -0.26346E-02  1026   0.255E-01    0.516E-02
RMM:   2    -0.134999248429E+03   -0.17043E-03   -0.12873E-03  1372   0.574E-02    0.370E-02
RMM:   3    -0.134999226862E+03    0.21567E-04   -0.79056E-05   742   0.223E-02    0.281E-02
RMM:   4    -0.134999233013E+03   -0.61509E-05   -0.45863E-05   758   0.278E-02
  72 F= -.13499923E+03 E0= -.13499407E+03  d E =-.164948E-03
quench:  g(F)=  0.000E+00 g(S)=  0.000E+00 dE (1.order)= 0.000E+00
 bond charge predicted
       N       E                     dE             d eps       ncg     rms          rms(c)
DAV:   1    -0.134999269214E+03   -0.42351E-04   -0.76151E-03  1341   0.212E-01    0.293E-02
RMM:   2    -0.134999313557E+03   -0.44343E-04   -0.38254E-04  1104   0.430E-02    0.326E-02
RMM:   3    -0.134999229012E+03    0.84545E-04   -0.45737E-05   701   0.225E-02    0.218E-02
RMM:   4    -0.134999223241E+03    0.57705E-05   -0.16045E-05   565   0.181E-02
  73 F= -.13499922E+03 E0= -.13499410E+03  d E =0.977192E-05
quench:  g(F)=  0.000E+00 g(S)=  0.000E+00 dE (1.order)= 0.000E+00
 bond charge predicted
       N       E                     dE             d eps       ncg     rms          rms(c)
DAV:   1    -0.134999243022E+03   -0.14011E-04   -0.15080E-02  1053   0.219E-01    0.380E-02
RMM:   2    -0.134999289697E+03   -0.46675E-04   -0.59397E-04  1344   0.470E-02    0.187E-02
RMM:   3    -0.134999297493E+03   -0.77958E-05   -0.36737E-05   678   0.192E-02
  74 F= -.13499930E+03 E0= -.13499419E+03  d E =-.742516E-04
quench:  g(F)=  0.000E+00 g(S)=  0.000E+00 dE (1.order)= 0.000E+00
 bond charge predicted
       N       E                     dE             d eps       ncg     rms          rms(c)
DAV:   1    -0.134999278038E+03    0.11659E-04   -0.33837E-02  1107   0.352E-01    0.592E-02
RMM:   2    -0.134999383992E+03   -0.10595E-03   -0.14033E-03  1340   0.734E-02    0.304E-02
RMM:   3    -0.134999386128E+03   -0.21363E-05   -0.10958E-04   929   0.336E-02    0.382E-02
RMM:   4    -0.134999368803E+03    0.17325E-04   -0.40457E-05   689   0.277E-02    0.165E-02
RMM:   5    -0.134999373912E+03   -0.51085E-05   -0.16961E-05   570   0.168E-02
  75 F= -.13499937E+03 E0= -.13499424E+03  d E =-.764188E-04
quench:  g(F)=  0.000E+00 g(S)=  0.000E+00 dE (1.order)= 0.000E+00
 bond charge predicted
       N       E                     dE             d eps       ncg     rms          rms(c)
DAV:   1    -0.134999302275E+03    0.66528E-04   -0.60633E-02  1008   0.422E-01    0.724E-02
RMM:   2    -0.134999572344E+03   -0.27007E-03   -0.25084E-03  1479   0.934E-02    0.341E-02
RMM:   3    -0.134999575467E+03   -0.31228E-05   -0.14621E-04   961   0.237E-02    0.413E-02
RMM:   4    -0.134999541842E+03    0.33625E-04   -0.48228E-05   753   0.257E-02    0.227E-02
RMM:   5    -0.134999541649E+03    0.19300E-06   -0.21135E-05   564   0.208E-02
  76 F= -.13499954E+03 E0= -.13499440E+03  d E =-.167738E-03
quench:  g(F)=  0.000E+00 g(S)=  0.000E+00 dE (1.order)= 0.000E+00
 bond charge predicted
       N       E                     dE             d eps       ncg     rms          rms(c)
DAV:   1    -0.134999380136E+03    0.16171E-03   -0.54019E-02  1035   0.364E-01    0.775E-02
RMM:   2    -0.134999576137E+03   -0.19600E-03   -0.26776E-03  1502   0.873E-02    0.495E-02
RMM:   3    -0.134999463998E+03    0.11214E-03   -0.16629E-04   873   0.248E-02    0.317E-02
RMM:   4    -0.134999465352E+03   -0.13535E-05   -0.60919E-05   804   0.308E-02
  77 F= -.13499947E+03 E0= -.13499434E+03  d E =0.762976E-04
quench:  g(F)=  0.000E+00 g(S)=  0.000E+00 dE (1.order)= 0.000E+00
 bond charge predicted
       N       E                     dE             d eps       ncg     rms          rms(c)
DAV:   1    -0.134999579921E+03   -0.11592E-03   -0.22830E-02  1143   0.263E-01    0.495E-02
RMM:   2    -0.134999736494E+03   -0.15657E-03   -0.10748E-03  1247   0.552E-02    0.344E-02
RMM:   3    -0.134999730399E+03    0.60951E-05   -0.73336E-05   733   0.236E-02
  78 F= -.13499973E+03 E0= -.13499462E+03  d E =-.265047E-03
quench:  g(F)=  0.000E+00 g(S)=  0.000E+00 dE (1.order)= 0.000E+00
 bond charge predicted
       N       E                     dE             d eps       ncg     rms          rms(c)
DAV:   1    -0.134999742671E+03   -0.61768E-05   -0.56244E-03  1422   0.263E-01    0.276E-02
RMM:   2    -0.134999801593E+03   -0.58921E-04   -0.29586E-04  1092   0.442E-02    0.365E-02
RMM:   3    -0.134999763997E+03    0.37595E-04   -0.40561E-05   687   0.215E-02    0.179E-02
RMM:   4    -0.134999762528E+03    0.14692E-05   -0.10543E-05   549   0.162E-02
  79 F= -.13499976E+03 E0= -.13499462E+03  d E =-.321289E-04
quench:  g(F)=  0.000E+00 g(S)=  0.000E+00 dE (1.order)= 0.000E+00
 bond charge predicted
       N       E                     dE             d eps       ncg     rms          rms(c)
DAV:   1    -0.134999788399E+03   -0.24401E-04   -0.16398E-02  1044   0.213E-01    0.391E-02
RMM:   2    -0.134999834508E+03   -0.46109E-04   -0.61125E-04  1359   0.460E-02    0.187E-02
RMM:   3    -0.134999841563E+03   -0.70551E-05   -0.34286E-05   663   0.171E-02
  80 F= -.13499984E+03 E0= -.13499473E+03  d E =-.790349E-04
quench:  g(F)=  0.000E+00 g(S)=  0.000E+00 dE (1.order)= 0.000E+00
 bond charge predicted
       N       E                     dE             d eps       ncg     rms          rms(c)
DAV:   1    -0.134999812114E+03    0.22394E-04   -0.33186E-02  1107   0.345E-01    0.586E-02
RMM:   2    -0.134999922999E+03   -0.11089E-03   -0.14205E-03  1392   0.717E-02    0.297E-02
RMM:   3    -0.134999941158E+03   -0.18158E-04   -0.11153E-04   907   0.286E-02    0.409E-02
RMM:   4    -0.134999839507E+03    0.10165E-03   -0.40386E-05   661   0.263E-02    0.184E-02
RMM:   5    -0.134999840755E+03   -0.12474E-05   -0.16950E-05   563   0.176E-02
  81 F= -.13499984E+03 E0= -.13499472E+03  d E =0.808337E-06
quench:  g(F)=  0.000E+00 g(S)=  0.000E+00 dE (1.order)= 0.000E+00
 bond charge predicted
       N       E                     dE             d eps       ncg     rms          rms(c)
DAV:   1    -0.134999762015E+03    0.77492E-04   -0.45026E-02  1026   0.348E-01    0.636E-02
RMM:   2    -0.134999989572E+03   -0.22756E-03   -0.19752E-03  1461   0.762E-02    0.400E-02
RMM:   3    -0.134999970917E+03    0.18655E-04   -0.12676E-04   879   0.299E-02    0.383E-02
RMM:   4    -0.134999962351E+03    0.85658E-05   -0.54088E-05   801   0.305E-02
  82 F= -.13499996E+03 E0= -.13499479E+03  d E =-.121596E-03
quench:  g(F)=  0.000E+00 g(S)=  0.000E+00 dE (1.order)= 0.000E+00
 bond charge predicted
       N       E                     dE             d eps       ncg     rms          rms(c)
DAV:   1    -0.135000028578E+03   -0.57662E-04   -0.13586E-02  1233   0.238E-01    0.409E-02
RMM:   2    -0.135000103090E+03   -0.74512E-04   -0.74220E-04  1192   0.533E-02    0.410E-02
RMM:   3    -0.135000013474E+03    0.89616E-04   -0.75953E-05   864   0.282E-02    0.294E-02
RMM:   4    -0.135000003805E+03    0.96686E-05   -0.26220E-05   605   0.203E-02
  83 F= -.13500000E+03 E0= -.13499487E+03  d E =-.414543E-04
quench:  g(F)=  0.000E+00 g(S)=  0.000E+00 dE (1.order)= 0.000E+00
 bond charge predicted
       N       E                     dE             d eps       ncg     rms          rms(c)
DAV:   1    -0.135000031823E+03   -0.18349E-04   -0.88525E-03  1251   0.201E-01    0.300E-02
RMM:   2    -0.135000068302E+03   -0.36479E-04   -0.36438E-04  1072   0.411E-02    0.266E-02
RMM:   3    -0.135000062154E+03    0.61476E-05   -0.49138E-05   733   0.254E-02
  84 F= -.13500006E+03 E0= -.13499494E+03  d E =-.583487E-04
quench:  g(F)=  0.000E+00 g(S)=  0.000E+00 dE (1.order)= 0.000E+00
 bond charge predicted
       N       E                     dE             d eps       ncg     rms          rms(c)
DAV:   1    -0.135000069141E+03   -0.83973E-06   -0.20363E-02  1107   0.272E-01    0.472E-02
RMM:   2    -0.135000141359E+03   -0.72218E-04   -0.87345E-04  1255   0.601E-02    0.314E-02
RMM:   3    -0.135000143499E+03   -0.21399E-05   -0.97002E-05   925   0.332E-02
  85 F= -.13500014E+03 E0= -.13499495E+03  d E =-.813450E-04
quench:  g(F)=  0.000E+00 g(S)=  0.000E+00 dE (1.order)= 0.000E+00
 bond charge predicted
       N       E                     dE             d eps       ncg     rms          rms(c)
DAV:   1    -0.135000077823E+03    0.63536E-04   -0.36116E-02  1143   0.378E-01    0.619E-02
RMM:   2    -0.135000308094E+03   -0.23027E-03   -0.16549E-03  1213   0.812E-02    0.533E-02
RMM:   3    -0.135000280776E+03    0.27319E-04   -0.18215E-04  1007   0.448E-02    0.479E-02
RMM:   4    -0.135000256001E+03    0.24774E-04   -0.53357E-05   795   0.295E-02    0.237E-02
RMM:   5    -0.135000257562E+03   -0.15605E-05   -0.26593E-05   615   0.229E-02
  86 F= -.13500026E+03 E0= -.13499514E+03  d E =-.114063E-03
quench:  g(F)=  0.000E+00 g(S)=  0.000E+00 dE (1.order)= 0.000E+00
 bond charge predicted
       N       E                     dE             d eps       ncg     rms          rms(c)
DAV:   1    -0.135000231958E+03    0.24043E-04   -0.26019E-02  1062   0.266E-01    0.545E-02
RMM:   2    -0.135000338316E+03   -0.10636E-03   -0.13914E-03  1381   0.636E-02    0.369E-02
RMM:   3    -0.135000246874E+03    0.91443E-04   -0.91657E-05   775   0.244E-02    0.294E-02
RMM:   4    -0.135000247767E+03   -0.89379E-06   -0.49546E-05   762   0.305E-02
  87 F= -.13500025E+03 E0= -.13499513E+03  d E =0.979437E-05
quench:  g(F)=  0.000E+00 g(S)=  0.000E+00 dE (1.order)= 0.000E+00
 bond charge predicted
       N       E                     dE             d eps       ncg     rms          rms(c)
DAV:   1    -0.135000300558E+03   -0.53684E-04   -0.99114E-03  1350   0.227E-01    0.321E-02
RMM:   2    -0.135000367085E+03   -0.66527E-04   -0.45819E-04  1076   0.450E-02    0.396E-02
RMM:   3    -0.135000329353E+03    0.37731E-04   -0.46488E-05   711   0.227E-02    0.221E-02
RMM:   4    -0.135000325191E+03    0.41618E-05   -0.18293E-05   573   0.185E-02
  88 F= -.13500033E+03 E0= -.13499518E+03  d E =-.774240E-04
quench:  g(F)=  0.000E+00 g(S)=  0.000E+00 dE (1.order)= 0.000E+00
 bond charge predicted
       N       E                     dE             d eps       ncg     rms          rms(c)
DAV:   1    -0.135000352732E+03   -0.23378E-04   -0.12614E-02  1017   0.197E-01    0.356E-02
RMM:   2    -0.135000390035E+03   -0.37303E-04   -0.48733E-04  1249   0.434E-02    0.191E-02
RMM:   3    -0.135000393210E+03   -0.31754E-05   -0.47798E-05   714   0.248E-02
  89 F= -.13500039E+03 E0= -.13499526E+03  d E =-.680189E-04
quench:  g(F)=  0.000E+00 g(S)=  0.000E+00 dE (1.order)= 0.000E+00
 bond charge predicted
       N       E                     dE             d eps       ncg     rms          rms(c)
DAV:   1    -0.135000377633E+03    0.12402E-04   -0.29532E-02  1071   0.317E-01    0.541E-02
RMM:   2    -0.135000479740E+03   -0.10211E-03   -0.12274E-03  1379   0.669E-02    0.296E-02
RMM:   3    -0.135000502999E+03   -0.23259E-04   -0.10292E-04   951   0.267E-02    0.449E-02
RMM:   4    -0.135000458112E+03    0.44887E-04   -0.33644E-05   648   0.247E-02    0.154E-02
RMM:   5    -0.135000461351E+03   -0.32391E-05   -0.18535E-05   567   0.189E-02
  90 F= -.13500046E+03 E0= -.13499532E+03  d E =-.681411E-04
quench:  g(F)=  0.000E+00 g(S)=  0.000E+00 dE (1.order)= 0.000E+00
 bond charge predicted
       N       E                     dE             d eps       ncg     rms          rms(c)
DAV:   1    -0.135000431844E+03    0.26268E-04   -0.48465E-02  1008   0.357E-01    0.665E-02
RMM:   2    -0.135000574364E+03   -0.14252E-03   -0.19069E-03  1467   0.786E-02    0.343E-02
RMM:   3    -0.135000550700E+03    0.23664E-04   -0.96333E-05   792   0.219E-02    0.224E-02
RMM:   4    -0.135000559147E+03   -0.84478E-05   -0.40372E-05   724   0.274E-02
  91 F= -.13500056E+03 E0= -.13499542E+03  d E =-.977959E-04
quench:  g(F)=  0.000E+00 g(S)=  0.000E+00 dE (1.order)= 0.000E+00
 bond charge predicted
       N       E                     dE             d eps       ncg     rms          rms(c)
DAV:   1    -0.135000447857E+03    0.10284E-03   -0.40634E-02  1089   0.364E-01    0.639E-02
RMM:   2    -0.135000718202E+03   -0.27034E-03   -0.19514E-03  1320   0.754E-02    0.570E-02
RMM:   3    -0.135000672607E+03    0.45595E-04   -0.17348E-04  1015   0.399E-02    0.511E-02
RMM:   4    -0.135000631813E+03    0.40793E-04   -0.61306E-05   755   0.285E-02    0.209E-02
RMM:   5    -0.135000635310E+03   -0.34971E-05   -0.23344E-05   585   0.191E-02
  92 F= -.13500064E+03 E0= -.13499550E+03  d E =-.761632E-04
quench:  g(F)=  0.000E+00 g(S)=  0.000E+00 dE (1.order)= 0.000E+00
 bond charge predicted
       N       E                     dE             d eps       ncg     rms          rms(c)
DAV:   1    -0.135000725736E+03   -0.93922E-04   -0.15319E-02  1170   0.212E-01    0.431E-02
RMM:   2    -0.135000790904E+03   -0.65168E-04   -0.84136E-04  1282   0.484E-02    0.295E-02
RMM:   3    -0.135000776267E+03    0.14637E-04   -0.51442E-05   663   0.179E-02    0.213E-02
RMM:   4    -0.135000782270E+03   -0.60034E-05   -0.30423E-05   638   0.245E-02
  93 F= -.13500078E+03 E0= -.13499569E+03  d E =-.146960E-03
quench:  g(F)=  0.000E+00 g(S)=  0.000E+00 dE (1.order)= 0.000E+00
 bond charge predicted
       N       E                     dE             d eps       ncg     rms          rms(c)
DAV:   1    -0.135000795718E+03   -0.19452E-04   -0.87830E-03  1278   0.218E-01    0.282E-02
RMM:   2    -0.135000832454E+03   -0.36735E-04   -0.37744E-04  1123   0.397E-02    0.194E-02
RMM:   3    -0.135000831048E+03    0.14059E-05   -0.31827E-05   653   0.175E-02
  94 F= -.13500083E+03 E0= -.13499568E+03  d E =-.487775E-04
quench:  g(F)=  0.000E+00 g(S)=  0.000E+00 dE (1.order)= 0.000E+00
 bond charge predicted
       N       E                     dE             d eps       ncg     rms          rms(c)
DAV:   1    -0.135000823466E+03    0.89875E-05   -0.21750E-02  1107   0.279E-01    0.474E-02
RMM:   2    -0.135000892438E+03   -0.68972E-04   -0.89481E-04  1304   0.584E-02    0.251E-02
RMM:   3    -0.135000886416E+03    0.60218E-05   -0.72527E-05   843   0.291E-02
  95 F= -.13500089E+03 E0= -.13499578E+03  d E =-.553686E-04
quench:  g(F)=  0.000E+00 g(S)=  0.000E+00 dE (1.order)= 0.000E+00
 bond charge predicted
       N       E                     dE             d eps       ncg     rms          rms(c)
DAV:   1    -0.135000848936E+03    0.43502E-04   -0.39521E-02  1017   0.353E-01    0.616E-02
RMM:   2    -0.135000973428E+03   -0.12449E-03   -0.15398E-03  1358   0.764E-02    0.328E-02
RMM:   3    -0.135000986123E+03   -0.12695E-04   -0.12399E-04   975   0.320E-02    0.412E-02
RMM:   4    -0.135000957561E+03    0.28562E-04   -0.37150E-05   670   0.253E-02    0.198E-02
RMM:   5    -0.135000958730E+03   -0.11695E-05   -0.18993E-05   574   0.187E-02
  96 F= -.13500096E+03 E0= -.13499583E+03  d E =-.723139E-04
quench:  g(F)=  0.000E+00 g(S)=  0.000E+00 dE (1.order)= 0.000E+00
 bond charge predicted
       N       E                     dE             d eps       ncg     rms          rms(c)
DAV:   1    -0.135000884876E+03    0.72684E-04   -0.33928E-02  1017   0.294E-01    0.614E-02
RMM:   2    -0.135001013818E+03   -0.12894E-03   -0.17258E-03  1431   0.704E-02    0.394E-02
RMM:   3    -0.135000915192E+03    0.98626E-04   -0.10086E-04   775   0.214E-02    0.257E-02
RMM:   4    -0.135000918315E+03   -0.31232E-05   -0.47209E-05   760   0.290E-02
  97 F= -.13500092E+03 E0= -.13499578E+03  d E =0.404149E-04
quench:  g(F)=  0.000E+00 g(S)=  0.000E+00 dE (1.order)= 0.000E+00
 bond charge predicted
       N       E                     dE             d eps       ncg     rms          rms(c)
DAV:   1    -0.135000986010E+03   -0.70818E-04   -0.14357E-02  1233   0.232E-01    0.384E-02
RMM:   2    -0.135001127680E+03   -0.14167E-03   -0.66948E-04  1130   0.484E-02    0.361E-02
RMM:   3    -0.135001108953E+03    0.18727E-04   -0.55045E-05   728   0.242E-02    0.299E-02
RMM:   4    -0.135001096233E+03    0.12720E-04   -0.24066E-05   583   0.213E-02    0.121E-02
RMM:   5    -0.135001097316E+03   -0.10829E-05   -0.82006E-06   559   0.107E-02
  98 F= -.13500110E+03 E0= -.13499597E+03  d E =-.179000E-03
quench:  g(F)=  0.000E+00 g(S)=  0.000E+00 dE (1.order)= 0.000E+00
 bond charge predicted
       N       E                     dE             d eps       ncg     rms          rms(c)
DAV:   1    -0.135001121898E+03   -0.25665E-04   -0.91199E-03  1035   0.162E-01    0.291E-02
RMM:   2    -0.135001149568E+03   -0.27670E-04   -0.36321E-04  1176   0.360E-02    0.135E-02
RMM:   3    -0.135001146422E+03    0.31463E-05   -0.15361E-05   574   0.118E-02
  99 F= -.13500115E+03 E0= -.13499601E+03  d E =-.491060E-04
quench:  g(F)=  0.000E+00 g(S)=  0.000E+00 dE (1.order)= 0.000E+00
 bond charge predicted
       N       E                     dE             d eps       ncg     rms          rms(c)
DAV:   1    -0.135001144947E+03    0.46212E-05   -0.22692E-02  1017   0.265E-01    0.461E-02
RMM:   2    -0.135001235943E+03   -0.90996E-04   -0.90767E-04  1404   0.582E-02    0.329E-02
RMM:   3    -0.135001237998E+03   -0.20552E-05   -0.92209E-05   938   0.291E-02
 100 F= -.13500124E+03 E0= -.13499616E+03  d E =-.915765E-04
quench:  g(F)=  0.000E+00 g(S)=  0.000E+00 dE (1.order)= 0.000E+00
 bond charge predicted
       N       E                     dE             d eps       ncg     rms          rms(c)
DAV:   1    -0.135001159004E+03    0.76939E-04   -0.36059E-02  1152   0.382E-01    0.623E-02
RMM:   2    -0.135001288862E+03   -0.12986E-03   -0.16553E-03  1304   0.738E-02    0.367E-02
RMM:   3    -0.135001289258E+03   -0.39580E-06   -0.12551E-04   925   0.311E-02    0.385E-02
RMM:   4    -0.135001272295E+03    0.16963E-04   -0.42277E-05   681   0.258E-02    0.237E-02
RMM:   5    -0.135001265527E+03    0.67679E-05   -0.14781E-05   570   0.165E-02
 101 F= -.13500127E+03 E0= -.13499615E+03  d E =-.275291E-04
quench:  g(F)=  0.000E+00 g(S)=  0.000E+00 dE (1.order)= 0.000E+00
 bond charge predicted
       N       E                     dE             d eps       ncg     rms          rms(c)
DAV:   1    -0.135001228919E+03    0.43376E-04   -0.29815E-02  1026   0.272E-01    0.541E-02
RMM:   2    -0.135001337709E+03   -0.10879E-03   -0.13634E-03  1380   0.609E-02    0.388E-02
RMM:   3    -0.135001316590E+03    0.21119E-04   -0.87917E-05   783   0.261E-02    0.301E-02
RMM:   4    -0.135001319928E+03   -0.33374E-05   -0.48230E-05   756   0.283E-02
 102 F= -.13500132E+03 E0= -.13499617E+03  d E =-.544003E-04
quench:  g(F)=  0.000E+00 g(S)=  0.000E+00 dE (1.order)= 0.000E+00
 bond charge predicted
       N       E                     dE             d eps       ncg     rms          rms(c)
DAV:   1    -0.135001374231E+03   -0.57641E-04   -0.10034E-02  1332   0.232E-01    0.348E-02
RMM:   2    -0.135001441940E+03   -0.67709E-04   -0.53438E-04  1125   0.505E-02    0.413E-02
RMM:   3    -0.135001342124E+03    0.99816E-04   -0.60961E-05   833   0.265E-02    0.250E-02
RMM:   4    -0.135001334826E+03    0.72982E-05   -0.20217E-05   585   0.184E-02
 103 F= -.13500133E+03 E0= -.13499622E+03  d E =-.148982E-04
quench:  g(F)=  0.000E+00 g(S)=  0.000E+00 dE (1.order)= 0.000E+00
 bond charge predicted
       N       E                     dE             d eps       ncg     rms          rms(c)
DAV:   1    -0.135001349482E+03   -0.73583E-05   -0.11599E-02  1080   0.200E-01    0.331E-02
RMM:   2    -0.135001389170E+03   -0.39688E-04   -0.46440E-04  1221   0.427E-02    0.189E-02
RMM:   3    -0.135001392519E+03   -0.33488E-05   -0.40227E-05   690   0.229E-02
 104 F= -.13500139E+03 E0= -.13499627E+03  d E =-.576933E-04
quench:  g(F)=  0.000E+00 g(S)=  0.000E+00 dE (1.order)= 0.000E+00
 bond charge predicted
       N       E                     dE             d eps       ncg     rms          rms(c)
DAV:   1    -0.135001378499E+03    0.10671E-04   -0.26612E-02  1125   0.307E-01    0.519E-02
RMM:   2    -0.135001465832E+03   -0.87333E-04   -0.10756E-03  1301   0.636E-02    0.294E-02
RMM:   3    -0.135001473185E+03   -0.73526E-05   -0.98248E-05   924   0.324E-02
 105 F= -.13500147E+03 E0= -.13499629E+03  d E =-.806656E-04
quench:  g(F)=  0.000E+00 g(S)=  0.000E+00 dE (1.order)= 0.000E+00
 bond charge predicted
       N       E                     dE             d eps       ncg     rms          rms(c)
DAV:   1    -0.135001380803E+03    0.85029E-04   -0.43527E-02  1134   0.410E-01    0.665E-02
RMM:   2    -0.135001632779E+03   -0.25198E-03   -0.19196E-03  1257   0.850E-02    0.508E-02
RMM:   3    -0.135001620712E+03    0.12066E-04   -0.20019E-04  1021   0.461E-02    0.544E-02
RMM:   4    -0.135001579513E+03    0.41199E-04   -0.61129E-05   874   0.320E-02    0.238E-02
RMM:   5    -0.135001582009E+03   -0.24956E-05   -0.28379E-05   630   0.229E-02
 106 F= -.13500158E+03 E0= -.13499649E+03  d E =-.108824E-03
quench:  g(F)=  0.000E+00 g(S)=  0.000E+00 dE (1.order)= 0.000E+00
 bond charge predicted
       N       E                     dE             d eps       ncg     rms          rms(c)
DAV:   1    -0.135001538413E+03    0.41101E-04   -0.26799E-02  1062   0.270E-01    0.562E-02
RMM:   2    -0.135001653043E+03   -0.11463E-03   -0.14777E-03  1374   0.647E-02    0.393E-02
RMM:   3    -0.135001629036E+03    0.24007E-04   -0.97648E-05   798   0.247E-02    0.323E-02
RMM:   4    -0.135001629909E+03   -0.87316E-06   -0.48808E-05   754   0.298E-02
 107 F= -.13500163E+03 E0= -.13499654E+03  d E =-.478999E-04
quench:  g(F)=  0.000E+00 g(S)=  0.000E+00 dE (1.order)= 0.000E+00
 bond charge predicted
       N       E                     dE             d eps       ncg     rms          rms(c)
DAV:   1    -0.135001678500E+03   -0.49465E-04   -0.11030E-02  1341   0.248E-01    0.345E-02
RMM:   2    -0.135001743086E+03   -0.64586E-04   -0.50949E-04  1054   0.493E-02    0.403E-02
RMM:   3    -0.135001713112E+03    0.29974E-04   -0.55962E-05   781   0.253E-02    0.230E-02
RMM:   4    -0.135001708759E+03    0.43528E-05   -0.19221E-05   578   0.187E-02
 108 F= -.13500171E+03 E0= -.13499659E+03  d E =-.788503E-04
quench:  g(F)=  0.000E+00 g(S)=  0.000E+00 dE (1.order)= 0.000E+00
 bond charge predicted
       N       E                     dE             d eps       ncg     rms          rms(c)
DAV:   1    -0.135001724581E+03   -0.11469E-04   -0.10849E-02  1125   0.194E-01    0.327E-02
RMM:   2    -0.135001760082E+03   -0.35501E-04   -0.42330E-04  1152   0.405E-02    0.197E-02
RMM:   3    -0.135001767208E+03   -0.71255E-05   -0.46415E-05   718   0.240E-02
 109 F= -.13500177E+03 E0= -.13499664E+03  d E =-.584485E-04
quench:  g(F)=  0.000E+00 g(S)=  0.000E+00 dE (1.order)= 0.000E+00
 bond charge predicted
       N       E                     dE             d eps       ncg     rms          rms(c)
DAV:   1    -0.135001741000E+03    0.19082E-04   -0.24408E-02  1143   0.304E-01    0.486E-02
RMM:   2    -0.135001824612E+03   -0.83612E-04   -0.10309E-03  1308   0.614E-02    0.259E-02
RMM:   3    -0.135001823145E+03    0.14673E-05   -0.79633E-05   853   0.293E-02
 110 F= -.13500182E+03 E0= -.13499676E+03  d E =-.559372E-04
quench:  g(F)=  0.000E+00 g(S)=  0.000E+00 dE (1.order)= 0.000E+00
 bond charge predicted
       N       E                     dE             d eps       ncg     rms          rms(c)
DAV:   1    -0.135001746266E+03    0.78347E-04   -0.33995E-02  1116   0.347E-01    0.606E-02
RMM:   2    -0.135001885736E+03   -0.13947E-03   -0.15852E-03  1273   0.778E-02    0.433E-02
RMM:   3    -0.135001893890E+03   -0.81538E-05   -0.15414E-04  1000   0.387E-02    0.519E-02
RMM:   4    -0.135001780430E+03    0.11346E-03   -0.47744E-05   707   0.274E-02    0.201E-02
RMM:   5    -0.135001782562E+03   -0.21325E-05   -0.22431E-05   599   0.192E-02
 111 F= -.13500178E+03 E0= -.13499665E+03  d E =0.405831E-04
quench:  g(F)=  0.000E+00 g(S)=  0.000E+00 dE (1.order)= 0.000E+00
 bond charge predicted
       N       E                     dE             d eps       ncg     rms          rms(c)
DAV:   1    -0.135001784503E+03   -0.40733E-05   -0.20847E-02  1080   0.246E-01    0.462E-02
RMM:   2    -0.135001930661E+03   -0.14616E-03   -0.97853E-04  1302   0.525E-02    0.312E-02
RMM:   3    -0.135001915454E+03    0.15206E-04   -0.57182E-05   688   0.198E-02    0.232E-02
RMM:   4    -0.135001921568E+03   -0.61139E-05   -0.36124E-05   695   0.259E-02
 112 F= -.13500192E+03 E0= -.13499679E+03  d E =-.139006E-03
quench:  g(F)=  0.000E+00 g(S)=  0.000E+00 dE (1.order)= 0.000E+00
 bond charge predicted
       N       E                     dE             d eps       ncg     rms          rms(c)
DAV:   1    -0.135001949718E+03   -0.34264E-04   -0.64449E-03  1341   0.193E-01    0.269E-02
RMM:   2    -0.135001987197E+03   -0.37479E-04   -0.32620E-04  1078   0.381E-02    0.287E-02
RMM:   3    -0.135001971401E+03    0.15796E-04   -0.31000E-05   635   0.186E-02    0.188E-02
RMM:   4    -0.135001968279E+03    0.31221E-05   -0.13894E-05   551   0.178E-02
 113 F= -.13500197E+03 E0= -.13499686E+03  d E =-.467106E-04
quench:  g(F)=  0.000E+00 g(S)=  0.000E+00 dE (1.order)= 0.000E+00
 bond charge predicted
       N       E                     dE             d eps       ncg     rms          rms(c)
DAV:   1    -0.135001973014E+03   -0.16125E-05   -0.12305E-02  1017   0.196E-01    0.333E-02
RMM:   2    -0.135002013658E+03   -0.40644E-04   -0.47919E-04  1269   0.417E-02    0.177E-02
RMM:   3    -0.135002018902E+03   -0.52439E-05   -0.34402E-05   664   0.207E-02
 114 F= -.13500202E+03 E0= -.13499692E+03  d E =-.506226E-04
quench:  g(F)=  0.000E+00 g(S)=  0.000E+00 dE (1.order)= 0.000E+00
 bond charge predicted
       N       E                     dE             d eps       ncg     rms          rms(c)
DAV:   1    -0.135001994234E+03    0.19424E-04   -0.26909E-02  1125   0.311E-01    0.515E-02
RMM:   2    -0.135002080560E+03   -0.86326E-04   -0.10813E-03  1303   0.632E-02    0.281E-02
RMM:   3    -0.135002080244E+03    0.31570E-06   -0.89604E-05   877   0.309E-02
 115 F= -.13500208E+03 E0= -.13499693E+03  d E =-.613424E-04
quench:  g(F)=  0.000E+00 g(S)=  0.000E+00 dE (1.order)= 0.000E+00
 bond charge predicted
       N       E                     dE             d eps       ncg     rms          rms(c)
DAV:   1    -0.135001992579E+03    0.87980E-04   -0.42980E-02  1107   0.385E-01    0.648E-02
RMM:   2    -0.135002162327E+03   -0.16975E-03   -0.18519E-03  1323   0.815E-02    0.454E-02
RMM:   3    -0.135002167429E+03   -0.51016E-05   -0.18478E-04  1023   0.438E-02    0.549E-02
RMM:   4    -0.135002117770E+03    0.49658E-04   -0.53004E-05   812   0.302E-02    0.204E-02
RMM:   5    -0.135002121440E+03   -0.36691E-05   -0.24332E-05   601   0.211E-02
 116 F= -.13500212E+03 E0= -.13499704E+03  d E =-.411956E-04
quench:  g(F)=  0.000E+00 g(S)=  0.000E+00 dE (1.order)= 0.000E+00
 bond charge predicted
       N       E                     dE             d eps       ncg     rms          rms(c)
DAV:   1    -0.135002073876E+03    0.43894E-04   -0.25686E-02  1026   0.261E-01    0.552E-02
RMM:   2    -0.135002182452E+03   -0.10858E-03   -0.14164E-03  1387   0.629E-02    0.383E-02
RMM:   3    -0.135002156966E+03    0.25486E-04   -0.90369E-05   766   0.230E-02    0.297E-02
RMM:   4    -0.135002161620E+03   -0.46535E-05   -0.49363E-05   768   0.300E-02
 117 F= -.13500216E+03 E0= -.13499708E+03  d E =-.401803E-04
quench:  g(F)=  0.000E+00 g(S)=  0.000E+00 dE (1.order)= 0.000E+00
 bond charge predicted
       N       E                     dE             d eps       ncg     rms          rms(c)
DAV:   1    -0.135002206175E+03   -0.49209E-04   -0.10797E-02  1368   0.248E-01    0.338E-02
RMM:   2    -0.135002269651E+03   -0.63476E-04   -0.49952E-04  1061   0.479E-02    0.388E-02
RMM:   3    -0.135002240435E+03    0.29215E-04   -0.50780E-05   740   0.236E-02    0.231E-02
RMM:   4    -0.135002235502E+03    0.49331E-05   -0.19446E-05   574   0.192E-02
 118 F= -.13500224E+03 E0= -.13499713E+03  d E =-.738822E-04
quench:  g(F)=  0.000E+00 g(S)=  0.000E+00 dE (1.order)= 0.000E+00
 bond charge predicted
       N       E                     dE             d eps       ncg     rms          rms(c)
DAV:   1    -0.135002249530E+03   -0.90951E-05   -0.96972E-03  1125   0.183E-01    0.307E-02
RMM:   2    -0.135002280448E+03   -0.30918E-04   -0.37347E-04  1091   0.388E-02    0.192E-02
RMM:   3    -0.135002285192E+03   -0.47439E-05   -0.44465E-05   710   0.241E-02
 119 F= -.13500229E+03 E0= -.13499718E+03  d E =-.496901E-04
quench:  g(F)=  0.000E+00 g(S)=  0.000E+00 dE (1.order)= 0.000E+00
 bond charge predicted
       N       E                     dE             d eps       ncg     rms          rms(c)
DAV:   1    -0.135002263463E+03    0.16985E-04   -0.21827E-02  1134   0.283E-01    0.456E-02
RMM:   2    -0.135002338192E+03   -0.74729E-04   -0.90732E-04  1303   0.577E-02    0.251E-02
RMM:   3    -0.135002343930E+03   -0.57374E-05   -0.72940E-05   824   0.269E-02
 120 F= -.13500234E+03 E0= -.13499730E+03  d E =-.587374E-04
quench:  g(F)=  0.000E+00 g(S)=  0.000E+00 dE (1.order)= 0.000E+00
 bond charge predicted
       N       E                     dE             d eps       ncg     rms          rms(c)
DAV:   1    -0.135002264996E+03    0.73196E-04   -0.31587E-02  1143   0.353E-01    0.580E-02
RMM:   2    -0.135002391595E+03   -0.12660E-03   -0.14750E-03  1263   0.752E-02    0.411E-02
RMM:   3    -0.135002394582E+03   -0.29870E-05   -0.14138E-04   967   0.370E-02    0.479E-02
RMM:   4    -0.135002360660E+03    0.33923E-04   -0.44285E-05   700   0.281E-02    0.198E-02
RMM:   5    -0.135002364063E+03   -0.34031E-05   -0.22405E-05   593   0.193E-02
 121 F= -.13500236E+03 E0= -.13499725E+03  d E =-.201332E-04
quench:  g(F)=  0.000E+00 g(S)=  0.000E+00 dE (1.order)= 0.000E+00
 bond charge predicted
       N       E                     dE             d eps       ncg     rms          rms(c)
DAV:   1    -0.135002349552E+03    0.11108E-04   -0.21077E-02  1062   0.251E-01    0.458E-02
RMM:   2    -0.135002429859E+03   -0.80307E-04   -0.98768E-04  1299   0.542E-02    0.324E-02
RMM:   3    -0.135002419391E+03    0.10467E-04   -0.63428E-05   722   0.236E-02    0.291E-02
RMM:   4    -0.135002415671E+03    0.37209E-05   -0.33914E-05   648   0.260E-02
 122 F= -.13500242E+03 E0= -.13499730E+03  d E =-.516078E-04
quench:  g(F)=  0.000E+00 g(S)=  0.000E+00 dE (1.order)= 0.000E+00
 bond charge predicted
       N       E                     dE             d eps       ncg     rms          rms(c)
DAV:   1    -0.135002449942E+03   -0.30551E-04   -0.64749E-03  1260   0.175E-01    0.274E-02
RMM:   2    -0.135002485056E+03   -0.35114E-04   -0.32893E-04  1076   0.387E-02    0.292E-02
RMM:   3    -0.135002470774E+03    0.14282E-04   -0.34229E-05   649   0.209E-02    0.182E-02
RMM:   4    -0.135002468870E+03    0.19039E-05   -0.13200E-05   552   0.170E-02
 123 F= -.13500247E+03 E0= -.13499738E+03  d E =-.531999E-04
quench:  g(F)=  0.000E+00 g(S)=  0.000E+00 dE (1.order)= 0.000E+00
 bond charge predicted
       N       E                     dE             d eps       ncg     rms          rms(c)
DAV:   1    -0.135002478680E+03   -0.79059E-05   -0.10660E-02  1071   0.189E-01    0.307E-02
RMM:   2    -0.135002515247E+03   -0.36567E-04   -0.41433E-04  1191   0.384E-02    0.182E-02
RMM:   3    -0.135002521168E+03   -0.59212E-05   -0.34557E-05   668   0.208E-02
 124 F= -.13500252E+03 E0= -.13499745E+03  d E =-.522980E-04
quench:  g(F)=  0.000E+00 g(S)=  0.000E+00 dE (1.order)= 0.000E+00
 bond charge predicted
       N       E                     dE             d eps       ncg     rms          rms(c)
DAV:   1    -0.135002498779E+03    0.16468E-04   -0.23649E-02  1125   0.297E-01    0.478E-02
RMM:   2    -0.135002571512E+03   -0.72734E-04   -0.92926E-04  1261   0.602E-02    0.273E-02
RMM:   3    -0.135002569380E+03    0.21320E-05   -0.91462E-05   848   0.333E-02
 125 F= -.13500257E+03 E0= -.13499746E+03  d E =-.482119E-04
quench:  g(F)=  0.000E+00 g(S)=  0.000E+00 dE (1.order)= 0.000E+00
 bond charge predicted
       N       E                     dE             d eps       ncg     rms          rms(c)
DAV:   1    -0.135002503166E+03    0.68346E-04   -0.38570E-02  1026   0.346E-01    0.596E-02
RMM:   2    -0.135002625185E+03   -0.12202E-03   -0.15367E-03  1387   0.721E-02    0.310E-02
RMM:   3    -0.135002625937E+03   -0.75205E-06   -0.10046E-04   875   0.284E-02    0.340E-02
RMM:   4    -0.135002615439E+03    0.10498E-04   -0.35210E-05   659   0.256E-02    0.194E-02
RMM:   5    -0.135002617089E+03   -0.16498E-05   -0.15664E-05   564   0.171E-02
 126 F= -.13500262E+03 E0= -.13499753E+03  d E =-.477088E-04
quench:  g(F)=  0.000E+00 g(S)=  0.000E+00 dE (1.order)= 0.000E+00
 bond charge predicted
       N       E                     dE             d eps       ncg     rms          rms(c)
DAV:   1    -0.135002555090E+03    0.60349E-04   -0.26048E-02  1044   0.264E-01    0.547E-02
RMM:   2    -0.135002660166E+03   -0.10508E-03   -0.13971E-03  1393   0.619E-02    0.366E-02
RMM:   3    -0.135002632555E+03    0.27611E-04   -0.78687E-05   738   0.183E-02    0.238E-02
RMM:   4    -0.135002639575E+03   -0.70202E-05   -0.39032E-05   700   0.263E-02
 127 F= -.13500264E+03 E0= -.13499753E+03  d E =-.224862E-04
quench:  g(F)=  0.000E+00 g(S)=  0.000E+00 dE (1.order)= 0.000E+00
 bond charge predicted
       N       E                     dE             d eps       ncg     rms          rms(c)
DAV:   1    -0.135002684126E+03   -0.51570E-04   -0.11677E-02  1296   0.235E-01    0.351E-02
RMM:   2    -0.135002753131E+03   -0.69005E-04   -0.55704E-04  1040   0.507E-02    0.403E-02
RMM:   3    -0.135002725691E+03    0.27440E-04   -0.57059E-05   755   0.261E-02    0.252E-02
RMM:   4    -0.135002719625E+03    0.60655E-05   -0.19281E-05   578   0.181E-02
 128 F= -.13500272E+03 E0= -.13499763E+03  d E =-.800500E-04
quench:  g(F)=  0.000E+00 g(S)=  0.000E+00 dE (1.order)= 0.000E+00
 bond charge predicted
       N       E                     dE             d eps       ncg     rms          rms(c)
DAV:   1    -0.135002735672E+03   -0.99810E-05   -0.73608E-03  1152   0.161E-01    0.268E-02
RMM:   2    -0.135002762340E+03   -0.26668E-04   -0.29330E-04  1043   0.360E-02    0.206E-02
RMM:   3    -0.135002760868E+03    0.14716E-05   -0.35808E-05   679   0.221E-02
 129 F= -.13500276E+03 E0= -.13499772E+03  d E =-.412428E-04
quench:  g(F)=  0.000E+00 g(S)=  0.000E+00 dE (1.order)= 0.000E+00
 bond charge predicted
       N       E                     dE             d eps       ncg     rms          rms(c)
DAV:   1    -0.135002751636E+03    0.10704E-04   -0.17129E-02  1116   0.252E-01    0.400E-02
RMM:   2    -0.135002806594E+03   -0.54958E-04   -0.67739E-04  1259   0.514E-02    0.228E-02
RMM:   3    -0.135002816659E+03   -0.10065E-04   -0.62115E-05   794   0.269E-02    0.335E-02
RMM:   4    -0.135002798591E+03    0.18068E-04   -0.22520E-05   576   0.229E-02    0.113E-02
RMM:   5    -0.135002801186E+03   -0.25952E-05   -0.92513E-06   548   0.127E-02
 130 F= -.13500280E+03 E0= -.13499771E+03  d E =-.403178E-04
quench:  g(F)=  0.000E+00 g(S)=  0.000E+00 dE (1.order)= 0.000E+00
 bond charge predicted
       N       E                     dE             d eps       ncg     rms          rms(c)
DAV:   1    -0.135002774742E+03    0.23848E-04   -0.27522E-02  1008   0.272E-01    0.500E-02
RMM:   2    -0.135002860830E+03   -0.86088E-04   -0.11418E-03  1400   0.617E-02    0.270E-02
RMM:   3    -0.135002850954E+03    0.98765E-05   -0.58318E-05   696   0.184E-02
 131 F= -.13500285E+03 E0= -.13499779E+03  d E =-.497677E-04
quench:  g(F)=  0.000E+00 g(S)=  0.000E+00 dE (1.order)= 0.000E+00
 bond charge predicted
       N       E                     dE             d eps       ncg     rms          rms(c)
[...]
DAV:   1    -0.135154611810E+03   -0.21762E-03   -0.17720E-02  1107   0.244E-01    0.511E-02
RMM:   2    -0.135154688619E+03   -0.76809E-04   -0.99747E-04  1249   0.582E-02    0.369E-02
RMM:   3    -0.135154681109E+03    0.75103E-05   -0.82704E-05   880   0.271E-02
 671 F= -.13515468E+03 E0= -.13515298E+03  d E =-.286263E-03
quench:  g(F)=  0.000E+00 g(S)=  0.000E+00 dE (1.order)= 0.000E+00
 bond charge predicted
       N       E                     dE             d eps       ncg     rms          rms(c)
DAV:   1    -0.135154857783E+03   -0.16916E-03   -0.22246E-02  1143   0.358E-01    0.503E-02
RMM:   2    -0.135154961897E+03   -0.10411E-03   -0.10473E-03  1397   0.649E-02    0.289E-02
RMM:   3    -0.135154986612E+03   -0.24715E-04   -0.96065E-05   972   0.280E-02    0.441E-02
RMM:   4    -0.135154939138E+03    0.47474E-04   -0.25912E-05   582   0.237E-02    0.130E-02
RMM:   5    -0.135154944302E+03   -0.51634E-05   -0.13475E-05   560   0.157E-02
 672 F= -.13515494E+03 E0= -.13515327E+03  d E =-.263193E-03
quench:  g(F)=  0.000E+00 g(S)=  0.000E+00 dE (1.order)= 0.000E+00
 bond charge predicted
       N       E                     dE             d eps       ncg     rms          rms(c)
DAV:   1    -0.135155240537E+03   -0.30140E-03   -0.45698E-02  1008   0.367E-01    0.704E-02
RMM:   2    -0.135155389518E+03   -0.14898E-03   -0.20343E-03  1392   0.809E-02    0.362E-02
RMM:   3    -0.135155361327E+03    0.28191E-04   -0.10042E-04   835   0.206E-02    0.273E-02
RMM:   4    -0.135155371461E+03   -0.10134E-04   -0.35388E-05   673   0.249E-02    0.279E-02
RMM:   5    -0.135155362010E+03    0.94514E-05   -0.20524E-05   573   0.208E-02
 673 F= -.13515536E+03 E0= -.13515369E+03  d E =-.417708E-03
quench:  g(F)=  0.000E+00 g(S)=  0.000E+00 dE (1.order)= 0.000E+00
 bond charge predicted
       N       E                     dE             d eps       ncg     rms          rms(c)
DAV:   1    -0.135155522658E+03   -0.15120E-03   -0.70176E-02  1008   0.457E-01    0.809E-02
RMM:   2    -0.135155740612E+03   -0.21795E-03   -0.27548E-03  1563   0.995E-02    0.396E-02
RMM:   3    -0.135155723364E+03    0.17248E-04   -0.15535E-04   903   0.293E-02    0.257E-02
RMM:   4    -0.135155728200E+03   -0.48354E-05   -0.42107E-05   713   0.266E-02
 674 F= -.13515573E+03 E0= -.13515407E+03  d E =-.366190E-03
quench:  g(F)=  0.000E+00 g(S)=  0.000E+00 dE (1.order)= 0.000E+00
 bond charge predicted
       N       E                     dE             d eps       ncg     rms          rms(c)
DAV:   1    -0.135155921300E+03   -0.19794E-03   -0.35092E-02  1026   0.317E-01    0.737E-02
RMM:   2    -0.135156060833E+03   -0.13953E-03   -0.19221E-03  1311   0.792E-02    0.517E-02
RMM:   3    -0.135156047103E+03    0.13729E-04   -0.16682E-04  1003   0.361E-02    0.485E-02
RMM:   4    -0.135156014855E+03    0.32248E-04   -0.60575E-05   850   0.304E-02    0.278E-02
RMM:   5    -0.135156008047E+03    0.68083E-05   -0.23779E-05   590   0.207E-02
 675 F= -.13515601E+03 E0= -.13515434E+03  d E =-.279847E-03
quench:  g(F)=  0.000E+00 g(S)=  0.000E+00 dE (1.order)= 0.000E+00
 bond charge predicted
       N       E                     dE             d eps       ncg     rms          rms(c)
DAV:   1    -0.135156159478E+03   -0.14462E-03   -0.13204E-02  1089   0.229E-01    0.371E-02
RMM:   2    -0.135156207419E+03   -0.47941E-04   -0.60088E-04  1299   0.499E-02    0.220E-02
RMM:   3    -0.135156203644E+03    0.37751E-05   -0.40482E-05   656   0.215E-02
 676 F= -.13515620E+03 E0= -.13515457E+03  d E =-.195598E-03
quench:  g(F)=  0.000E+00 g(S)=  0.000E+00 dE (1.order)= 0.000E+00
 bond charge predicted
       N       E                     dE             d eps       ncg     rms          rms(c)
DAV:   1    -0.135156414722E+03   -0.20730E-03   -0.20544E-02  1053   0.286E-01    0.490E-02
RMM:   2    -0.135156509394E+03   -0.94673E-04   -0.99450E-04  1280   0.641E-02    0.313E-02
RMM:   3    -0.135156519983E+03   -0.10589E-04   -0.10417E-04   977   0.314E-02    0.423E-02
RMM:   4    -0.135156479602E+03    0.40381E-04   -0.22304E-05   577   0.217E-02    0.124E-02
RMM:   5    -0.135156484305E+03   -0.47034E-05   -0.82206E-06   548   0.107E-02
 677 F= -.13515648E+03 E0= -.13515484E+03  d E =-.280661E-03
quench:  g(F)=  0.000E+00 g(S)=  0.000E+00 dE (1.order)= 0.000E+00
 bond charge predicted
       N       E                     dE             d eps       ncg     rms          rms(c)
DAV:   1    -0.135156751322E+03   -0.27172E-03   -0.49608E-02  1008   0.386E-01    0.702E-02
RMM:   2    -0.135156895387E+03   -0.14406E-03   -0.18346E-03  1523   0.806E-02    0.272E-02
RMM:   3    -0.135156887548E+03    0.78384E-05   -0.70299E-05   725   0.211E-02
 678 F= -.13515689E+03 E0= -.13515524E+03  d E =-.403244E-03
quench:  g(F)=  0.000E+00 g(S)=  0.000E+00 dE (1.order)= 0.000E+00
 bond charge predicted
       N       E                     dE             d eps       ncg     rms          rms(c)
DAV:   1    -0.135157072868E+03   -0.17748E-03   -0.60085E-02  1008   0.421E-01    0.890E-02
RMM:   2    -0.135157276789E+03   -0.20392E-03   -0.27739E-03  1328   0.992E-02    0.599E-02
RMM:   3    -0.135157271643E+03    0.51464E-05   -0.26604E-04  1036   0.497E-02    0.608E-02
RMM:   4    -0.135157226296E+03    0.45347E-04   -0.87733E-05   926   0.374E-02    0.330E-02
RMM:   5    -0.135157230176E+03   -0.38799E-05   -0.40811E-05   715   0.257E-02
 679 F= -.13515723E+03 E0= -.13515558E+03  d E =-.342627E-03
quench:  g(F)=  0.000E+00 g(S)=  0.000E+00 dE (1.order)= 0.000E+00
 bond charge predicted
       N       E                     dE             d eps       ncg     rms          rms(c)
DAV:   1    -0.135157391946E+03   -0.16565E-03   -0.23153E-02  1116   0.296E-01    0.521E-02
RMM:   2    -0.135157470877E+03   -0.78932E-04   -0.10816E-03  1410   0.627E-02    0.327E-02
RMM:   3    -0.135157460740E+03    0.10137E-04   -0.73422E-05   732   0.232E-02    0.214E-02
RMM:   4    -0.135157474204E+03   -0.13464E-04   -0.39542E-05   729   0.269E-02    0.275E-02
RMM:   5    -0.135157459334E+03    0.14870E-04   -0.14762E-05   559   0.187E-02    0.772E-03
RMM:   6    -0.135157459148E+03    0.18557E-06   -0.55383E-06   544   0.961E-03
 680 F= -.13515746E+03 E0= -.13515584E+03  d E =-.228973E-03
quench:  g(F)=  0.000E+00 g(S)=  0.000E+00 dE (1.order)= 0.000E+00
 bond charge predicted
       N       E                     dE             d eps       ncg     rms          rms(c)
DAV:   1    -0.135157633934E+03   -0.17460E-03   -0.11877E-02  1044   0.182E-01    0.368E-02
RMM:   2    -0.135157670013E+03   -0.36079E-04   -0.51789E-04  1147   0.424E-02    0.208E-02
RMM:   3    -0.135157662371E+03    0.76413E-05   -0.27682E-05   615   0.134E-02
 681 F= -.13515766E+03 E0= -.13515605E+03  d E =-.203223E-03
quench:  g(F)=  0.000E+00 g(S)=  0.000E+00 dE (1.order)= 0.000E+00
 bond charge predicted
       N       E                     dE             d eps       ncg     rms          rms(c)
DAV:   1    -0.135157887462E+03   -0.21745E-03   -0.29474E-02  1008   0.309E-01    0.559E-02
RMM:   2    -0.135157981665E+03   -0.94203E-04   -0.11428E-03  1442   0.676E-02    0.288E-02
RMM:   3    -0.135158003091E+03   -0.21426E-04   -0.10894E-04   966   0.353E-02    0.411E-02
RMM:   4    -0.135157975376E+03    0.27716E-04   -0.28102E-05   616   0.247E-02    0.147E-02
RMM:   5    -0.135157979335E+03   -0.39593E-05   -0.12962E-05   551   0.156E-02
 682 F= -.13515798E+03 E0= -.13515637E+03  d E =-.316964E-03
quench:  g(F)=  0.000E+00 g(S)=  0.000E+00 dE (1.order)= 0.000E+00
 bond charge predicted
       N       E                     dE             d eps       ncg     rms          rms(c)
DAV:   1    -0.135158249509E+03   -0.27413E-03   -0.50622E-02  1008   0.383E-01    0.751E-02
RMM:   2    -0.135158410849E+03   -0.16134E-03   -0.22850E-03  1381   0.874E-02    0.419E-02
RMM:   3    -0.135158375443E+03    0.35406E-04   -0.12734E-04   905   0.278E-02    0.304E-02
RMM:   4    -0.135158379300E+03   -0.38567E-05   -0.52775E-05   806   0.310E-02
 683 F= -.13515838E+03 E0= -.13515676E+03  d E =-.399965E-03
quench:  g(F)=  0.000E+00 g(S)=  0.000E+00 dE (1.order)= 0.000E+00
 bond charge predicted
       N       E                     dE             d eps       ncg     rms          rms(c)
DAV:   1    -0.135158479060E+03   -0.10362E-03   -0.52105E-02  1026   0.405E-01    0.711E-02
RMM:   2    -0.135158653308E+03   -0.17425E-03   -0.21786E-03  1497   0.903E-02    0.435E-02
RMM:   3    -0.135158662586E+03   -0.92786E-05   -0.18379E-04  1023   0.368E-02    0.432E-02
RMM:   4    -0.135158638161E+03    0.24425E-04   -0.54857E-05   831   0.288E-02    0.274E-02
RMM:   5    -0.135158631744E+03    0.64178E-05   -0.25664E-05   596   0.224E-02
 684 F= -.13515863E+03 E0= -.13515703E+03  d E =-.252444E-03
quench:  g(F)=  0.000E+00 g(S)=  0.000E+00 dE (1.order)= 0.000E+00
 bond charge predicted
       N       E                     dE             d eps       ncg     rms          rms(c)
DAV:   1    -0.135158847759E+03   -0.20960E-03   -0.18329E-02  1062   0.233E-01    0.526E-02
RMM:   2    -0.135158912592E+03   -0.64833E-04   -0.99528E-04  1257   0.546E-02    0.336E-02
RMM:   3    -0.135158893956E+03    0.18636E-04   -0.62717E-05   733   0.180E-02    0.216E-02
RMM:   4    -0.135158908228E+03   -0.14272E-04   -0.32326E-05   664   0.246E-02    0.282E-02
RMM:   5    -0.135158890430E+03    0.17797E-04   -0.15598E-05   567   0.188E-02    0.773E-03
RMM:   6    -0.135158890495E+03   -0.65280E-07   -0.71602E-06   546   0.119E-02
 685 F= -.13515889E+03 E0= -.13515730E+03  d E =-.258752E-03
quench:  g(F)=  0.000E+00 g(S)=  0.000E+00 dE (1.order)= 0.000E+00
 bond charge predicted
       N       E                     dE             d eps       ncg     rms          rms(c)
DAV:   1    -0.135159082266E+03   -0.19184E-03   -0.19570E-02  1044   0.241E-01    0.429E-02
RMM:   2    -0.135159140229E+03   -0.57963E-04   -0.73021E-04  1338   0.523E-02    0.181E-02
RMM:   3    -0.135159138826E+03    0.14035E-05   -0.36880E-05   632   0.199E-02
 686 F= -.13515914E+03 E0= -.13515754E+03  d E =-.248330E-03
quench:  g(F)=  0.000E+00 g(S)=  0.000E+00 dE (1.order)= 0.000E+00
 bond charge predicted
       N       E                     dE             d eps       ncg     rms          rms(c)
DAV:   1    -0.135159377081E+03   -0.23685E-03   -0.37092E-02  1008   0.350E-01    0.654E-02
RMM:   2    -0.135159523933E+03   -0.14685E-03   -0.17405E-03  1353   0.800E-02    0.400E-02
RMM:   3    -0.135159541980E+03   -0.18047E-04   -0.16168E-04  1060   0.353E-02    0.522E-02
RMM:   4    -0.135159481337E+03    0.60643E-04   -0.40651E-05   721   0.266E-02    0.204E-02
RMM:   5    -0.135159489299E+03   -0.79617E-05   -0.18530E-05   566   0.182E-02
 687 F= -.13515949E+03 E0= -.13515791E+03  d E =-.350473E-03
quench:  g(F)=  0.000E+00 g(S)=  0.000E+00 dE (1.order)= 0.000E+00
 bond charge predicted
       N       E                     dE             d eps       ncg     rms          rms(c)
DAV:   1    -0.135159641037E+03   -0.15970E-03   -0.55406E-02  1008   0.409E-01    0.718E-02
RMM:   2    -0.135159810757E+03   -0.16972E-03   -0.21677E-03  1524   0.895E-02    0.364E-02
RMM:   3    -0.135159801161E+03    0.95956E-05   -0.14122E-04   902   0.312E-02    0.252E-02
RMM:   4    -0.135159801750E+03   -0.58857E-06   -0.42166E-05   733   0.280E-02
 688 F= -.13515980E+03 E0= -.13515823E+03  d E =-.312451E-03
quench:  g(F)=  0.000E+00 g(S)=  0.000E+00 dE (1.order)= 0.000E+00
 bond charge predicted
       N       E                     dE             d eps       ncg     rms          rms(c)
DAV:   1    -0.135159997680E+03   -0.19652E-03   -0.28400E-02  1062   0.294E-01    0.659E-02
RMM:   2    -0.135160121840E+03   -0.12416E-03   -0.15623E-03  1266   0.744E-02    0.505E-02
RMM:   3    -0.135160110869E+03    0.10971E-04   -0.15299E-04  1016   0.378E-02    0.490E-02
RMM:   4    -0.135160068490E+03    0.42379E-04   -0.48976E-05   760   0.273E-02    0.224E-02
RMM:   5    -0.135160067354E+03    0.11356E-05   -0.18074E-05   573   0.175E-02
 689 F= -.13516007E+03 E0= -.13515850E+03  d E =-.265605E-03
quench:  g(F)=  0.000E+00 g(S)=  0.000E+00 dE (1.order)= 0.000E+00
 bond charge predicted
       N       E                     dE             d eps       ncg     rms          rms(c)
DAV:   1    -0.135160213086E+03   -0.14460E-03   -0.12705E-02  1053   0.215E-01    0.354E-02
RMM:   2    -0.135160257279E+03   -0.44193E-04   -0.56448E-04  1326   0.475E-02    0.191E-02
RMM:   3    -0.135160253809E+03    0.34702E-05   -0.31635E-05   616   0.169E-02
 690 F= -.13516025E+03 E0= -.13515870E+03  d E =-.186454E-03
quench:  g(F)=  0.000E+00 g(S)=  0.000E+00 dE (1.order)= 0.000E+00
 bond charge predicted
       N       E                     dE             d eps       ncg     rms          rms(c)
DAV:   1    -0.135160459178E+03   -0.20190E-03   -0.20659E-02  1026   0.276E-01    0.492E-02
RMM:   2    -0.135160550721E+03   -0.91544E-04   -0.97694E-04  1260   0.636E-02    0.337E-02
RMM:   3    -0.135160556222E+03   -0.55011E-05   -0.11049E-04   980   0.327E-02    0.420E-02
RMM:   4    -0.135160519864E+03    0.36358E-04   -0.22788E-05   581   0.216E-02    0.133E-02
RMM:   5    -0.135160525520E+03   -0.56557E-05   -0.10427E-05   547   0.134E-02
 691 F= -.13516053E+03 E0= -.13515897E+03  d E =-.271711E-03
quench:  g(F)=  0.000E+00 g(S)=  0.000E+00 dE (1.order)= 0.000E+00
 bond charge predicted
       N       E                     dE             d eps       ncg     rms          rms(c)
DAV:   1    -0.135160756426E+03   -0.23656E-03   -0.45108E-02  1008   0.371E-01    0.668E-02
RMM:   2    -0.135160891424E+03   -0.13500E-03   -0.17226E-03  1525   0.795E-02    0.274E-02
RMM:   3    -0.135160884592E+03    0.68318E-05   -0.74736E-05   743   0.216E-02
 692 F= -.13516088E+03 E0= -.13515933E+03  d E =-.359072E-03
quench:  g(F)=  0.000E+00 g(S)=  0.000E+00 dE (1.order)= 0.000E+00
 bond charge predicted
       N       E                     dE             d eps       ncg     rms          rms(c)
DAV:   1    -0.135161057330E+03   -0.16591E-03   -0.47649E-02  1026   0.390E-01    0.808E-02
RMM:   2    -0.135161261650E+03   -0.20432E-03   -0.23583E-03  1291   0.937E-02    0.615E-02
RMM:   3    -0.135161254230E+03    0.74204E-05   -0.25782E-04  1048   0.486E-02    0.638E-02
RMM:   4    -0.135161180596E+03    0.73634E-04   -0.72650E-05   894   0.325E-02    0.271E-02
RMM:   5    -0.135161188735E+03   -0.81388E-05   -0.32542E-05   645   0.233E-02
 693 F= -.13516119E+03 E0= -.13515963E+03  d E =-.304143E-03
quench:  g(F)=  0.000E+00 g(S)=  0.000E+00 dE (1.order)= 0.000E+00
 bond charge predicted
       N       E                     dE             d eps       ncg     rms          rms(c)
DAV:   1    -0.135161354950E+03   -0.17435E-03   -0.19733E-02  1080   0.269E-01    0.481E-02
RMM:   2    -0.135161422152E+03   -0.67202E-04   -0.90908E-04  1387   0.592E-02    0.294E-02
RMM:   3    -0.135161412248E+03    0.99042E-05   -0.62710E-05   711   0.230E-02
 694 F= -.13516141E+03 E0= -.13515988E+03  d E =-.223513E-03
quench:  g(F)=  0.000E+00 g(S)=  0.000E+00 dE (1.order)= 0.000E+00
 bond charge predicted
       N       E                     dE             d eps       ncg     rms          rms(c)
DAV:   1    -0.135161591771E+03   -0.16962E-03   -0.13939E-02  1098   0.245E-01    0.422E-02
RMM:   2    -0.135161658680E+03   -0.66909E-04   -0.65143E-04  1143   0.618E-02    0.386E-02
RMM:   3    -0.135161645383E+03    0.13297E-04   -0.95708E-05   952   0.348E-02    0.310E-02
RMM:   4    -0.135161631933E+03    0.13450E-04   -0.15867E-05   566   0.174E-02    0.140E-02
RMM:   5    -0.135161632994E+03   -0.10614E-05   -0.10398E-05   545   0.147E-02
 695 F= -.13516163E+03 E0= -.13516010E+03  d E =-.220746E-03
quench:  g(F)=  0.000E+00 g(S)=  0.000E+00 dE (1.order)= 0.000E+00
 bond charge predicted
       N       E                     dE             d eps       ncg     rms          rms(c)
DAV:   1    -0.135161862239E+03   -0.23031E-03   -0.32875E-02  1008   0.314E-01    0.572E-02
RMM:   2    -0.135161958954E+03   -0.96715E-04   -0.12377E-03  1466   0.666E-02    0.237E-02
RMM:   3    -0.135161954448E+03    0.45065E-05   -0.52959E-05   703   0.214E-02
 696 F= -.13516195E+03 E0= -.13516042E+03  d E =-.321454E-03
quench:  g(F)=  0.000E+00 g(S)=  0.000E+00 dE (1.order)= 0.000E+00
 bond charge predicted
       N       E                     dE             d eps       ncg     rms          rms(c)
DAV:   1    -0.135162166847E+03   -0.20789E-03   -0.45689E-02  1026   0.393E-01    0.760E-02
RMM:   2    -0.135162365299E+03   -0.19845E-03   -0.22347E-03  1364   0.884E-02    0.548E-02
RMM:   3    -0.135162364790E+03    0.50809E-06   -0.23036E-04  1076   0.411E-02    0.619E-02
RMM:   4    -0.135162287049E+03    0.77741E-04   -0.61342E-05   866   0.312E-02    0.252E-02
RMM:   5    -0.135162295924E+03   -0.88751E-05   -0.18733E-05   589   0.165E-02
 697 F= -.13516230E+03 E0= -.13516078E+03  d E =-.341476E-03
quench:  g(F)=  0.000E+00 g(S)=  0.000E+00 dE (1.order)= 0.000E+00
 bond charge predicted
       N       E                     dE             d eps       ncg     rms          rms(c)
DAV:   1    -0.135162428355E+03   -0.14131E-03   -0.34277E-02  1026   0.320E-01    0.598E-02
RMM:   2    -0.135162536469E+03   -0.10811E-03   -0.14584E-03  1480   0.726E-02    0.355E-02
RMM:   3    -0.135162524809E+03    0.11661E-04   -0.10553E-04   774   0.239E-02    0.212E-02
RMM:   4    -0.135162530854E+03   -0.60449E-05   -0.35089E-05   673   0.259E-02
 698 F= -.13516253E+03 E0= -.13516102E+03  d E =-.234929E-03
quench:  g(F)=  0.000E+00 g(S)=  0.000E+00 dE (1.order)= 0.000E+00
 bond charge predicted
       N       E                     dE             d eps       ncg     rms          rms(c)
DAV:   1    -0.135162701784E+03   -0.17698E-03   -0.12542E-02  1197   0.244E-01    0.422E-02
RMM:   2    -0.135162766960E+03   -0.65176E-04   -0.68159E-04  1162   0.511E-02    0.343E-02
RMM:   3    -0.135162756982E+03    0.99780E-05   -0.70125E-05   852   0.250E-02
 699 F= -.13516276E+03 E0= -.13516123E+03  d E =-.226128E-03
quench:  g(F)=  0.000E+00 g(S)=  0.000E+00 dE (1.order)= 0.000E+00
 bond charge predicted
       N       E                     dE             d eps       ncg     rms          rms(c)
DAV:   1    -0.135162927862E+03   -0.16090E-03   -0.21326E-02  1116   0.327E-01    0.490E-02
RMM:   2    -0.135163011845E+03   -0.83983E-04   -0.10093E-03  1376   0.625E-02    0.216E-02
RMM:   3    -0.135163009058E+03    0.27870E-05   -0.45059E-05   669   0.198E-02
 700 F= -.13516301E+03 E0= -.13516151E+03  d E =-.252077E-03
quench:  g(F)=  0.000E+00 g(S)=  0.000E+00 dE (1.order)= 0.000E+00
 bond charge predicted
       N       E                     dE             d eps       ncg     rms          rms(c)
DAV:   1    -0.135163251941E+03   -0.24010E-03   -0.39533E-02  1008   0.373E-01    0.704E-02
RMM:   2    -0.135163415709E+03   -0.16377E-03   -0.19415E-03  1338   0.861E-02    0.456E-02
RMM:   3    -0.135163430294E+03   -0.14585E-04   -0.18101E-04  1046   0.390E-02    0.565E-02
RMM:   4    -0.135163365656E+03    0.64639E-04   -0.49151E-05   784   0.285E-02    0.218E-02
RMM:   5    -0.135163375048E+03   -0.93922E-05   -0.16884E-05   584   0.151E-02
 701 F= -.13516338E+03 E0= -.13516188E+03  d E =-.365990E-03
quench:  g(F)=  0.000E+00 g(S)=  0.000E+00 dE (1.order)= 0.000E+00
 bond charge predicted
       N       E                     dE             d eps       ncg     rms          rms(c)
DAV:   1    -0.135163505248E+03   -0.13959E-03   -0.54529E-02  1008   0.402E-01    0.718E-02
RMM:   2    -0.135163676059E+03   -0.17081E-03   -0.22323E-03  1546   0.895E-02    0.385E-02
RMM:   3    -0.135163663643E+03    0.12417E-04   -0.14750E-04   890   0.296E-02    0.270E-02
RMM:   4    -0.135163669997E+03   -0.63538E-05   -0.50347E-05   808   0.295E-02
 702 F= -.13516367E+03 E0= -.13516218E+03  d E =-.294949E-03
quench:  g(F)=  0.000E+00 g(S)=  0.000E+00 dE (1.order)= 0.000E+00
 bond charge predicted
       N       E                     dE             d eps       ncg     rms          rms(c)
