 vasp.5.4.4.18Apr17-6-g9f103f2a35 (build Feb 06 2024 13:54:16) complex          
  
 POSCAR found type information on POSCAR  Cu Ru Cu N  O 
 04/POSCAR found :  5 types and      40 ions
 scaLAPACK will be used

 ----------------------------------------------------------------------------- 
|                                                                             |
|  ADVICE TO THIS USER RUNNING 'VASP/VAMP'   (HEAR YOUR MASTER'S VOICE ...):  |
|                                                                             |
|      You enforced a specific xc-type in the INCAR file,                     |
|      a different type was found on the POTCAR file                          |
|          I HOPE YOU KNOW, WHAT YOU ARE  DOING                               |
|                                                                             |
 ----------------------------------------------------------------------------- 

 LDA part: xc-table for Pade appr. of Perdew
 POSCAR found type information on POSCAR  Cu Ru Cu N  O 
 00/POSCAR found :  5 types and      40 ions
 POSCAR found type information on POSCAR  Cu Ru Cu N  O 
 06/POSCAR found :  5 types and      40 ions
 Jacobian:    19.9537150754471     
 POSCAR, INCAR and KPOINTS ok, starting setup
 FFT: planning ...
 WAVECAR not read
 entering main loop
       N       E                     dE             d eps       ncg     rms          rms(c)
  Solvation turned off during non-self-consistent phase (first NELMDL steps)
DAV:   1     0.449938963182E+04    0.44994E+04   -0.18228E+05 12240   0.211E+03
DAV:   2     0.683305497703E+03   -0.38161E+04   -0.36818E+04 12321   0.491E+02
DAV:   3    -0.274398233039E+02   -0.71075E+03   -0.65619E+03 13608   0.245E+02
DAV:   4    -0.153839123815E+03   -0.12640E+03   -0.11053E+03 21096   0.974E+01
DAV:   5    -0.168945963777E+03   -0.15107E+02   -0.14586E+02 18900   0.329E+01    0.503E+01
 Begin Solvation calculations
  rms_SCF =    10.3281151795651      tol =    1.03281151795651     
 Begin minimization
 Creating dielectric and ionic cavities
  area:      150.460216514094     
  volume:    651.143445609840     
  Acav:     7.899161366989914E-002
  Solving linear dielectric/ionic screening model
        iter                  A_solv                     rms
   LPB:       -0.402009950987124E+03   0.290385690311547E+03
   LPB:    0  -0.163905266324717E+02   0.682519300296983E+02  -0.521451E+01   0.000000E+00   0.283637E+02  -0.147903E+03
   LPB:    1  -0.238497892319316E+01   0.753517258539879E+01   0.943635E-02   0.000000E+00   0.664850E+02   0.110819E-14
   LPB:    2  -0.765987677118289E+00   0.135603374979714E+01   0.145259E-01   0.750939E-01   0.251763E+03   0.192499E-13
   LPB:    3  -0.495798698020224E+00   0.171435766755842E+01   0.242101E-01   0.100131E+00   0.472481E+03   0.169838E-13
   LPB:    4  -0.410896700077217E+00   0.112166331909815E+01   0.239386E-01   0.317796E+00   0.656240E+02   0.203807E-13
   LPB:    5  -0.366485952432299E+00   0.572401825493715E+00   0.234732E-01   0.533452E+00   0.415759E+03   0.386563E-13
  Finished solving LPB equations
  A_corr:   -0.287494338762400     
 End minimization
 Ecorr=   2065.47387067340     
 A_corr= -0.287494338762400     
 Ecorr_band=  -2065.76136501216     
 End Solvation calculations
RMM:   6    -0.186657896555E+03   -0.17712E+02   -0.39939E+02 12455   0.994E+01    0.451E+01
 Begin Solvation calculations
  rms_SCF =    10.3281151795651      tol =    1.03281151795651     
 Begin minimization
 Creating dielectric and ionic cavities
  area:      160.903479301377     
  volume:    668.422363587349     
  Acav:     8.447432663322302E-002
  Solving linear dielectric/ionic screening model
        iter                  A_solv                     rms
   LPB:       -0.523348292558526E+02   0.138280395405672E+03
   LPB:    0  -0.505931738201217E+02   0.136227225238493E+03   0.355555E+00   0.000000E+00   0.275536E+02   0.979683E+01
   LPB:    1  -0.456660786518262E+01   0.123431387534417E+02   0.896028E-02   0.000000E+00   0.617126E+02  -0.436619E-15
   LPB:    2  -0.997648136151646E+00   0.280461166429977E+01   0.153630E-01   0.452250E-01   0.131548E+03  -0.114720E-13
   LPB:    3  -0.527780209841922E+00   0.130523121534329E+01   0.224676E-01   0.900232E-01   0.128125E+03  -0.103333E-13
   LPB:    4  -0.405392260697859E+00   0.124171495455640E+01   0.245279E-01   0.238594E+00   0.254800E+03  -0.491833E-14
   LPB:    5  -0.353859915696624E+00   0.642588448771524E+00   0.231391E-01   0.446329E+00   0.110751E+03   0.106096E-14
  Finished solving LPB equations
  A_corr:   -0.269385589063401     
 End minimization
 Ecorr=   1944.62142398049     
 A_corr= -0.269385589063401     
 Ecorr_band=  -1944.89080956956     
 End Solvation calculations
RMM:   7    -0.172203848497E+03    0.14454E+02   -0.13397E+02 12666   0.517E+01    0.335E+01
 Begin Solvation calculations
  rms_SCF =    10.3281151795651      tol =    1.03281151795651     
 Begin minimization
 Creating dielectric and ionic cavities
  area:      237.442255551011     
  volume:    668.706286799197     
  Acav:     0.124657184164281     
  Solving linear dielectric/ionic screening model
        iter                  A_solv                     rms
   LPB:       -0.218276938106891E+02   0.896122033487691E+02
   LPB:    0  -0.218246074049471E+02   0.896066195118885E+02   0.149712E-01   0.000000E+00   0.275403E+02   0.412312E+00
   LPB:    1  -0.201125747815470E+01   0.824820713534030E+01   0.895830E-02   0.000000E+00   0.614947E+02  -0.102940E-16
   LPB:    2  -0.427206822127413E+00   0.134127197823968E+01   0.156266E-01   0.458324E-01   0.125701E+03  -0.353617E-15
   LPB:    3  -0.220815206788441E+00   0.529997599627710E+00   0.221627E-01   0.918681E-01   0.245421E+03   0.468329E-14
   LPB:    4  -0.178471664791811E+00   0.227521847218998E+00   0.256897E-01   0.176994E+00   0.298689E+03   0.894102E-14
  Finished solving LPB equations
  A_corr:   -5.381448062753000E-002
 End minimization
 Ecorr=   1929.66692453625     
 A_corr= -5.381448062753000E-002
 Ecorr_band=  -1929.72073901687     
 End Solvation calculations
RMM:   8    -0.146284571552E+03    0.25919E+02   -0.15328E+01 12567   0.167E+01    0.212E+01
 Begin Solvation calculations
  rms_SCF =    7.25987842575709      tol =   0.725987842575708     
 Begin minimization
 Creating dielectric and ionic cavities
  area:      163.850032499634     
  volume:    664.933013353305     
  Acav:     8.602126706230760E-002
  Solving linear dielectric/ionic screening model
        iter                  A_solv                     rms
   LPB:       -0.800286274530201E+00   0.144185287144317E+02
   LPB:    0  -0.670743192438454E+00   0.120555576908491E+02  -0.966824E-01   0.000000E+00   0.277172E+02  -0.267977E+01
   LPB:    1  -0.254713895879568E+00   0.160865046687303E+01   0.942467E-02   0.000000E+00   0.595389E+02  -0.178045E-15
   LPB:    2  -0.186404901556186E+00   0.463172226259875E+00   0.188096E-01   0.822699E-01   0.836646E+02  -0.760605E-14
   LPB:    3  -0.172595246526787E+00   0.504461018649912E+00   0.211841E-01   0.179504E+00   0.350301E+03  -0.363138E-14
   LPB:    4  -0.165697159353536E+00   0.253703505479741E+00   0.265496E-01   0.398563E+00   0.499083E+02  -0.552839E-14
  Finished solving LPB equations
  A_corr:   -7.967589229122797E-002
 End minimization
 Ecorr=   1916.12866927149     
 A_corr= -7.967589229122797E-002
 Ecorr_band=  -1916.20834516378     
 End Solvation calculations
RMM:   9    -0.139446981148E+03    0.68376E+01   -0.77667E+00 12524   0.126E+01    0.646E+00
 Begin Solvation calculations
  rms_SCF =    3.04990032506384      tol =   0.304990032506384     
 Begin minimization
 Creating dielectric and ionic cavities
  area:      154.859639060032     
  volume:    662.094619090919     
  Acav:     8.130131050651665E-002
  Solving linear dielectric/ionic screening model
        iter                  A_solv                     rms
   LPB:       -0.100481630473734E+01   0.153355034326412E+02
   LPB:    0  -0.991771074986013E+00   0.149880775030470E+02  -0.306074E-01   0.000000E+00   0.278503E+02  -0.852424E+00
   LPB:    1  -0.327022082253334E+00   0.180696912610756E+01   0.961839E-02   0.000000E+00   0.625873E+02  -0.108011E-16
   LPB:    2  -0.248233393394031E+00   0.318103180815710E+00   0.148213E-01   0.769170E-01   0.167239E+03  -0.215099E-14
   LPB:    3  -0.229217979606302E+00   0.383250995191697E+00   0.283957E-01   0.125973E+00   0.285620E+03  -0.172900E-14
   LPB:    4  -0.220322198057632E+00   0.330385492450607E+00   0.311516E-01   0.426432E+00   0.523765E+02  -0.160160E-14
   LPB:    5  -0.214578335546561E+00   0.314332065607496E+00   0.268329E-01   0.749607E+00   0.214823E+03  -0.900273E-14
   LPB:    6  -0.210535875048102E+00   0.149857504604430E+00   0.300325E-01   0.628807E+00   0.413601E+02  -0.123622E-13
  Finished solving LPB equations
  A_corr:   -0.129234564541586     
 End minimization
 Ecorr=   1871.15659217946     
 A_corr= -0.129234564541586     
 Ecorr_band=  -1871.28582674400     
 End Solvation calculations
RMM:  10    -0.138863490313E+03    0.58349E+00   -0.25954E+00 12621   0.563E+00    0.445E+00
 Begin Solvation calculations
  rms_SCF =    1.09370277896201      tol =   0.109370277896201     
 Begin minimization
 Creating dielectric and ionic cavities
  area:      143.242928450235     
  volume:    661.065273198151     
  Acav:     7.520253743637360E-002
  Solving linear dielectric/ionic screening model
        iter                  A_solv                     rms
   LPB:       -0.326534424016317E+00   0.131866944365420E+01
   LPB:    0  -0.326344663293208E+00   0.145620731735252E+01   0.368831E-02   0.000000E+00   0.278985E+02   0.102898E+00
   LPB:    1  -0.254785409814346E+00   0.472215953153578E+00   0.173170E-01   0.000000E+00   0.156747E+03  -0.222299E-17
   LPB:    2  -0.245829014173610E+00   0.249470972783886E+00   0.240872E-01   0.899819E-01   0.109360E+03  -0.489712E-14
   LPB:    3  -0.242629914746566E+00   0.294842358200042E+00   0.307924E-01   0.279407E+00   0.903637E+02  -0.622936E-14
   LPB:    4  -0.240425247857326E+00   0.294378188064382E+00   0.252404E-01   0.840743E+00   0.932508E+02  -0.451749E-14
   LPB:    5  -0.238119479903711E+00   0.173079054550031E+00   0.279151E-01   0.945648E+00   0.593242E+02  -0.338607E-14
   LPB:    6  -0.236350326327050E+00   0.176040217470877E+00   0.299497E-01   0.715148E+00   0.384949E+02  -0.482455E-14
   LPB:    7  -0.235256124802773E+00   0.145744002812393E+00   0.271493E-01   0.682283E+00   0.181756E+03  -0.655853E-14
   LPB:    8  -0.234536883911769E+00   0.634285017398603E-01   0.273301E-01   0.652972E+00   0.474003E+02  -0.779646E-14
  Finished solving LPB equations
  A_corr:   -0.159334346475395     
 End minimization
 Ecorr=   1829.22178399848     
 A_corr= -0.159334346475395     
 Ecorr_band=  -1829.38111834495     
 End Solvation calculations
RMM:  11    -0.138709359714E+03    0.15413E+00   -0.11842E+00 12592   0.502E+00    0.370E+00
 Begin Solvation calculations
  rms_SCF =    1.02110281927911      tol =   0.102110281927911     
 Begin minimization
 Creating dielectric and ionic cavities
  area:      136.283290270060     
  volume:    657.724849929169     
  Acav:     7.154872739178132E-002
  Solving linear dielectric/ionic screening model
        iter                  A_solv                     rms
   LPB:       -0.504508182155964E+00   0.619049717497524E+01
   LPB:    0  -0.479827581804769E+00   0.481601161696556E+01  -0.419456E-01   0.000000E+00   0.280551E+02  -0.117679E+01
   LPB:    1  -0.324699582446864E+00   0.170267021334042E+01   0.121501E-01   0.000000E+00   0.767105E+02   0.702165E-16
   LPB:    2  -0.301203286921654E+00   0.315548097622542E+00   0.134264E-01   0.137066E+00   0.129167E+03   0.397181E-14
   LPB:    3  -0.294416263311573E+00   0.251014614745538E+00   0.226306E-01   0.171374E+00   0.260153E+03   0.444188E-14
   LPB:    4  -0.292317558743183E+00   0.184762244074697E+00   0.224063E-01   0.312319E+00   0.738223E+02   0.460162E-14
   LPB:    5  -0.291031633453857E+00   0.136187639803001E+00   0.264026E-01   0.519982E+00   0.269324E+03   0.604543E-14
   LPB:    6  -0.289986406677285E+00   0.547005408802277E-01   0.372025E-01   0.576859E+00   0.556924E+02   0.754156E-14
  Finished solving LPB equations
  A_corr:   -0.218437679285504     
 End minimization
 Ecorr=   1810.01978879834     
 A_corr= -0.218437679285504     
 Ecorr_band=  -1810.23822647763     
 End Solvation calculations
RMM:  12    -0.138598251298E+03    0.11111E+00   -0.45483E-01 12595   0.309E+00    0.272E+00
 Begin Solvation calculations
  rms_SCF =    1.02110281927911      tol =   0.102110281927911     
 Begin minimization
 Creating dielectric and ionic cavities
  area:      134.165062478847     
  volume:    658.144104758597     
  Acav:     7.043665780139484E-002
  Solving linear dielectric/ionic screening model
        iter                  A_solv                     rms
   LPB:       -0.306222102639189E+00   0.197353158685165E+01
   LPB:    0  -0.297275954201333E+00   0.107202464916461E+01   0.252627E-01   0.000000E+00   0.280355E+02   0.708251E+00
   LPB:    1  -0.290721997119684E+00   0.268017618826761E+00   0.117723E-01   0.000000E+00   0.756164E+02   0.470021E-16
   LPB:    2  -0.289281063570013E+00   0.124287817841456E+00   0.168438E-01   0.153661E+00   0.311916E+03  -0.124677E-14
   LPB:    3  -0.288568912060437E+00   0.134833761344994E+00   0.269210E-01   0.309227E+00   0.954675E+02  -0.134647E-14
   LPB:    4  -0.288034534761710E+00   0.113314547524927E+00   0.269364E-01   0.749939E+00   0.279654E+03  -0.935704E-15
   LPB:    5  -0.287456225883356E+00   0.373229653835248E-01   0.362719E-01   0.803678E+00   0.578347E+02  -0.865193E-15
  Finished solving LPB equations
  A_corr:   -0.217019568081961     
 End minimization
 Ecorr=   1797.53286547286     
 A_corr= -0.217019568081961     
 Ecorr_band=  -1797.74988504095     
 End Solvation calculations
RMM:  13    -0.138577314221E+03    0.20937E-01   -0.10351E-01 12851   0.104E+00    0.175E+00
 Begin Solvation calculations
  rms_SCF =    1.02110281927911      tol =   0.102110281927911     
 Begin minimization
 Creating dielectric and ionic cavities
  area:      133.870892492715     
  volume:    655.744405837036     
  Acav:     7.028221855867549E-002
  Solving linear dielectric/ionic screening model
        iter                  A_solv                     rms
   LPB:       -0.455906674695502E+00   0.346124613778336E+01
   LPB:    0  -0.450931364593527E+00   0.273883129550171E+01  -0.188019E-01   0.000000E+00   0.281480E+02  -0.529235E+00
   LPB:    1  -0.360072950731704E+00   0.147204616176881E+01   0.141113E-01   0.000000E+00   0.924626E+02   0.240467E-16
   LPB:    2  -0.346661037055108E+00   0.341557468023139E+00   0.135677E-01   0.153528E+00   0.846193E+02  -0.279120E-14
   LPB:    3  -0.341594479167909E+00   0.205869554313845E+00   0.219735E-01   0.233254E+00   0.193066E+03  -0.342736E-14
   LPB:    4  -0.339466225802263E+00   0.198590018563116E+00   0.262852E-01   0.351154E+00   0.713207E+02  -0.388938E-14
   LPB:    5  -0.338091155765258E+00   0.162179962052609E+00   0.256369E-01   0.662439E+00   0.232732E+03  -0.362861E-14
   LPB:    6  -0.336932599041737E+00   0.634630416681746E-01   0.353813E-01   0.610500E+00   0.508006E+02  -0.320008E-14
  Finished solving LPB equations
  A_corr:   -0.266650380483062     
 End minimization
 Ecorr=   1772.62780923300     
 A_corr= -0.266650380483062     
 Ecorr_band=  -1772.89445961349     
 End Solvation calculations
RMM:  14    -0.138568523292E+03    0.87909E-02   -0.55520E-02 12499   0.759E-01    0.120E+00
 Begin Solvation calculations
  rms_SCF =   0.566411569369908      tol =   5.664115693699082E-002
 Begin minimization
 Creating dielectric and ionic cavities
  area:      133.798126087855     
  volume:    654.905382417863     
  Acav:     7.024401619612396E-002
  Solving linear dielectric/ionic screening model
        iter                  A_solv                     rms
   LPB:       -0.379346991050049E+00   0.139546963564516E+01
   LPB:    0  -0.378371406482726E+00   0.104539403424107E+01  -0.831995E-02   0.000000E+00   0.281873E+02  -0.234517E+00
   LPB:    1  -0.362978643516469E+00   0.630597728009839E+00   0.147491E-01   0.000000E+00   0.923059E+02  -0.118734E-16
   LPB:    2  -0.360518573040176E+00   0.165221523438714E+00   0.140864E-01   0.167339E+00   0.719831E+02  -0.734257E-14
   LPB:    3  -0.359570657844670E+00   0.104655769426559E+00   0.216985E-01   0.250146E+00   0.171700E+03  -0.848840E-14
   LPB:    4  -0.358716975385476E+00   0.144704008126681E+00   0.391024E-01   0.499750E+00   0.431602E+02  -0.899293E-14
   LPB:    5  -0.357751629683345E+00   0.140109330718651E+00   0.323179E-01   0.136819E+01   0.981864E+02  -0.990739E-14
   LPB:    6  -0.356951348846609E+00   0.621029258871097E-01   0.305538E-01   0.876873E+00   0.344828E+02  -0.103725E-13
   LPB:    7  -0.356546287586628E+00   0.247341109124387E-01   0.310495E-01   0.498069E+00   0.197624E+03  -0.876282E-14
  Finished solving LPB equations
  A_corr:   -0.286302271390504     
 End minimization
 Ecorr=   1755.18652202835     
 A_corr= -0.286302271390504     
 Ecorr_band=  -1755.47282429974     
 End Solvation calculations
RMM:  15    -0.138557390694E+03    0.11133E-01   -0.18110E-02 12982   0.441E-01    0.833E-01
 Begin Solvation calculations
  rms_SCF =   0.566411569369908      tol =   5.664115693699082E-002
 Begin minimization
 Creating dielectric and ionic cavities
  area:      133.665624876953     
  volume:    653.311846120837     
  Acav:     7.017445306040025E-002
  Solving linear dielectric/ionic screening model
        iter                  A_solv                     rms
   LPB:       -0.470082408488640E+00   0.279923183940622E+01
   LPB:    0  -0.464910439400017E+00   0.193109030230252E+01  -0.191312E-01   0.000000E+00   0.282620E+02  -0.540685E+00
   LPB:    1  -0.411704183259540E+00   0.107319770981029E+01   0.151774E-01   0.000000E+00   0.837910E+02   0.419631E-16
   LPB:    2  -0.404027644377378E+00   0.285477956042623E+00   0.139394E-01   0.157093E+00   0.775013E+02  -0.801889E-14
   LPB:    3  -0.401724284708026E+00   0.173598940892344E+00   0.192007E-01   0.217833E+00   0.234159E+03  -0.875081E-14
   LPB:    4  -0.400849838099519E+00   0.132851944316072E+00   0.221564E-01   0.328995E+00   0.714251E+02  -0.898497E-14
   LPB:    5  -0.400212099875272E+00   0.102469857076151E+00   0.275912E-01   0.585650E+00   0.214713E+03  -0.963150E-14
   LPB:    6  -0.399618256305453E+00   0.411757315121805E-01   0.388173E-01   0.661875E+00   0.505441E+02  -0.960521E-14
  Finished solving LPB equations
  A_corr:   -0.329443803245052     
 End minimization
 Ecorr=   1738.08417342824     
 A_corr= -0.329443803245052     
 Ecorr_band=  -1738.41361723148     
 End Solvation calculations
RMM:  16    -0.138556225690E+03    0.11650E-02   -0.21581E-02 12465   0.417E-01    0.456E-01
 Begin Solvation calculations
  rms_SCF =   0.453151863338430      tol =   4.531518633384303E-002
 Begin minimization
 Creating dielectric and ionic cavities
  area:      134.028737655416     
  volume:    652.062201851261     
  Acav:     7.036508726909323E-002
  Solving linear dielectric/ionic screening model
        iter                  A_solv                     rms
   LPB:       -0.516052278583867E+00   0.276039188614168E+01
   LPB:    0  -0.511421642019367E+00   0.196360224037236E+01  -0.180836E-01   0.000000E+00   0.283206E+02  -0.512138E+00
   LPB:    1  -0.459221464085039E+00   0.122128493605130E+01   0.147542E-01   0.000000E+00   0.863943E+02   0.294116E-16
   LPB:    2  -0.450759302574929E+00   0.269576480600357E+00   0.135117E-01   0.177017E+00   0.671780E+02  -0.266138E-14
   LPB:    3  -0.448212424149769E+00   0.189382315357775E+00   0.206825E-01   0.196622E+00   0.215629E+03  -0.293190E-14
   LPB:    4  -0.446799531804803E+00   0.169399958625049E+00   0.274058E-01   0.418661E+00   0.567518E+02  -0.294716E-14
   LPB:    5  -0.445584674254648E+00   0.136672777726020E+00   0.296039E-01   0.795993E+00   0.170923E+03  -0.334705E-14
   LPB:    6  -0.444525097445307E+00   0.571178111309977E-01   0.345929E-01   0.746397E+00   0.514646E+02  -0.315899E-14
   LPB:    7  -0.443806787660844E+00   0.281870481940492E-01   0.365791E-01   0.641110E+00   0.144341E+03  -0.407153E-14
  Finished solving LPB equations
  A_corr:   -0.373441700391751     
 End minimization
 Ecorr=   1716.22678099015     
 A_corr= -0.373441700391751     
 Ecorr_band=  -1716.60022269054     
 End Solvation calculations
RMM:  17    -0.138560070007E+03   -0.38443E-02   -0.12220E-02 12486   0.278E-01    0.276E-01
 Begin Solvation calculations
  rms_SCF =   0.453151863338430      tol =   4.531518633384303E-002
 Begin minimization
 Creating dielectric and ionic cavities
  area:      134.263212447390     
  volume:    651.841964561867     
  Acav:     7.048818653487997E-002
  Solving linear dielectric/ionic screening model
        iter                  A_solv                     rms
   LPB:       -0.467960543673393E+00   0.106639968447531E+01
   LPB:    0  -0.467199258826512E+00   0.756253190936031E+00  -0.733091E-02   0.000000E+00   0.283309E+02  -0.207692E+00
   LPB:    1  -0.459515588736905E+00   0.281256847535990E+00   0.169464E-01   0.000000E+00   0.675489E+02  -0.587153E-17
   LPB:    2  -0.458542067506444E+00   0.122372285625721E+00   0.152309E-01   0.140970E+00   0.955008E+02  -0.269068E-14
   LPB:    3  -0.458209767890160E+00   0.771806743429287E-01   0.215097E-01   0.241699E+00   0.143367E+03  -0.353594E-14
   LPB:    4  -0.458008195747235E+00   0.982185827789549E-01   0.279768E-01   0.466378E+00   0.650596E+02  -0.385521E-14
   LPB:    5  -0.457687563255467E+00   0.825593562558482E-01   0.358066E-01   0.124283E+01   0.113252E+03  -0.416125E-14
   LPB:    6  -0.457251986858571E+00   0.334277935156193E-01   0.394277E-01   0.123372E+01   0.348031E+02  -0.449202E-14
  Finished solving LPB equations
  A_corr:   -0.386763800323691     
 End minimization
 Ecorr=   1707.48447092746     
 A_corr= -0.386763800323691     
 Ecorr_band=  -1707.87123472779     
 End Solvation calculations
RMM:  18    -0.138561573954E+03   -0.15039E-02   -0.26841E-03 13572   0.143E-01    0.277E-01
 Begin Solvation calculations
  rms_SCF =   0.453151863338430      tol =   4.531518633384303E-002
 Begin minimization
 Creating dielectric and ionic cavities
  area:      134.781047464280     
  volume:    651.549633910799     
  Acav:     7.076004991874706E-002
  Solving linear dielectric/ionic screening model
        iter                  A_solv                     rms
   LPB:       -0.503541740510694E+00   0.181161005254483E+01
   LPB:    0  -0.500913581837883E+00   0.126112042727992E+01  -0.136177E-01   0.000000E+00   0.283446E+02  -0.385990E+00
   LPB:    1  -0.482277576610747E+00   0.344730934283049E+00   0.169342E-01   0.000000E+00   0.617226E+02   0.340065E-17
   LPB:    2  -0.480219607144438E+00   0.145195899815804E+00   0.152701E-01   0.122464E+00   0.129718E+03   0.165350E-14
   LPB:    3  -0.479673855623602E+00   0.673611374157573E-01   0.218167E-01   0.185613E+00   0.976110E+02   0.847704E-15
   LPB:    4  -0.479386684317186E+00   0.754938317777933E-01   0.296640E-01   0.386994E+00   0.106953E+03   0.375685E-15
   LPB:    5  -0.479191985124608E+00   0.101475671125152E+00   0.260800E-01   0.771162E+00   0.120442E+03   0.263066E-15
   LPB:    6  -0.479022911080073E+00   0.445305016798971E-01   0.236818E-01   0.956328E+00   0.520569E+02   0.192015E-15
  Finished solving LPB equations
  A_corr:   -0.408262861161326     
 End minimization
 Ecorr=   1699.55876672514     
 A_corr= -0.408262861161326     
 Ecorr_band=  -1699.96702958630     
 End Solvation calculations
RMM:  19    -0.138564252138E+03   -0.26782E-02   -0.30803E-03 12235   0.121E-01    0.238E-01
 Begin Solvation calculations
  rms_SCF =   0.398257248082130      tol =   3.982572480821297E-002
 Begin minimization
 Creating dielectric and ionic cavities
  area:      135.837574791891     
  volume:    651.222980652369     
  Acav:     7.131472676574278E-002
  Solving linear dielectric/ionic screening model
        iter                  A_solv                     rms
   LPB:       -0.621563454994244E+00   0.356092796828810E+01
   LPB:    0  -0.611649994377671E+00   0.247405989077425E+01  -0.264408E-01   0.000000E+00   0.283600E+02  -0.749860E+00
   LPB:    1  -0.540501055272039E+00   0.782884260991525E+00   0.168657E-01   0.000000E+00   0.607580E+02   0.205479E-16
   LPB:    2  -0.532237682217406E+00   0.322572403629269E+00   0.149058E-01   0.131413E+00   0.103960E+03   0.208375E-13
   LPB:    3  -0.529814287588641E+00   0.216278971123973E+00   0.216231E-01   0.202164E+00   0.122848E+03   0.226922E-13
   LPB:    4  -0.528694194327053E+00   0.191095436950978E+00   0.231966E-01   0.430849E+00   0.752593E+02   0.242424E-13
   LPB:    5  -0.527865991509768E+00   0.129099035547847E+00   0.239130E-01   0.717254E+00   0.182879E+03   0.251806E-13
   LPB:    6  -0.527138334090218E+00   0.464050711005796E-01   0.308131E-01   0.681849E+00   0.714239E+02   0.263091E-13
   LPB:    7  -0.526589431256137E+00   0.229667484209651E-01   0.371048E-01   0.626433E+00   0.147793E+03   0.272959E-13
  Finished solving LPB equations
  A_corr:   -0.455274704490395     
 End minimization
 Ecorr=   1682.35782026947     
 A_corr= -0.455274704490395     
 Ecorr_band=  -1682.81309497396     
 End Solvation calculations
RMM:  20    -0.138569753494E+03   -0.55014E-02   -0.76223E-03 12279   0.185E-01    0.212E-01
 Begin Solvation calculations
  rms_SCF =   0.398257248082130      tol =   3.982572480821297E-002
 Begin minimization
 Creating dielectric and ionic cavities
  area:      136.351821301025     
  volume:    651.257256780194     
  Acav:     7.158470618303832E-002
  Solving linear dielectric/ionic screening model
        iter                  A_solv                     rms
   LPB:       -0.584026466092031E+00   0.221957747880324E+01
   LPB:    0  -0.580389992421190E+00   0.162550101754239E+01  -0.160146E-01   0.000000E+00   0.283583E+02  -0.454146E+00
   LPB:    1  -0.556682020064788E+00   0.346791055072497E+00   0.165902E-01   0.000000E+00   0.518138E+02   0.150517E-16
   LPB:    2  -0.554033572042266E+00   0.169325555582367E+00   0.152955E-01   0.121167E+00   0.185754E+03   0.335475E-14
   LPB:    3  -0.553288508076518E+00   0.762321863448908E-01   0.214733E-01   0.200385E+00   0.854115E+02   0.276925E-14
   LPB:    4  -0.552911354030178E+00   0.130987307027629E+00   0.280100E-01   0.388071E+00   0.147884E+03   0.236293E-14
   LPB:    5  -0.552549104721103E+00   0.129000502418706E+00   0.274381E-01   0.980502E+00   0.629784E+02   0.220280E-14
   LPB:    6  -0.552097989719439E+00   0.516841161025055E-01   0.321103E-01   0.106412E+01   0.568578E+02   0.206985E-14
   LPB:    7  -0.551753544721706E+00   0.236348892066565E-01   0.338422E-01   0.724467E+00   0.911600E+02   0.112487E-14
  Finished solving LPB equations
  A_corr:   -0.480168838538668     
 End minimization
 Ecorr=   1671.59427991884     
 A_corr= -0.480168838538668     
 Ecorr_band=  -1672.07444875738     
 End Solvation calculations
RMM:  21    -0.138571733669E+03   -0.19802E-02   -0.20786E-03 11950   0.109E-01    0.218E-01
 Begin Solvation calculations
  rms_SCF =   0.398257248082130      tol =   3.982572480821297E-002
 Begin minimization
 Creating dielectric and ionic cavities
  area:      136.565268559244     
  volume:    651.367975263116     
  Acav:     7.169676599360324E-002
  Solving linear dielectric/ionic screening model
        iter                  A_solv                     rms
   LPB:       -0.573605647387320E+00   0.141781824432591E+01
   LPB:    0  -0.572460951739276E+00   0.115816975087468E+01  -0.898585E-02   0.000000E+00   0.283532E+02  -0.254777E+00
   LPB:    1  -0.564631514763556E+00   0.274740738658314E+00   0.147818E-01   0.000000E+00   0.471182E+02  -0.142342E-16
   LPB:    2  -0.563661244980978E+00   0.103856337982774E+00   0.128816E-01   0.142206E+00   0.222598E+03  -0.465659E-15
   LPB:    3  -0.563433197241690E+00   0.473936791545383E-01   0.177535E-01   0.170537E+00   0.139892E+03  -0.325125E-15
   LPB:    4  -0.563351657173877E+00   0.448527712430895E-01   0.236907E-01   0.267948E+00   0.880566E+02  -0.334863E-15
   LPB:    5  -0.563269597154400E+00   0.443889430637138E-01   0.358795E-01   0.664496E+00   0.101372E+03  -0.453182E-15
   LPB:    6  -0.563133905669105E+00   0.235119058478827E-01   0.469784E-01   0.126290E+01   0.416759E+02  -0.467719E-15
  Finished solving LPB equations
  A_corr:   -0.491437139675502     
 End minimization
 Ecorr=   1667.50672395963     
 A_corr= -0.491437139675502     
 Ecorr_band=  -1667.99816109931     
 End Solvation calculations
RMM:  22    -0.138571789453E+03   -0.55784E-04   -0.85035E-04 10053   0.613E-02
 Begin Solvation calculations
  rms_SCF =   0.398257248082130      tol =   3.982572480821297E-002
 Begin minimization
 Creating dielectric and ionic cavities
  area:      136.926740464916     
  volume:    651.611891622432     
  Acav:     7.188653874408107E-002
  Solving linear dielectric/ionic screening model
        iter                  A_solv                     rms
   LPB:       -0.618392143825018E+00   0.267971554161494E+01
   LPB:    0  -0.614708817036749E+00   0.224815860105982E+01  -0.161221E-01   0.000000E+00   0.283417E+02  -0.456928E+00
   LPB:    1  -0.588151734152799E+00   0.505363743738948E+00   0.141010E-01   0.000000E+00   0.474820E+02   0.414137E-16
   LPB:    2  -0.584838737568441E+00   0.191106537136369E+00   0.127677E-01   0.137778E+00   0.209220E+03  -0.324218E-14
   LPB:    3  -0.584117426405410E+00   0.749814228329528E-01   0.173086E-01   0.160602E+00   0.128719E+03  -0.392457E-14
   LPB:    4  -0.583847560752880E+00   0.724727035103867E-01   0.255119E-01   0.253830E+00   0.862468E+02  -0.407612E-14
   LPB:    5  -0.583681658252672E+00   0.586221245470931E-01   0.273662E-01   0.573103E+00   0.110129E+03  -0.427980E-14
   LPB:    6  -0.583535884360854E+00   0.237783234351760E-01   0.324913E-01   0.740072E+00   0.641245E+02  -0.400240E-14
  Finished solving LPB equations
  A_corr:   -0.511649345616773     
 End minimization
 Ecorr=   1661.50581677746     
 A_corr= -0.511649345616773     
 Ecorr_band=  -1662.01746612308     
 End Solvation calculations
   1 F= -.13857179E+03 E0= -.13857458E+03  d E =-.138572E+03
quench:  g(F)=  0.000E+00 g(S)=  0.000E+00 dE (1.order)= 0.000E+00
 bond charge predicted
       N       E                     dE             d eps       ncg     rms          rms(c)
 Begin Solvation calculations
  rms_SCF =   0.398257248082130      tol =   3.982572480821297E-002
 Begin minimization
 Creating dielectric and ionic cavities
  area:      137.144901394236     
  volume:    651.657873375805     
  Acav:     7.200107323197386E-002
  Solving linear dielectric/ionic screening model
        iter                  A_solv                     rms
   LPB:       -0.600051449267793E+00   0.258543086492882E-01
   LPB:    0  -0.600051449025924E+00   0.257437418360400E-01   0.413151E-05   0.000000E+00   0.283396E+02   0.117085E-03
   LPB:    1  -0.587052683527613E+00   0.181111102550237E-01   0.162245E-01   0.000000E+00   0.129011E+06  -0.465376E-20
   LPB:    2  -0.585390623621612E+00   0.264645028135817E-01   0.278671E-01   0.744432E-01   0.108100E+05   0.240096E-16
   LPB:    3  -0.584822606083135E+00   0.548650495945873E-01   0.324665E-01   0.293340E+00   0.183502E+04   0.977182E-16
   LPB:    4  -0.584581800003025E+00   0.864472187042842E-01   0.291028E-01   0.472940E+00   0.190858E+03   0.707026E-16
   LPB:    5  -0.584443871230783E+00   0.557192571376678E-01   0.220663E-01   0.755426E+00   0.164011E+03   0.690677E-16
   LPB:    6  -0.584333474897223E+00   0.547963904890269E-01   0.287020E-01   0.615344E+00   0.286013E+03  -0.714173E-16
   LPB:    7  -0.584265742162083E+00   0.465626907933303E-01   0.237282E-01   0.742149E+00   0.771613E+02  -0.256752E-15
   LPB:    8  -0.584202314715554E+00   0.205901319087140E-01   0.282169E-01   0.787470E+00   0.331304E+03  -0.141557E-15
  Finished solving LPB equations
  A_corr:   -0.512201241483580     
 End minimization
 Ecorr=   1660.24011437035     
 A_corr= -0.512201241483580     
 Ecorr_band=  -1660.75231561184     
 End Solvation calculations
DAV:   1    -0.138579753864E+03   -0.80202E-02   -0.11686E+00 13194   0.189E+00    0.374E-01
 Begin Solvation calculations
  rms_SCF =   0.190819770601074      tol =   1.908197706010740E-002
 Begin minimization
 Creating dielectric and ionic cavities
  area:      136.980431215954     
  volume:    651.309087871767     
  Acav:     7.191472638837598E-002
  Solving linear dielectric/ionic screening model
        iter                  A_solv                     rms
   LPB:       -0.602161748894347E+00   0.121492440369528E+01
   LPB:    0  -0.599739444255035E+00   0.578666915858275E+00  -0.130710E-01   0.000000E+00   0.283559E+02  -0.370639E+00
   LPB:    1  -0.596569911619052E+00   0.168166202526047E+00   0.149092E-01   0.000000E+00   0.549171E+02   0.727995E-17
   LPB:    2  -0.596058507255229E+00   0.445150851628878E-01   0.158825E-01   0.151462E+00   0.180102E+03   0.137848E-14
   LPB:    3  -0.595910227975535E+00   0.148078547352503E-01   0.263197E-01   0.174966E+00   0.163360E+03   0.180438E-14
   LPB:    4  -0.595845688095322E+00   0.161021546259181E-01   0.308547E-01   0.371285E+00   0.363355E+03   0.170257E-14
  Finished solving LPB equations
  A_corr:   -0.523930961706946     
 End minimization
 Ecorr=   1659.52002896344     
 A_corr= -0.523930961706946     
 Ecorr_band=  -1660.04395992515     
 End Solvation calculations
RMM:   2    -0.138588671183E+03   -0.89173E-02   -0.94394E-02 14920   0.591E-01    0.562E-01
 Begin Solvation calculations
  rms_SCF =   0.190819770601074      tol =   1.908197706010740E-002
 Begin minimization
 Creating dielectric and ionic cavities
  area:      136.970187475925     
  volume:    651.472253480973     
  Acav:     7.190934842486059E-002
  Solving linear dielectric/ionic screening model
        iter                  A_solv                     rms
   LPB:       -0.596134801825656E+00   0.505649565137582E+00
   LPB:    0  -0.596085916073514E+00   0.491052918343052E+00   0.185713E-02   0.000000E+00   0.283483E+02   0.526465E-01
   LPB:    1  -0.595424624112388E+00   0.616318900397493E-01   0.975797E-02   0.000000E+00   0.575092E+02   0.299308E-17
   LPB:    2  -0.595333432685016E+00   0.183459827519544E-01   0.149533E-01   0.899880E-01   0.172128E+03  -0.591374E-16
   LPB:    3  -0.595309549726647E+00   0.165371332387184E-01   0.289775E-01   0.135148E+00   0.887552E+02  -0.809065E-16
   LPB:    4  -0.595288741586956E+00   0.230480691612017E-01   0.380186E-01   0.664065E+00   0.185344E+03  -0.126689E-15
   LPB:    5  -0.595269190251155E+00   0.144101672639075E-01   0.307351E-01   0.116227E+01   0.613847E+02  -0.172080E-15
  Finished solving LPB equations
  A_corr:   -0.523359841826295     
 End minimization
 Ecorr=   1658.16083836362     
 A_corr= -0.523359841826295     
 Ecorr_band=  -1658.68419820545     
 End Solvation calculations
RMM:   3    -0.138585443767E+03    0.32274E-02   -0.69804E-03 13084   0.222E-01    0.367E-01
 Begin Solvation calculations
  rms_SCF =   0.190819770601074      tol =   1.908197706010740E-002
 Begin minimization
 Creating dielectric and ionic cavities
  area:      136.989120068721     
  volume:    651.474342890426     
  Acav:     7.191928803607843E-002
  Solving linear dielectric/ionic screening model
        iter                  A_solv                     rms
   LPB:       -0.598819708258237E+00   0.570333982649287E+00
   LPB:    0  -0.598747004404872E+00   0.540331821154751E+00  -0.226481E-02   0.000000E+00   0.283482E+02  -0.642031E-01
   LPB:    1  -0.597966197516483E+00   0.472598855573780E-01   0.868486E-02   0.000000E+00   0.697578E+02  -0.845806E-18
   LPB:    2  -0.597902908663361E+00   0.109658802265617E-01   0.167682E-01   0.419816E-01   0.121791E+03  -0.349403E-15
   LPB:    3  -0.597882657939814E+00   0.131113966293485E-01   0.311896E-01   0.172024E+00   0.471702E+03  -0.473937E-15
   LPB:    4  -0.597874279830178E+00   0.137901600523656E-01   0.276958E-01   0.465910E+00   0.812998E+02  -0.433746E-15
  Finished solving LPB equations
  A_corr:   -0.525954991794100     
 End minimization
 Ecorr=   1657.76861209893     
 A_corr= -0.525954991794100     
 Ecorr_band=  -1658.29456709073     
 End Solvation calculations
RMM:   4    -0.138584983301E+03    0.46047E-03   -0.22868E-03 12610   0.139E-01    0.295E-01
 Begin Solvation calculations
  rms_SCF =   0.190819770601074      tol =   1.908197706010740E-002
 Begin minimization
 Creating dielectric and ionic cavities
  area:      136.969764411872     
  volume:    651.459287273917     
  Acav:     7.190912631623264E-002
  Solving linear dielectric/ionic screening model
        iter                  A_solv                     rms
   LPB:       -0.604530109887695E+00   0.664927034745833E+00
   LPB:    0  -0.604193309391257E+00   0.528383217613469E+00  -0.487454E-02   0.000000E+00   0.283489E+02  -0.138188E+00
   LPB:    1  -0.603121682760475E+00   0.126884785136247E+00   0.119164E-01   0.000000E+00   0.488772E+02  -0.571151E-17
   LPB:    2  -0.602897583303446E+00   0.269049653547627E-01   0.141320E-01   0.176335E+00   0.127787E+03  -0.131866E-14
   LPB:    3  -0.602859062315662E+00   0.187889640299841E-01   0.211686E-01   0.114754E+00   0.200067E+03  -0.147187E-14
   LPB:    4  -0.602841996964150E+00   0.144105320178125E-01   0.259080E-01   0.361973E+00   0.803710E+02  -0.150063E-14
  Finished solving LPB equations
  A_corr:   -0.530932870647917     
 End minimization
 Ecorr=   1656.98213684522     
 A_corr= -0.530932870647917     
 Ecorr_band=  -1657.51306971587     
 End Solvation calculations
RMM:   5    -0.138584127227E+03    0.85607E-03   -0.79401E-04  9931   0.939E-02    0.152E-01
 Begin Solvation calculations
  rms_SCF =   7.529722876842826E-002 tol =   7.529722876842826E-003
 Begin minimization
 Creating dielectric and ionic cavities
  area:      136.987197013417     
  volume:    651.522932695895     
  Acav:     7.191827843204393E-002
  Solving linear dielectric/ionic screening model
        iter                  A_solv                     rms
   LPB:       -0.614582092610679E+00   0.734464965776710E+00
   LPB:    0  -0.613870388750741E+00   0.399745138079368E+00  -0.708630E-02   0.000000E+00   0.283459E+02  -0.200868E+00
   LPB:    1  -0.612109436251971E+00   0.191523725432890E+00   0.148743E-01   0.000000E+00   0.652669E+02  -0.107150E-16
   LPB:    2  -0.611863081088534E+00   0.518020480364109E-01   0.132716E-01   0.156794E+00   0.742609E+02   0.211968E-14
   LPB:    3  -0.611789589449796E+00   0.386690359287372E-01   0.210281E-01   0.188278E+00   0.229619E+03   0.240335E-14
   LPB:    4  -0.611752714636127E+00   0.246048140426725E-01   0.231937E-01   0.454906E+00   0.576953E+02   0.251476E-14
   LPB:    5  -0.611727750604445E+00   0.148938049912643E-01   0.277464E-01   0.565912E+00   0.220322E+03   0.252312E-14
   LPB:    6  -0.611709188069730E+00   0.758125761738151E-02   0.328028E-01   0.628954E+00   0.911705E+02   0.243506E-14
   LPB:    7  -0.611694714179834E+00   0.650545627077872E-02   0.374147E-01   0.683622E+00   0.118846E+03   0.238567E-14
  Finished solving LPB equations
  A_corr:   -0.539776435747791     
 End minimization
 Ecorr=   1654.41456126027     
 A_corr= -0.539776435747791     
 Ecorr_band=  -1654.95433769602     
 End Solvation calculations
RMM:   6    -0.138584508679E+03   -0.38145E-03   -0.10341E-03 12050   0.141E-01    0.153E-01
 Begin Solvation calculations
  rms_SCF =   7.529722876842826E-002 tol =   7.529722876842826E-003
 Begin minimization
 Creating dielectric and ionic cavities
  area:      137.040690626402     
  volume:    651.630155436440     
  Acav:     7.194636257886090E-002
  Solving linear dielectric/ionic screening model
        iter                  A_solv                     rms
   LPB:       -0.617806735191318E+00   0.615568749285582E+00
   LPB:    0  -0.617628368209893E+00   0.522832116665054E+00  -0.354785E-02   0.000000E+00   0.283409E+02  -0.100549E+00
   LPB:    1  -0.616568214989907E+00   0.123781071616965E+00   0.122921E-01   0.000000E+00   0.461415E+02  -0.379919E-17
   LPB:    2  -0.616367399520936E+00   0.271807419602138E-01   0.135028E-01   0.172436E+00   0.135370E+03  -0.921352E-15
   LPB:    3  -0.616333326371733E+00   0.156484486616080E-01   0.197659E-01   0.115910E+00   0.198578E+03  -0.114204E-14
   LPB:    4  -0.616321764334326E+00   0.121446851328582E-01   0.247621E-01   0.270865E+00   0.805194E+02  -0.117720E-14
   LPB:    5  -0.616314108165586E+00   0.135496320039250E-01   0.311497E-01   0.526392E+00   0.126849E+03  -0.112874E-14
   LPB:    6  -0.616305380320061E+00   0.722936995110006E-02   0.363376E-01   0.977222E+00   0.435801E+02  -0.103695E-14
  Finished solving LPB equations
  A_corr:   -0.544359017741200     
 End minimization
 Ecorr=   1652.75173715056     
 A_corr= -0.544359017741200     
 Ecorr_band=  -1653.29609616830     
 End Solvation calculations
RMM:   7    -0.138584287902E+03    0.22078E-03   -0.37757E-04  7915   0.662E-02    0.852E-02
 Begin Solvation calculations
  rms_SCF =   7.529722876842826E-002 tol =   7.529722876842826E-003
 Begin minimization
 Creating dielectric and ionic cavities
  area:      137.093580870703     
  volume:    651.658333827617     
  Acav:     7.197412995711917E-002
  Solving linear dielectric/ionic screening model
        iter                  A_solv                     rms
   LPB:       -0.620419561240877E+00   0.355077253690151E+00
   LPB:    0  -0.620279274152888E+00   0.223980408791485E+00  -0.314650E-02   0.000000E+00   0.283395E+02  -0.891703E-01
   LPB:    1  -0.619935401003995E+00   0.444622086320092E-01   0.150197E-01   0.000000E+00   0.445588E+02   0.254069E-17
   LPB:    2  -0.619893740115548E+00   0.225030054443665E-01   0.145042E-01   0.125458E+00   0.231156E+03   0.381864E-16
   LPB:    3  -0.619884835021082E+00   0.143800716000146E-01   0.181963E-01   0.170380E+00   0.884158E+02   0.293275E-16
   LPB:    4  -0.619878835869847E+00   0.142060727254397E-01   0.273151E-01   0.448779E+00   0.647217E+02  -0.173276E-16
   LPB:    5  -0.619872151355474E+00   0.116972467246553E-01   0.328833E-01   0.925567E+00   0.638222E+02  -0.512077E-16
   LPB:    6  -0.619864402105008E+00   0.535911606401228E-02   0.347330E-01   0.109754E+01   0.398386E+02  -0.942346E-16
  Finished solving LPB equations
  A_corr:   -0.547890272147889     
 End minimization
 Ecorr=   1651.48319777849     
 A_corr= -0.547890272147889     
 Ecorr_band=  -1652.03108805064     
 End Solvation calculations
RMM:   8    -0.138584396426E+03   -0.10852E-03   -0.10746E-04  6931   0.467E-02    0.741E-02
 Begin Solvation calculations
  rms_SCF =   7.529722876842826E-002 tol =   7.529722876842826E-003
 Begin minimization
 Creating dielectric and ionic cavities
  area:      137.132852457034     
  volume:    651.694798075355     
  Acav:     7.199474753994307E-002
  Solving linear dielectric/ionic screening model
        iter                  A_solv                     rms
   LPB:       -0.622643288167602E+00   0.273421562317757E+00
   LPB:    0  -0.622589024548134E+00   0.207475444189186E+00  -0.195698E-02   0.000000E+00   0.283378E+02  -0.554565E-01
   LPB:    1  -0.622370448470376E+00   0.482367239929116E-01   0.137494E-01   0.000000E+00   0.443536E+02   0.445851E-17
   LPB:    2  -0.622339580992894E+00   0.170752581796230E-01   0.129115E-01   0.150385E+00   0.188519E+03   0.131001E-15
   LPB:    3  -0.622333830407549E+00   0.807403433574864E-02   0.169995E-01   0.141499E+00   0.140072E+03   0.131303E-15
   LPB:    4  -0.622330994186931E+00   0.774723631279203E-02   0.295379E-01   0.283847E+00   0.627932E+02   0.132841E-15
   LPB:    5  -0.622327845552658E+00   0.848753251124553E-02   0.374807E-01   0.874892E+00   0.750266E+02   0.149322E-15
   LPB:    6  -0.622323248742535E+00   0.446711748341061E-02   0.402205E-01   0.136049E+01   0.316418E+02   0.212181E-15
  Finished solving LPB equations
  A_corr:   -0.550328501202592     
 End minimization
 Ecorr=   1650.51431343625     
 A_corr= -0.550328501202592     
 Ecorr_band=  -1651.06464193745     
 End Solvation calculations
RMM:   9    -0.138584476575E+03   -0.80149E-04   -0.64837E-05  6709   0.365E-02
 Begin Solvation calculations
  rms_SCF =   7.529722876842826E-002 tol =   7.529722876842826E-003
 Begin minimization
 Creating dielectric and ionic cavities
  area:      137.260508807921     
  volume:    651.793288009009     
  Acav:     7.206176712415828E-002
  Solving linear dielectric/ionic screening model
        iter                  A_solv                     rms
   LPB:       -0.632952440068477E+00   0.874411005517146E+00
   LPB:    0  -0.632401570913213E+00   0.664141779575382E+00  -0.623579E-02   0.000000E+00   0.283332E+02  -0.176680E+00
   LPB:    1  -0.630268223775669E+00   0.151053032207988E+00   0.135305E-01   0.000000E+00   0.435951E+02   0.619704E-17
   LPB:    2  -0.629961227675759E+00   0.522863785282277E-01   0.129545E-01   0.150302E+00   0.183402E+03   0.319440E-14
   LPB:    3  -0.629903158713325E+00   0.262193047073715E-01   0.173427E-01   0.141291E+00   0.140811E+03   0.372771E-14
   LPB:    4  -0.629882371534924E+00   0.178294619351299E-01   0.232926E-01   0.266533E+00   0.736638E+02   0.382721E-14
   LPB:    5  -0.629871527483174E+00   0.122156162580084E-01   0.255720E-01   0.475170E+00   0.140082E+03   0.395557E-14
   LPB:    6  -0.629863090318905E+00   0.452790065741705E-02   0.319613E-01   0.622508E+00   0.690429E+02   0.399437E-14
  Finished solving LPB equations
  A_corr:   -0.557801323194747     
 End minimization
 Ecorr=   1648.36316603384     
 A_corr= -0.557801323194747     
 Ecorr_band=  -1648.92096735704     
 End Solvation calculations
   2 F= -.13858448E+03 E0= -.13858724E+03  d E =-.126871E-01
quench:  g(F)=  0.000E+00 g(S)=  0.000E+00 dE (1.order)= 0.000E+00
 bond charge predicted
       N       E                     dE             d eps       ncg     rms          rms(c)
 Begin Solvation calculations
  rms_SCF =   7.529722876842826E-002 tol =   7.529722876842826E-003
 Begin minimization
 Creating dielectric and ionic cavities
  area:      137.367611397905     
  volume:    651.726619988622     
  Acav:     7.211799598390015E-002
  Solving linear dielectric/ionic screening model
        iter                  A_solv                     rms
   LPB:       -0.634776040898340E+00   0.852782913148068E-02
   LPB:    0  -0.634776040291495E+00   0.871618473669601E-02  -0.654458E-05   0.000000E+00   0.283363E+02  -0.185450E-03
   LPB:    1  -0.631854808625660E+00   0.612215900997539E-02   0.159976E-01   0.000000E+00   0.235837E+06   0.678167E-20
   LPB:    2  -0.631508522446406E+00   0.737876313463269E-02   0.276941E-01   0.684758E-01   0.178223E+05  -0.142981E-17
   LPB:    3  -0.631391466150497E+00   0.163200406307170E-01   0.328808E-01   0.284711E+00   0.483150E+04  -0.231083E-16
   LPB:    4  -0.631340944945948E+00   0.304068155435909E-01   0.325331E-01   0.436211E+00   0.305004E+03  -0.507235E-16
   LPB:    5  -0.631317491859037E+00   0.292055722313052E-01   0.228170E-01   0.661901E+00   0.164061E+03  -0.528902E-16
   LPB:    6  -0.631299121602835E+00   0.184464930711455E-01   0.250574E-01   0.713242E+00   0.206901E+03  -0.156349E-15
   LPB:    7  -0.631287699791791E+00   0.203730817039028E-01   0.267907E-01   0.581531E+00   0.987375E+02  -0.559756E-16
   LPB:    8  -0.631279050305108E+00   0.101860471228719E-01   0.236946E-01   0.856230E+00   0.286007E+03  -0.438846E-16
   LPB:    9  -0.631271543409967E+00   0.285699661052802E-02   0.359130E-01   0.572621E+00   0.145873E+03  -0.143756E-16
  Finished solving LPB equations
  A_corr:   -0.559153547426067     
 End minimization
 Ecorr=   1647.66197222104     
 A_corr= -0.559153547426067     
 Ecorr_band=  -1648.22112576847     
 End Solvation calculations
DAV:   1    -0.138587471561E+03   -0.30751E-02   -0.22829E-01 12762   0.994E-01    0.126E-01
 Begin Solvation calculations
  rms_SCF =   6.504639880298470E-002 tol =   6.504639880298470E-003
 Begin minimization
 Creating dielectric and ionic cavities
  area:      137.316375175216     
  volume:    651.726162213764     
  Acav:     7.209109696698830E-002
  Solving linear dielectric/ionic screening model
        iter                  A_solv                     rms
   LPB:       -0.634900728393284E+00   0.428521387655477E+00
   LPB:    0  -0.634822698931219E+00   0.371740618322320E+00  -0.234678E-02   0.000000E+00   0.283364E+02  -0.664992E-01
   LPB:    1  -0.634365933741527E+00   0.710375575185911E-01   0.111849E-01   0.000000E+00   0.482776E+02  -0.239484E-17
   LPB:    2  -0.634281346082610E+00   0.167481534210936E-01   0.143858E-01   0.143983E+00   0.130176E+03  -0.327526E-15
   LPB:    3  -0.634266026425545E+00   0.114535900392971E-01   0.204309E-01   0.127524E+00   0.208718E+03  -0.352512E-15
   LPB:    4  -0.634259677478979E+00   0.104387897194665E-01   0.263668E-01   0.321131E+00   0.855503E+02  -0.368649E-15
   LPB:    5  -0.634255785090776E+00   0.786654136515303E-02   0.274047E-01   0.589858E+00   0.166143E+03  -0.456084E-15
   LPB:    6  -0.634252348498826E+00   0.316652797169239E-02   0.339500E-01   0.712684E+00   0.924976E+02  -0.472394E-15
  Finished solving LPB equations
  A_corr:   -0.562161251531838     
 End minimization
 Ecorr=   1646.83312180882     
 A_corr= -0.562161251531838     
 Ecorr_band=  -1647.39528306036     
 End Solvation calculations
RMM:   2    -0.138589005923E+03   -0.15344E-02   -0.13759E-02 15552   0.277E-01    0.163E-01
 Begin Solvation calculations
  rms_SCF =   6.504639880298470E-002 tol =   6.504639880298470E-003
 Begin minimization
 Creating dielectric and ionic cavities
  area:      137.332667148909     
  volume:    651.734468107512     
  Acav:     7.209965025317706E-002
  Solving linear dielectric/ionic screening model
        iter                  A_solv                     rms
   LPB:       -0.635162052992278E+00   0.326944059097443E+00
   LPB:    0  -0.635159085559161E+00   0.324138909569508E+00  -0.457653E-03   0.000000E+00   0.283360E+02  -0.129680E-01
   LPB:    1  -0.634903997351733E+00   0.251883426904495E-01   0.848660E-02   0.000000E+00   0.670850E+02  -0.283404E-18
   LPB:    2  -0.634888702631123E+00   0.566965703260593E-02   0.165266E-01   0.307895E-01   0.112905E+03   0.943143E-16
   LPB:    3  -0.634885346703471E+00   0.758023188294349E-02   0.287018E-01   0.126341E+00   0.185777E+03   0.346704E-16
   LPB:    4  -0.634883457026632E+00   0.574091507662179E-02   0.302531E-01   0.534214E+00   0.761889E+02   0.409442E-16
  Finished solving LPB equations
  A_corr:   -0.562783806773455     
 End minimization
 Ecorr=   1646.63669715903     
 A_corr= -0.562783806773455     
 Ecorr_band=  -1647.19948096580     
 End Solvation calculations
RMM:   3    -0.138588980823E+03    0.25101E-04   -0.10811E-03 11196   0.965E-02    0.189E-01
 Begin Solvation calculations
  rms_SCF =   6.504639880298470E-002 tol =   6.504639880298470E-003
 Begin minimization
 Creating dielectric and ionic cavities
  area:      137.345369922148     
  volume:    651.766056085024     
  Acav:     7.210631920912761E-002
  Solving linear dielectric/ionic screening model
        iter                  A_solv                     rms
   LPB:       -0.635563956421480E+00   0.254948929515814E+00
   LPB:    0  -0.635563400060180E+00   0.253751962608037E+00  -0.198169E-03   0.000000E+00   0.283345E+02  -0.561502E-02
   LPB:    1  -0.635392444511153E+00   0.344413497056396E-01   0.980361E-02   0.000000E+00   0.547440E+02  -0.289801E-18
   LPB:    2  -0.635367653514482E+00   0.742654963002873E-02   0.150006E-01   0.947738E-01   0.127350E+03   0.126088E-16
   LPB:    3  -0.635363463971177E+00   0.241188660665714E-02   0.226311E-01   0.112015E+00   0.144459E+03   0.543028E-16
   LPB:    4  -0.635361542145194E+00   0.173744166259236E-02   0.355290E-01   0.292193E+00   0.162529E+03   0.545357E-16
  Finished solving LPB equations
  A_corr:   -0.563255222936067     
 End minimization
 Ecorr=   1646.25483407332     
 A_corr= -0.563255222936067     
 Ecorr_band=  -1646.81808929625     
 End Solvation calculations
RMM:   4    -0.138588595740E+03    0.38508E-03   -0.17599E-04  7427   0.459E-02    0.544E-02
 Begin Solvation calculations
  rms_SCF =   6.132180300059698E-002 tol =   6.132180300059699E-003
 Begin minimization
 Creating dielectric and ionic cavities
  area:      137.367222050025     
  volume:    651.761514313635     
  Acav:     7.211779157626305E-002
  Solving linear dielectric/ionic screening model
        iter                  A_solv                     rms
   LPB:       -0.636810701519356E+00   0.184103100492494E+00
   LPB:    0  -0.636788052944568E+00   0.144383393263116E+00  -0.126438E-02   0.000000E+00   0.283347E+02  -0.358257E-01
   LPB:    1  -0.636707161382050E+00   0.275871266471696E-01   0.119857E-01   0.000000E+00   0.459082E+02  -0.106441E-18
   LPB:    2  -0.636695015992229E+00   0.100032955824230E-01   0.136263E-01   0.132067E+00   0.157133E+03   0.926910E-16
   LPB:    3  -0.636691858741611E+00   0.777092748988865E-02   0.214628E-01   0.165040E+00   0.110741E+03   0.102808E-15
   LPB:    4  -0.636689545740379E+00   0.764490564250320E-02   0.313119E-01   0.502161E+00   0.490092E+02   0.106787E-15
   LPB:    5  -0.636687320261194E+00   0.482555285012928E-02   0.320586E-01   0.939750E+00   0.103622E+03   0.176608E-15
  Finished solving LPB equations
  A_corr:   -0.564569528684931     
 End minimization
 Ecorr=   1645.81659824306     
 A_corr= -0.564569528684931     
 Ecorr_band=  -1646.38116777174     
 End Solvation calculations
RMM:   5    -0.138588636622E+03   -0.40882E-04   -0.11667E-04  6760   0.528E-02
 Begin Solvation calculations
  rms_SCF =   6.132180300059698E-002 tol =   6.132180300059699E-003
 Begin minimization
 Creating dielectric and ionic cavities
  area:      137.416045902814     
  volume:    651.783966607933     
  Acav:     7.214342409897753E-002
  Solving linear dielectric/ionic screening model
        iter                  A_solv                     rms
   LPB:       -0.639573068644543E+00   0.298049283761750E+00
   LPB:    0  -0.639521968686684E+00   0.232267949512750E+00  -0.189921E-02   0.000000E+00   0.283337E+02  -0.538117E-01
   LPB:    1  -0.639250576537245E+00   0.427658038212510E-01   0.131291E-01   0.000000E+00   0.466376E+02   0.376907E-18
   LPB:    2  -0.639218420787782E+00   0.200587017449850E-01   0.135270E-01   0.114999E+00   0.212496E+03   0.645932E-18
   LPB:    3  -0.639211386888353E+00   0.114524548418510E-01   0.175288E-01   0.168805E+00   0.101747E+03  -0.256735E-16
   LPB:    4  -0.639207617042301E+00   0.100108999321852E-01   0.267317E-01   0.351442E+00   0.603012E+02  -0.202144E-16
   LPB:    5  -0.639204269606477E+00   0.629770098102048E-02   0.304980E-01   0.778295E+00   0.102110E+03   0.641074E-17
   LPB:    6  -0.639200923544285E+00   0.247168231814779E-02   0.369838E-01   0.824293E+00   0.633544E+02   0.991985E-16
  Finished solving LPB equations
  A_corr:   -0.567057499445307     
 End minimization
 Ecorr=   1644.76332209733     
 A_corr= -0.567057499445307     
 Ecorr_band=  -1645.33037959677     
 End Solvation calculations
   3 F= -.13858864E+03 E0= -.13859136E+03  d E =-.416005E-02
quench:  g(F)=  0.000E+00 g(S)=  0.000E+00 dE (1.order)= 0.000E+00
 bond charge predicted
       N       E                     dE             d eps       ncg     rms          rms(c)
 Begin Solvation calculations
  rms_SCF =   6.132180300059698E-002 tol =   6.132180300059699E-003
 Begin minimization
 Creating dielectric and ionic cavities
  area:      137.672510655002     
  volume:    651.687589468325     
  Acav:     7.227806809387580E-002
  Solving linear dielectric/ionic screening model
        iter                  A_solv                     rms
   LPB:       -0.650087019594704E+00   0.107204910713044E-01
   LPB:    0  -0.650087018416884E+00   0.109465844566465E-01  -0.911735E-05   0.000000E+00   0.283382E+02  -0.258369E-03
   LPB:    1  -0.643023677017215E+00   0.542353071430732E-02   0.156808E-01   0.000000E+00   0.394400E+06  -0.499322E-20
   LPB:    2  -0.642297278843809E+00   0.734090616833027E-02   0.270672E-01   0.595786E-01   0.571222E+05  -0.311619E-16
   LPB:    3  -0.642057799610531E+00   0.159839091999233E-01   0.329333E-01   0.270958E+00   0.972915E+04  -0.697219E-16
   LPB:    4  -0.641953678743868E+00   0.392071144737752E-01   0.340371E-01   0.420680E+00   0.707184E+03  -0.828088E-16
   LPB:    5  -0.641910434751447E+00   0.491843755154963E-01   0.231613E-01   0.610350E+00   0.158296E+03  -0.726823E-16
   LPB:    6  -0.641876541536877E+00   0.183401040899416E-01   0.217306E-01   0.835368E+00   0.235309E+03  -0.126558E-15
   LPB:    7  -0.641851322883106E+00   0.180516162237216E-01   0.340745E-01   0.474515E+00   0.200113E+03  -0.138367E-15
   LPB:    8  -0.641836735168388E+00   0.201894733820224E-01   0.270134E-01   0.729653E+00   0.243544E+03  -0.243325E-15
   LPB:    9  -0.641824529632982E+00   0.733879112956275E-02   0.281868E-01   0.801869E+00   0.113055E+03  -0.179074E-15
   LPB:   10  -0.641815005315286E+00   0.316953375654252E-02   0.383487E-01   0.573551E+00   0.838810E+03  -0.166105E-17
  Finished solving LPB equations
  A_corr:   -0.569536937221410     
 End minimization
 Ecorr=   1644.00693718703     
 A_corr= -0.569536937221410     
 Ecorr_band=  -1644.57647412425     
 End Solvation calculations
DAV:   1    -0.138591530806E+03   -0.29351E-02   -0.51522E-01 12753   0.158E+00    0.180E-01
 Begin Solvation calculations
  rms_SCF =   6.132180300059698E-002 tol =   6.132180300059699E-003
 Begin minimization
 Creating dielectric and ionic cavities
  area:      137.466483872136     
  volume:    651.585129710093     
  Acav:     7.216990403287138E-002
  Solving linear dielectric/ionic screening model
        iter                  A_solv                     rms
   LPB:       -0.646940523423491E+00   0.424465699982809E+00
   LPB:    0  -0.646705582221924E+00   0.253371630329622E+00  -0.407166E-02   0.000000E+00   0.283430E+02  -0.115403E+00
   LPB:    1  -0.646325924066573E+00   0.710326744867859E-01   0.136800E-01   0.000000E+00   0.474359E+02  -0.105183E-16
   LPB:    2  -0.646248050096538E+00   0.264335945490790E-01   0.144812E-01   0.193768E+00   0.194522E+03  -0.748050E-15
   LPB:    3  -0.646231284515568E+00   0.223252499176787E-01   0.197067E-01   0.158204E+00   0.137593E+03  -0.927596E-15
   LPB:    4  -0.646222891979250E+00   0.852517930515010E-02   0.210731E-01   0.468124E+00   0.110732E+03  -0.979526E-15
   LPB:    5  -0.646217653738021E+00   0.434820148936501E-02   0.308468E-01   0.426392E+00   0.364831E+03  -0.107210E-14
  Finished solving LPB equations
  A_corr:   -0.574047749705149     
 End minimization
 Ecorr=   1643.62450079513     
 A_corr= -0.574047749705149     
 Ecorr_band=  -1644.19854854483     
 End Solvation calculations
RMM:   2    -0.138593821019E+03   -0.22902E-02   -0.26952E-02 17189   0.395E-01    0.118E-01
 Begin Solvation calculations
  rms_SCF =   4.477395687438840E-002 tol =   4.477395687438840E-003
 Begin minimization
 Creating dielectric and ionic cavities
  area:      137.477937810112     
  volume:    651.649432250948     
  Acav:     7.217591735030855E-002
  Solving linear dielectric/ionic screening model
        iter                  A_solv                     rms
   LPB:       -0.646687142060554E+00   0.194095192876501E+00
   LPB:    0  -0.646686441781836E+00   0.194593449685374E+00   0.222306E-03   0.000000E+00   0.283400E+02   0.630014E-02
   LPB:    1  -0.646589926519689E+00   0.134249438208269E-01   0.841679E-02   0.000000E+00   0.716434E+02   0.380555E-18
   LPB:    2  -0.646582925484871E+00   0.467599099396266E-02   0.199124E-01   0.306612E-01   0.117621E+03  -0.531976E-18
   LPB:    3  -0.646580167333379E+00   0.587625918242695E-02   0.328911E-01   0.238507E+00   0.483814E+03   0.567381E-16
   LPB:    4  -0.646577901228577E+00   0.614011623229012E-02   0.405721E-01   0.666058E+00   0.718741E+02   0.632357E-16
   LPB:    5  -0.646575608530869E+00   0.674655163856785E-02   0.344482E-01   0.119159E+01   0.196894E+03   0.956947E-16
   LPB:    6  -0.646573201824228E+00   0.363174647880297E-02   0.329362E-01   0.109792E+01   0.529397E+02   0.104281E-15
  Finished solving LPB equations
  A_corr:   -0.574397284473919     
 End minimization
 Ecorr=   1642.97775325921     
 A_corr= -0.574397284473919     
 Ecorr_band=  -1643.55215054369     
 End Solvation calculations
RMM:   3    -0.138593511145E+03    0.30987E-03   -0.17647E-03 11348   0.965E-02    0.146E-01
 Begin Solvation calculations
  rms_SCF =   4.477395687438840E-002 tol =   4.477395687438840E-003
 Begin minimization
 Creating dielectric and ionic cavities
  area:      137.476063129742     
  volume:    651.654705588854     
  Acav:     7.217493314311461E-002
  Solving linear dielectric/ionic screening model
        iter                  A_solv                     rms
   LPB:       -0.647032300557924E+00   0.168305862804589E+00
   LPB:    0  -0.647030897713811E+00   0.166083453637952E+00  -0.314646E-03   0.000000E+00   0.283397E+02  -0.891697E-02
   LPB:    1  -0.646962334021423E+00   0.197267597309726E-01   0.922255E-02   0.000000E+00   0.580473E+02   0.290088E-18
   LPB:    2  -0.646953230411014E+00   0.345657114091291E-02   0.164454E-01   0.744604E-01   0.110068E+03  -0.815468E-17
   LPB:    3  -0.646951554389702E+00   0.173626261378395E-02   0.265583E-01   0.114002E+00   0.183521E+03  -0.267081E-16
   LPB:    4  -0.646950635124530E+00   0.120843976439377E-02   0.343452E-01   0.424126E+00   0.278444E+03  -0.176619E-17
  Finished solving LPB equations
  A_corr:   -0.574775701981416     
 End minimization
 Ecorr=   1642.88021591275     
 A_corr= -0.574775701981416     
 Ecorr_band=  -1643.45499161473     
 End Solvation calculations
RMM:   4    -0.138593289030E+03    0.22211E-03   -0.25245E-04  7564   0.506E-02    0.700E-02
 Begin Solvation calculations
  rms_SCF =   2.998425319592019E-002 tol =   2.998425319592019E-003
 Begin minimization
 Creating dielectric and ionic cavities
  area:      137.480236804783     
  volume:    651.638767243165     
  Acav:     7.217712432251085E-002
  Solving linear dielectric/ionic screening model
        iter                  A_solv                     rms
   LPB:       -0.648406732717164E+00   0.133963816807495E+00
   LPB:    0  -0.648380187623567E+00   0.684462576175336E-01  -0.136869E-02   0.000000E+00   0.283405E+02  -0.387892E-01
   LPB:    1  -0.648349449010442E+00   0.249228497413307E-01   0.124077E-01   0.000000E+00   0.551963E+02   0.224103E-18
   LPB:    2  -0.648343942139584E+00   0.700330447486535E-02   0.152443E-01   0.145815E+00   0.769656E+02  -0.556170E-16
   LPB:    3  -0.648342633755748E+00   0.604400203976860E-02   0.195960E-01   0.184829E+00   0.236736E+03  -0.703176E-16
   LPB:    4  -0.648341811171621E+00   0.312082152596007E-02   0.237956E-01   0.517746E+00   0.740513E+02  -0.688882E-16
   LPB:    5  -0.648341077129195E+00   0.202865934939865E-02   0.356596E-01   0.595472E+00   0.177956E+03  -0.598441E-16
  Finished solving LPB equations
  A_corr:   -0.576163952806684     
 End minimization
 Ecorr=   1642.70451259049     
 A_corr= -0.576163952806684     
 Ecorr_band=  -1643.28067654330     
 End Solvation calculations
RMM:   5    -0.138593289299E+03   -0.26856E-06   -0.92679E-05  6870   0.396E-02
 Begin Solvation calculations
  rms_SCF =   2.998425319592019E-002 tol =   2.998425319592019E-003
 Begin minimization
 Creating dielectric and ionic cavities
  area:      137.493380393383     
  volume:    651.668324331956     
  Acav:     7.218402470652621E-002
  Solving linear dielectric/ionic screening model
        iter                  A_solv                     rms
   LPB:       -0.651014286201987E+00   0.214106228915554E+00
   LPB:    0  -0.650968264250902E+00   0.134380586935495E+00  -0.180221E-02   0.000000E+00   0.283391E+02  -0.510729E-01
   LPB:    1  -0.650834910202118E+00   0.301493337896633E-01   0.151411E-01   0.000000E+00   0.442990E+02  -0.234233E-17
   LPB:    2  -0.650817136380306E+00   0.107627408567451E-01   0.148894E-01   0.135535E+00   0.204292E+03  -0.904299E-15
   LPB:    3  -0.650813129859845E+00   0.831231548000280E-02   0.217415E-01   0.154374E+00   0.108953E+03  -0.992571E-15
   LPB:    4  -0.650811326341783E+00   0.831934707717473E-02   0.220420E-01   0.444009E+00   0.106047E+03  -0.971296E-15
   LPB:    5  -0.650810035044534E+00   0.498782825225759E-02   0.240164E-01   0.657125E+00   0.961974E+02  -0.950275E-15
   LPB:    6  -0.650808853832017E+00   0.212618930165709E-02   0.315682E-01   0.695921E+00   0.967448E+02  -0.932438E-15
  Finished solving LPB equations
  A_corr:   -0.578624829125491     
 End minimization
 Ecorr=   1641.99934851376     
 A_corr= -0.578624829125491     
 Ecorr_band=  -1642.57797334289     
 End Solvation calculations
   4 F= -.13859329E+03 E0= -.13859583E+03  d E =-.465268E-02
quench:  g(F)=  0.000E+00 g(S)=  0.000E+00 dE (1.order)= 0.000E+00
 bond charge predicted
       N       E                     dE             d eps       ncg     rms          rms(c)
 Begin Solvation calculations
  rms_SCF =   2.998425319592019E-002 tol =   2.998425319592019E-003
 Begin minimization
 Creating dielectric and ionic cavities
  area:      137.917102844523     
  volume:    651.488615022544     
  Acav:     7.240647899337459E-002
  Solving linear dielectric/ionic screening model
        iter                  A_solv                     rms
   LPB:       -0.667355885111780E+00   0.143181088672359E-01
   LPB:    0  -0.667355881704794E+00   0.147451304313439E-01  -0.155040E-04   0.000000E+00   0.283475E+02  -0.439499E-03
   LPB:    1  -0.656715915656173E+00   0.760968236056866E-02   0.154949E-01   0.000000E+00   0.317436E+06  -0.150263E-19
   LPB:    2  -0.655719972729954E+00   0.118469171734845E-01   0.267651E-01   0.541895E-01   0.439088E+05  -0.151788E-16
   LPB:    3  -0.655392872177089E+00   0.252535780891391E-01   0.328612E-01   0.267505E+00   0.498650E+04  -0.290417E-16
   LPB:    4  -0.655253899134050E+00   0.617547219095923E-01   0.323477E-01   0.431608E+00   0.481183E+03  -0.234795E-16
   LPB:    5  -0.655195384334411E+00   0.508689796565675E-01   0.194602E-01   0.699893E+00   0.132372E+03   0.927880E-16
   LPB:    6  -0.655141577943966E+00   0.153283483419117E-01   0.259122E-01   0.690575E+00   0.378711E+03   0.146649E-15
   LPB:    7  -0.655103969758702E+00   0.167949555294180E-01   0.378632E-01   0.478338E+00   0.232030E+03   0.192752E-15
   LPB:    8  -0.655081767590616E+00   0.254964478254474E-01   0.307890E-01   0.725996E+00   0.303099E+03   0.185648E-15
   LPB:    9  -0.655064898104356E+00   0.117213164271714E-01   0.262201E-01   0.892210E+00   0.906256E+02   0.151431E-15
   LPB:   10  -0.655050647133948E+00   0.419023636342645E-02   0.365338E-01   0.606293E+00   0.765911E+03  -0.619433E-17
   LPB:   11  -0.655041024441421E+00   0.233050698177029E-02   0.398226E-01   0.619466E+00   0.337672E+03  -0.190107E-15
  Finished solving LPB equations
  A_corr:   -0.582634545448046     
 End minimization
 Ecorr=   1640.85448256321     
 A_corr= -0.582634545448046     
 Ecorr_band=  -1641.43711710866     
 End Solvation calculations
DAV:   1    -0.138595709920E+03   -0.24209E-02   -0.74191E-01 12621   0.197E+00    0.156E-01
 Begin Solvation calculations
  rms_SCF =   2.998425319592019E-002 tol =   2.998425319592019E-003
 Begin minimization
 Creating dielectric and ionic cavities
  area:      137.610820334521     
  volume:    651.476754695083     
  Acav:     7.224568067562354E-002
  Solving linear dielectric/ionic screening model
        iter                  A_solv                     rms
   LPB:       -0.658628182028138E+00   0.493304750710496E+00
   LPB:    0  -0.658534332472307E+00   0.443610455599949E+00  -0.257318E-02   0.000000E+00   0.283481E+02  -0.729445E-01
   LPB:    1  -0.657984056106355E+00   0.689633151031525E-01   0.992865E-02   0.000000E+00   0.541971E+02   0.739398E-18
   LPB:    2  -0.657876311098111E+00   0.130271621260237E-01   0.167050E-01   0.116375E+00   0.106512E+03   0.252552E-15
   LPB:    3  -0.657860682760165E+00   0.107898461810132E-01   0.218814E-01   0.110735E+00   0.330308E+03   0.152533E-15
   LPB:    4  -0.657854657288360E+00   0.995782126267735E-02   0.243172E-01   0.346928E+00   0.127877E+03   0.147477E-15
   LPB:    5  -0.657851259001265E+00   0.708536190277762E-02   0.269277E-01   0.509311E+00   0.156391E+03   0.147073E-15
   LPB:    6  -0.657848581775541E+00   0.320390427076793E-02   0.328172E-01   0.646431E+00   0.188036E+03   0.219581E-15
   LPB:    7  -0.657846240611313E+00   0.177658237199341E-02   0.401687E-01   0.714432E+00   0.479096E+03   0.302952E-15
  Finished solving LPB equations
  A_corr:   -0.585600559935689     
 End minimization
 Ecorr=   1640.49995959964     
 A_corr= -0.585600559935689     
 Ecorr_band=  -1641.08556015958     
 End Solvation calculations
RMM:   2    -0.138598698864E+03   -0.29889E-02   -0.28717E-02 16002   0.484E-01    0.184E-01
 Begin Solvation calculations
  rms_SCF =   2.998425319592019E-002 tol =   2.998425319592019E-003
 Begin minimization
 Creating dielectric and ionic cavities
  area:      137.590059741066     
  volume:    651.489793076969     
  Acav:     7.223478136405978E-002
  Solving linear dielectric/ionic screening model
        iter                  A_solv                     rms
   LPB:       -0.658655598887953E+00   0.482811907609934E+00
   LPB:    0  -0.658654988390437E+00   0.482441460841418E+00  -0.207539E-03   0.000000E+00   0.283474E+02  -0.588320E-02
   LPB:    1  -0.658101885807773E+00   0.436467655935242E-01   0.867736E-02   0.000000E+00   0.631035E+02  -0.305293E-18
   LPB:    2  -0.658059304827609E+00   0.893641440720707E-02   0.160732E-01   0.415618E-01   0.115090E+03  -0.249142E-16
   LPB:    3  -0.658053353367961E+00   0.557492090003811E-02   0.232179E-01   0.967583E-01   0.154353E+03  -0.164564E-16
   LPB:    4  -0.658050948917860E+00   0.448442606880391E-02   0.306319E-01   0.306225E+00   0.168780E+03  -0.744657E-17
   LPB:    5  -0.658049688464194E+00   0.452288190469339E-02   0.265896E-01   0.603911E+00   0.303624E+03  -0.362011E-16
   LPB:    6  -0.658048648362487E+00   0.342058276277589E-02   0.322496E-01   0.680357E+00   0.121174E+03  -0.884750E-16
   LPB:    7  -0.658047471915690E+00   0.275947350435254E-02   0.402881E-01   0.905409E+00   0.594860E+03  -0.153502E-15
  Finished solving LPB equations
  A_corr:   -0.585812690551630     
 End minimization
 Ecorr=   1640.41057647362     
 A_corr= -0.585812690551630     
 Ecorr_band=  -1640.99638916418     
 End Solvation calculations
RMM:   3    -0.138598465208E+03    0.23366E-03   -0.23230E-03 14152   0.127E-01    0.217E-01
 Begin Solvation calculations
  rms_SCF =   2.998425319592019E-002 tol =   2.998425319592019E-003
 Begin minimization
 Creating dielectric and ionic cavities
  area:      137.585477038713     
  volume:    651.535010023575     
  Acav:     7.223237544532413E-002
  Solving linear dielectric/ionic screening model
        iter                  A_solv                     rms
   LPB:       -0.658280389995130E+00   0.219701185736337E+00
   LPB:    0  -0.658280223264114E+00   0.219943625507078E+00   0.108463E-03   0.000000E+00   0.283453E+02   0.307443E-02
   LPB:    1  -0.658156338141150E+00   0.257898596789063E-01   0.936903E-02   0.000000E+00   0.581528E+02  -0.134444E-18
   LPB:    2  -0.658140419763758E+00   0.513179629673457E-02   0.155620E-01   0.773585E-01   0.134245E+03  -0.130816E-16
   LPB:    3  -0.658137732557120E+00   0.237395288620968E-02   0.243279E-01   0.107985E+00   0.174055E+03   0.169606E-16
   LPB:    4  -0.658136304823005E+00   0.153282065781043E-02   0.343980E-01   0.375766E+00   0.312333E+03  -0.110902E-16
  Finished solving LPB equations
  A_corr:   -0.585903929377681     
 End minimization
 Ecorr=   1640.13614756384     
 A_corr= -0.585903929377681     
 Ecorr_band=  -1640.72205149322     
 End Solvation calculations
RMM:   4    -0.138597904829E+03    0.56038E-03   -0.31506E-04  7949   0.546E-02    0.745E-02
 Begin Solvation calculations
  rms_SCF =   2.263124082801012E-002 tol =   2.263124082801012E-003
 Begin minimization
 Creating dielectric and ionic cavities
  area:      137.587392762023     
  volume:    651.539652207282     
  Acav:     7.223338120006183E-002
  Solving linear dielectric/ionic screening model
        iter                  A_solv                     rms
   LPB:       -0.658700392042060E+00   0.827642247423166E-01
   LPB:    0  -0.658695404310134E+00   0.649565179154720E-01  -0.593236E-03   0.000000E+00   0.283451E+02  -0.168153E-01
   LPB:    1  -0.658680816696621E+00   0.122146237912686E-01   0.112028E-01   0.000000E+00   0.481183E+02  -0.442561E-18
   LPB:    2  -0.658678144305461E+00   0.362539107390575E-02   0.146622E-01   0.139972E+00   0.136243E+03  -0.414035E-16
   LPB:    3  -0.658677401367972E+00   0.403049951878395E-02   0.252723E-01   0.161290E+00   0.148468E+03  -0.487964E-16
   LPB:    4  -0.658676726034559E+00   0.406559873728999E-02   0.322788E-01   0.711695E+00   0.674272E+02  -0.498384E-16
   LPB:    5  -0.658676020426454E+00   0.244416644819154E-02   0.347018E-01   0.971874E+00   0.158389E+03  -0.643437E-16
   LPB:    6  -0.658675267168700E+00   0.128870794163804E-02   0.409972E-01   0.903605E+00   0.202168E+03  -0.920967E-16
  Finished solving LPB equations
  A_corr:   -0.586441885968638     
 End minimization
 Ecorr=   1639.97177530859     
 A_corr= -0.586441885968638     
 Ecorr_band=  -1640.55821719456     
 End Solvation calculations
RMM:   5    -0.138597880223E+03    0.24607E-04   -0.11841E-04  6653   0.558E-02
 Begin Solvation calculations
  rms_SCF =   2.263124082801012E-002 tol =   2.263124082801012E-003
 Begin minimization
 Creating dielectric and ionic cavities
  area:      137.601978961113     
  volume:    651.567748417762     
  Acav:     7.224103895458428E-002
  Solving linear dielectric/ionic screening model
        iter                  A_solv                     rms
   LPB:       -0.660434725028758E+00   0.174300624600561E+00
   LPB:    0  -0.660397768678096E+00   0.980146485538687E-01  -0.161484E-02   0.000000E+00   0.283438E+02  -0.457708E-01
   LPB:    1  -0.660319331692008E+00   0.271676584734122E-01   0.142022E-01   0.000000E+00   0.515918E+02   0.163864E-17
   LPB:    2  -0.660308581595676E+00   0.875169800550905E-02   0.154497E-01   0.125988E+00   0.120717E+03   0.367172E-15
   LPB:    3  -0.660306589117847E+00   0.586065314212148E-02   0.193193E-01   0.148221E+00   0.190959E+03   0.427269E-15
   LPB:    4  -0.660305780372434E+00   0.501689040138588E-02   0.218308E-01   0.359204E+00   0.977002E+02   0.438922E-15
   LPB:    5  -0.660305209328440E+00   0.329717411406224E-02   0.240992E-01   0.639624E+00   0.194728E+03   0.438485E-15
   LPB:    6  -0.660304524025748E+00   0.137148579325986E-02   0.375905E-01   0.769373E+00   0.929729E+02   0.434960E-15
  Finished solving LPB equations
  A_corr:   -0.588063485071164     
 End minimization
 Ecorr=   1639.57062164533     
 A_corr= -0.588063485071164     
 Ecorr_band=  -1640.15868513040     
 End Solvation calculations
   5 F= -.13859788E+03 E0= -.13860033E+03  d E =-.459092E-02
quench:  g(F)=  0.000E+00 g(S)=  0.000E+00 dE (1.order)= 0.000E+00
 bond charge predicted
       N       E                     dE             d eps       ncg     rms          rms(c)
 Begin Solvation calculations
  rms_SCF =   2.263124082801012E-002 tol =   2.263124082801012E-003
 Begin minimization
 Creating dielectric and ionic cavities
  area:      137.978823088622     
  volume:    651.480720358648     
  Acav:     7.243888212152663E-002
  Solving linear dielectric/ionic screening model
        iter                  A_solv                     rms
   LPB:       -0.670986611725181E+00   0.106876298748902E-01
   LPB:    0  -0.670986611001283E+00   0.108403161132434E-01  -0.714651E-05   0.000000E+00   0.283479E+02  -0.202588E-03
   LPB:    1  -0.664334033609773E+00   0.493893906883140E-02   0.156777E-01   0.000000E+00   0.402982E+06  -0.114994E-19
   LPB:    2  -0.663656234673329E+00   0.726032617195817E-02   0.270529E-01   0.590445E-01   0.729566E+05   0.254070E-17
   LPB:    3  -0.663433022807181E+00   0.116376372531176E-01   0.329038E-01   0.270760E+00   0.736803E+04   0.322257E-17
   LPB:    4  -0.663336119432109E+00   0.333472569527240E-01   0.345189E-01   0.413820E+00   0.138498E+04   0.336735E-16
   LPB:    5  -0.663296535261716E+00   0.491132407114873E-01   0.245712E-01   0.573870E+00   0.153319E+03   0.461668E-16
   LPB:    6  -0.663267544168009E+00   0.162043834677986E-01   0.201833E-01   0.891613E+00   0.218599E+03   0.607063E-16
   LPB:    7  -0.663243237598594E+00   0.422969203951150E-02   0.368634E-01   0.459047E+00   0.606077E+03   0.699554E-16
   LPB:    8  -0.663226644002216E+00   0.540519462013868E-02   0.415232E-01   0.606068E+00   0.384381E+03   0.763357E-16
   LPB:    9  -0.663216142817900E+00   0.114561841333444E-01   0.372535E-01   0.705376E+00   0.784868E+03   0.862069E-16
   LPB:   10  -0.663209782911587E+00   0.117333796692014E-01   0.284171E-01   0.793963E+00   0.934999E+02   0.135961E-15
   LPB:   11  -0.663204861369068E+00   0.623110061910264E-02   0.281372E-01   0.781536E+00   0.365701E+03   0.181467E-15
   LPB:   12  -0.663201159137639E+00   0.333097733375818E-02   0.345768E-01   0.612152E+00   0.227368E+03   0.168259E-15
   LPB:   13  -0.663198612136195E+00   0.256339751208389E-02   0.357512E-01   0.665363E+00   0.593117E+03   0.166456E-15
   LPB:   14  -0.663196596052451E+00   0.169474852923753E-02   0.381428E-01   0.741922E+00   0.508767E+03   0.187493E-15
  Finished solving LPB equations
  A_corr:   -0.590757713930925     
 End minimization
 Ecorr=   1638.62021896699     
 A_corr= -0.590757713930925     
 Ecorr_band=  -1639.21097668092     
 End Solvation calculations
DAV:   1    -0.138598370645E+03   -0.46582E-03   -0.55116E-01 12726   0.176E+00    0.228E-01
 Begin Solvation calculations
  rms_SCF =   2.263124082801012E-002 tol =   2.263124082801012E-003
 Begin minimization
 Creating dielectric and ionic cavities
  area:      137.725354539715     
  volume:    651.430603507549     
  Acav:     7.230581113335031E-002
  Solving linear dielectric/ionic screening model
        iter                  A_solv                     rms
   LPB:       -0.666920336322369E+00   0.348784105037940E+00
   LPB:    0  -0.666780323066450E+00   0.241081006993840E+00  -0.314283E-02   0.000000E+00   0.283502E+02  -0.891000E-01
   LPB:    1  -0.666493475087214E+00   0.694756157805039E-01   0.110160E-01   0.000000E+00   0.703815E+02   0.611140E-17
   LPB:    2  -0.666438520821878E+00   0.152246027997271E-01   0.152117E-01   0.138738E+00   0.129323E+03   0.998885E-16
   LPB:    3  -0.666424622205398E+00   0.128784124487348E-01   0.220169E-01   0.174740E+00   0.308996E+03   0.179736E-15
   LPB:    4  -0.666419865198354E+00   0.940148277217208E-02   0.212650E-01   0.354366E+00   0.109304E+03   0.223980E-15
   LPB:    5  -0.666416905775508E+00   0.376173371810226E-02   0.270870E-01   0.488403E+00   0.253657E+03   0.352417E-15
   LPB:    6  -0.666415130607228E+00   0.150739872487406E-02   0.364755E-01   0.445443E+00   0.387445E+03   0.404438E-15
  Finished solving LPB equations
  A_corr:   -0.594109319473878     
 End minimization
 Ecorr=   1638.51542640181     
 A_corr= -0.594109319473878     
 Ecorr_band=  -1639.10953572128     
 End Solvation calculations
RMM:   2    -0.138602939514E+03   -0.45689E-02   -0.36821E-02 16260   0.463E-01    0.419E-01
 Begin Solvation calculations
  rms_SCF =   2.263124082801012E-002 tol =   2.263124082801012E-003
 Begin minimization
 Creating dielectric and ionic cavities
  area:      137.693812361638     
  volume:    651.460335446650     
  Acav:     7.228925148986008E-002
[...]
 Begin Solvation calculations
  rms_SCF =   1.465310917133880E-003 tol =   1.465310917133880E-004
 Begin minimization
 Creating dielectric and ionic cavities
  area:      138.159090845769     
  volume:    650.760594841482     
  Acav:     7.253352269402891E-002
  Solving linear dielectric/ionic screening model
        iter                  A_solv                     rms
   LPB:       -0.690296447883861E+00   0.866624096696377E-01
   LPB:    0  -0.690296438762354E+00   0.866657462332943E-01   0.253530E-04   0.000000E+00   0.283816E+02   0.719560E-03
   LPB:    1  -0.690278421126663E+00   0.841030760035561E-02   0.885826E-02   0.000000E+00   0.611249E+02   0.145890E-19
   LPB:    2  -0.690276786099002E+00   0.158979236931449E-02   0.156750E-01   0.512824E-01   0.123485E+03  -0.879431E-18
   LPB:    3  -0.690276584759701E+00   0.691905965390629E-03   0.221284E-01   0.872290E-01   0.168901E+03  -0.202063E-18
   LPB:    4  -0.690276529394456E+00   0.456860508154934E-03   0.278170E-01   0.218750E+00   0.248814E+03  -0.290731E-17
   LPB:    5  -0.690276508876207E+00   0.481570935159727E-03   0.252960E-01   0.407531E+00   0.299305E+03  -0.424005E-17
   LPB:    6  -0.690276499605295E+00   0.351932248335139E-03   0.244219E-01   0.468009E+00   0.126811E+03  -0.482097E-17
   LPB:    7  -0.690276494638487E+00   0.193576855776260E-03   0.257541E-01   0.508029E+00   0.237282E+03   0.128464E-17
   LPB:    8  -0.690276491477420E+00   0.674400869258216E-04   0.324915E-01   0.504468E+00   0.226928E+03   0.460380E-17
  Finished solving LPB equations
  A_corr:   -0.617742968783392     
 End minimization
 Ecorr=   1632.27731491972     
 A_corr= -0.617742968783392     
 Ecorr_band=  -1632.89505788851     
 End Solvation calculations
RMM:   4    -0.138629925433E+03   -0.15366E-04   -0.40851E-05  6605   0.263E-02
 Begin Solvation calculations
  rms_SCF =   1.465310917133880E-003 tol =   1.465310917133880E-004
 Begin minimization
 Creating dielectric and ionic cavities
  area:      138.160022101142     
  volume:    650.761245229672     
  Acav:     7.253401160309962E-002
  Solving linear dielectric/ionic screening model
        iter                  A_solv                     rms
   LPB:       -0.690213243623557E+00   0.460075091722270E-01
   LPB:    0  -0.690213202957776E+00   0.458367095061735E-01   0.535317E-04   0.000000E+00   0.283816E+02   0.151932E-02
   LPB:    1  -0.690208218142910E+00   0.445380062790538E-02   0.871296E-02   0.000000E+00   0.624459E+02  -0.727563E-19
   LPB:    2  -0.690207774432365E+00   0.902707793680403E-03   0.168024E-01   0.461578E-01   0.104536E+03   0.248342E-18
   LPB:    3  -0.690207715531270E+00   0.323220102133211E-03   0.218789E-01   0.101946E+00   0.155530E+03  -0.593127E-18
   LPB:    4  -0.690207698822825E+00   0.161175218664644E-03   0.281419E-01   0.220539E+00   0.353876E+03  -0.420827E-17
   LPB:    5  -0.690207692733624E+00   0.147453009908999E-03   0.278774E-01   0.367896E+00   0.408269E+03  -0.568745E-17
   LPB:    6  -0.690207690068286E+00   0.180701555332842E-03   0.282048E-01   0.432636E+00   0.281192E+03  -0.629356E-17
   LPB:    7  -0.690207688712696E+00   0.164340179145316E-03   0.258748E-01   0.554398E+00   0.150734E+03  -0.781329E-17
   LPB:    8  -0.690207687661313E+00   0.764015416733393E-04   0.297646E-01   0.674231E+00   0.201208E+03  -0.926202E-17
  Finished solving LPB equations
  A_corr:   -0.617673676058214     
 End minimization
 Ecorr=   1632.27960839467     
 A_corr= -0.617673676058214     
 Ecorr_band=  -1632.89728207073     
 End Solvation calculations
  86 F= -.13862993E+03 E0= -.13863275E+03  d E =-.382024E-04
quench:  g(F)=  0.000E+00 g(S)=  0.000E+00 dE (1.order)= 0.000E+00
 bond charge predicted
       N       E                     dE             d eps       ncg     rms          rms(c)
 Begin Solvation calculations
  rms_SCF =   1.465310917133880E-003 tol =   1.465310917133880E-004
 Begin minimization
 Creating dielectric and ionic cavities
  area:      138.164247797897     
  volume:    650.758842897919     
  Acav:     7.253623009389602E-002
  Solving linear dielectric/ionic screening model
        iter                  A_solv                     rms
   LPB:       -0.690262682215593E+00   0.483416219921205E-03
   LPB:    0  -0.690262682214887E+00   0.487291593909717E-03  -0.222986E-06   0.000000E+00   0.283817E+02  -0.632872E-05
   LPB:    1  -0.690245364664232E+00   0.202298845147751E-03   0.159066E-01   0.000000E+00   0.521885E+06  -0.234942E-21
   LPB:    2  -0.690243529698930E+00   0.219987731231115E-03   0.270966E-01   0.622018E-01   0.114420E+06  -0.103786E-17
   LPB:    3  -0.690242952279254E+00   0.465372375686544E-03   0.322758E-01   0.264181E+00   0.273615E+05  -0.111770E-17
   LPB:    4  -0.690242708366364E+00   0.130024835624348E-02   0.346131E-01   0.393895E+00   0.245924E+04  -0.616029E-18
   LPB:    5  -0.690242608127027E+00   0.236955002789409E-02   0.270300E-01   0.526258E+00   0.228221E+03  -0.266530E-18
   LPB:    6  -0.690242548269880E+00   0.926937256881657E-03   0.183935E-01   0.877523E+00   0.177207E+03  -0.269017E-18
   LPB:    7  -0.690242497943646E+00   0.215532745511562E-03   0.333820E-01   0.463267E+00   0.100007E+04  -0.261787E-18
   LPB:    8  -0.690242466952097E+00   0.307877223995855E-03   0.390383E-01   0.526587E+00   0.334010E+04  -0.247677E-17
   LPB:    9  -0.690242449435148E+00   0.557325596204107E-03   0.347775E-01   0.634465E+00   0.275243E+03  -0.202737E-17
   LPB:   10  -0.690242439172246E+00   0.455940951021909E-03   0.255352E-01   0.797942E+00   0.169975E+03  -0.284415E-17
   LPB:   11  -0.690242430599128E+00   0.155235956065149E-03   0.304144E-01   0.701339E+00   0.261619E+03  -0.664451E-17
   LPB:   12  -0.690242424297493E+00   0.652445623307430E-04   0.392323E-01   0.569835E+00   0.301426E+04  -0.945517E-17
  Finished solving LPB equations
  A_corr:   -0.617706194203597     
 End minimization
 Ecorr=   1632.27219672877     
 A_corr= -0.617706194203597     
 Ecorr_band=  -1632.88990292297     
 End Solvation calculations
DAV:   1    -0.138629906862E+03    0.32047E-05   -0.23523E-03 11721   0.220E-01    0.241E-02
 Begin Solvation calculations
  rms_SCF =   1.465310917133880E-003 tol =   1.465310917133880E-004
 Begin minimization
 Creating dielectric and ionic cavities
  area:      138.167137335915     
  volume:    650.749720204636     
  Acav:     7.253774710135542E-002
  Solving linear dielectric/ionic screening model
        iter                  A_solv                     rms
   LPB:       -0.690316121289433E+00   0.915765365628212E-01
   LPB:    0  -0.690315805722850E+00   0.909993649315667E-01  -0.149121E-03   0.000000E+00   0.283821E+02  -0.423236E-02
   LPB:    1  -0.690295808635508E+00   0.871063239597103E-02   0.884676E-02   0.000000E+00   0.616781E+02   0.361348E-18
   LPB:    2  -0.690293933591166E+00   0.201938855472498E-02   0.160950E-01   0.515393E-01   0.125555E+03  -0.362135E-17
   LPB:    3  -0.690293680394657E+00   0.132318878601144E-02   0.221336E-01   0.981938E-01   0.143380E+03  -0.418019E-17
   LPB:    4  -0.690293603016878E+00   0.959034128080382E-03   0.253051E-01   0.267303E+00   0.155007E+03  -0.247124E-18
   LPB:    5  -0.690293568923505E+00   0.584866378549880E-03   0.229632E-01   0.485545E+00   0.214753E+03  -0.174976E-17
   LPB:    6  -0.690293548786264E+00   0.299794660398592E-03   0.284549E-01   0.476656E+00   0.206420E+03  -0.472579E-17
   LPB:    7  -0.690293536960308E+00   0.181722962597525E-03   0.315120E-01   0.530296E+00   0.423296E+03  -0.104868E-16
   LPB:    8  -0.690293529292546E+00   0.822440257045382E-04   0.355671E-01   0.574459E+00   0.337136E+03  -0.989858E-17
  Finished solving LPB equations
  A_corr:   -0.617755782191190     
 End minimization
 Ecorr=   1632.31771202375     
 A_corr= -0.617755782191190     
 Ecorr_band=  -1632.93546780594     
 End Solvation calculations
RMM:   2    -0.138630017892E+03   -0.11103E-03   -0.54128E-04  8744   0.672E-02    0.802E-02
 Begin Solvation calculations
  rms_SCF =   1.465310917133880E-003 tol =   1.465310917133880E-004
 Begin minimization
 Creating dielectric and ionic cavities
  area:      138.164506377180     
  volume:    650.754009958544     
  Acav:     7.253636584801974E-002
  Solving linear dielectric/ionic screening model
        iter                  A_solv                     rms
   LPB:       -0.690258675681584E+00   0.725243524077022E-01
   LPB:    0  -0.690258569294706E+00   0.722611924671528E-01   0.865841E-04   0.000000E+00   0.283819E+02   0.245742E-02
   LPB:    1  -0.690246022448880E+00   0.682029673868453E-02   0.881541E-02   0.000000E+00   0.618185E+02   0.331843E-19
   LPB:    2  -0.690244919135779E+00   0.148868323735144E-02   0.158206E-01   0.489984E-01   0.125121E+03   0.431114E-17
   LPB:    3  -0.690244775241546E+00   0.877679227563030E-03   0.222001E-01   0.929424E-01   0.147395E+03   0.598865E-17
   LPB:    4  -0.690244731279322E+00   0.684742251227151E-03   0.265201E-01   0.255751E+00   0.171345E+03   0.725957E-17
   LPB:    5  -0.690244712699242E+00   0.452301748229591E-03   0.227562E-01   0.492542E+00   0.218318E+03   0.880885E-17
   LPB:    6  -0.690244702984959E+00   0.233964705698907E-03   0.261495E-01   0.454988E+00   0.199257E+03   0.884174E-17
   LPB:    7  -0.690244697579781E+00   0.126590632430714E-03   0.302350E-01   0.481230E+00   0.466891E+03   0.518925E-17
  Finished solving LPB equations
  A_corr:   -0.617708331731761     
 End minimization
 Ecorr=   1632.29226334837     
 A_corr= -0.617708331731761     
 Ecorr_band=  -1632.90997168010     
 End Solvation calculations
RMM:   3    -0.138629954048E+03    0.63844E-04   -0.92110E-05  6687   0.394E-02
 Begin Solvation calculations
  rms_SCF =   1.465310917133880E-003 tol =   1.465310917133880E-004
 Begin minimization
 Creating dielectric and ionic cavities
  area:      138.163905652300     
  volume:    650.754959177609     
  Acav:     7.253605046745742E-002
  Solving linear dielectric/ionic screening model
        iter                  A_solv                     rms
   LPB:       -0.690236724757492E+00   0.216755262657618E-01
   LPB:    0  -0.690236720750303E+00   0.216315512856935E-01   0.168041E-04   0.000000E+00   0.283819E+02   0.476931E-03
   LPB:    1  -0.690235589350485E+00   0.198045575676408E-02   0.878924E-02   0.000000E+00   0.625268E+02  -0.213614E-19
   LPB:    2  -0.690235494179032E+00   0.349254849342393E-03   0.156951E-01   0.471060E-01   0.131184E+03   0.680890E-18
   LPB:    3  -0.690235480102594E+00   0.122632758085723E-03   0.238569E-01   0.973055E-01   0.212944E+03   0.652352E-18
   LPB:    4  -0.690235475154948E+00   0.812590794390200E-04   0.298365E-01   0.281043E+00   0.509856E+03   0.396902E-17
  Finished solving LPB equations
  A_corr:   -0.617699424687490     
 End minimization
 Ecorr=   1632.29342472561     
 A_corr= -0.617699424687490     
 Ecorr_band=  -1632.91112415030     
 End Solvation calculations
  87 F= -.13862995E+03 E0= -.13863279E+03  d E =-.286152E-04
quench:  g(F)=  0.000E+00 g(S)=  0.000E+00 dE (1.order)= 0.000E+00
 bond charge predicted
       N       E                     dE             d eps       ncg     rms          rms(c)
 Begin Solvation calculations
  rms_SCF =   1.465310917133880E-003 tol =   1.465310917133880E-004
 Begin minimization
 Creating dielectric and ionic cavities
  area:      138.162650380893     
  volume:    650.749849825512     
  Acav:     7.253539144996890E-002
  Solving linear dielectric/ionic screening model
        iter                  A_solv                     rms
   LPB:       -0.690276264977925E+00   0.419468632259354E-03
   LPB:    0  -0.690276264975807E+00   0.425447458504788E-03  -0.386342E-06   0.000000E+00   0.283821E+02  -0.109652E-04
   LPB:    1  -0.690264324789948E+00   0.156037447964045E-03   0.158274E-01   0.000000E+00   0.457348E+06   0.670834E-21
   LPB:    2  -0.690263118300861E+00   0.145716806863761E-03   0.268395E-01   0.595866E-01   0.119435E+06  -0.337298E-18
   LPB:    3  -0.690262728988811E+00   0.305879673046033E-03   0.325303E-01   0.266232E+00   0.354737E+05  -0.185160E-18
   LPB:    4  -0.690262561557728E+00   0.694859599315731E-03   0.350317E-01   0.399361E+00   0.322653E+04  -0.153195E-18
   LPB:    5  -0.690262485747641E+00   0.153159240466878E-02   0.321437E-01   0.493465E+00   0.406621E+03   0.568049E-18
   LPB:    6  -0.690262450409895E+00   0.113932357586167E-02   0.196977E-01   0.760665E+00   0.141180E+03   0.280817E-17
   LPB:    7  -0.690262419229442E+00   0.566182951788348E-03   0.268377E-01   0.647609E+00   0.394331E+03   0.482062E-17
   LPB:    8  -0.690262400159753E+00   0.735604003213665E-03   0.298798E-01   0.549324E+00   0.215263E+03   0.678589E-17
   LPB:    9  -0.690262387354933E+00   0.377057854053025E-03   0.242080E-01   0.828800E+00   0.156795E+03   0.815044E-17
   LPB:   10  -0.690262376780459E+00   0.119711741117334E-03   0.345129E-01   0.579245E+00   0.724879E+03   0.993034E-17
  Finished solving LPB equations
  A_corr:   -0.617726985330490     
 End minimization
 Ecorr=   1632.29219154954     
 A_corr= -0.617726985330490     
 Ecorr_band=  -1632.90991853487     
 End Solvation calculations
DAV:   1    -0.138629972437E+03    0.45455E-04   -0.10668E-03 10056   0.115E-01    0.238E-02
 Begin Solvation calculations
  rms_SCF =   1.465310917133880E-003 tol =   1.465310917133880E-004
 Begin minimization
 Creating dielectric and ionic cavities
  area:      138.158538567248     
  volume:    650.757633184574     
  Acav:     7.253323274780506E-002
  Solving linear dielectric/ionic screening model
        iter                  A_solv                     rms
   LPB:       -0.690251823527299E+00   0.151849576264219E+00
   LPB:    0  -0.690251599280671E+00   0.151604613636980E+00   0.125707E-03   0.000000E+00   0.283818E+02   0.356778E-02
   LPB:    1  -0.690196635361503E+00   0.142156764465331E-01   0.878810E-02   0.000000E+00   0.619248E+02  -0.305180E-19
   LPB:    2  -0.690192015032775E+00   0.292297814585104E-02   0.156718E-01   0.471380E-01   0.123303E+03  -0.317378E-17
   LPB:    3  -0.690191444773793E+00   0.150557614922421E-02   0.219157E-01   0.882599E-01   0.152261E+03  -0.467802E-17
   LPB:    4  -0.690191290255290E+00   0.109143068422054E-02   0.260951E-01   0.227564E+00   0.189302E+03  -0.168251E-18
   LPB:    5  -0.690191229409956E+00   0.907462126369503E-03   0.235958E-01   0.435483E+00   0.220767E+03   0.924131E-18
   LPB:    6  -0.690191196730715E+00   0.519515860372597E-03   0.257874E-01   0.491441E+00   0.134338E+03   0.553100E-17
   LPB:    7  -0.690191177661030E+00   0.273991833957569E-03   0.291418E-01   0.516373E+00   0.302544E+03   0.175134E-16
   LPB:    8  -0.690191165734814E+00   0.103234642226300E-03   0.345495E-01   0.527514E+00   0.256660E+03   0.228234E-16
  Finished solving LPB equations
  A_corr:   -0.617657932987009     
 End minimization
 Ecorr=   1632.25558955838     
 A_corr= -0.617657932987009     
 Ecorr_band=  -1632.87324749137     
 End Solvation calculations
RMM:   2    -0.138630113367E+03   -0.14093E-03   -0.25062E-04  7497   0.672E-02    0.104E-01
 Begin Solvation calculations
  rms_SCF =   1.465310917133880E-003 tol =   1.465310917133880E-004
 Begin minimization
 Creating dielectric and ionic cavities
  area:      138.162021330066     
  volume:    650.753072121177     
  Acav:     7.253506119828458E-002
  Solving linear dielectric/ionic screening model
        iter                  A_solv                     rms
   LPB:       -0.690261010941794E+00   0.112283875291546E+00
   LPB:    0  -0.690260920363777E+00   0.112148394197665E+00  -0.798923E-04   0.000000E+00   0.283820E+02  -0.226750E-02
   LPB:    1  -0.690230888883840E+00   0.105735369436874E-01   0.878192E-02   0.000000E+00   0.619187E+02  -0.181277E-18
   LPB:    2  -0.690228340791232E+00   0.220209468745527E-02   0.157886E-01   0.471936E-01   0.121011E+03   0.130276E-18
   LPB:    3  -0.690228025770552E+00   0.112619007463145E-02   0.219070E-01   0.891016E-01   0.147196E+03   0.239299E-18
   LPB:    4  -0.690227936399220E+00   0.857401865740932E-03   0.266236E-01   0.233440E+00   0.197070E+03  -0.180081E-16
   LPB:    5  -0.690227901756098E+00   0.653861469348056E-03   0.230156E-01   0.448398E+00   0.218357E+03  -0.202203E-16
   LPB:    6  -0.690227884684687E+00   0.358267396966608E-03   0.248449E-01   0.456497E+00   0.169177E+03  -0.173611E-16
   LPB:    7  -0.690227875428400E+00   0.179849927717769E-03   0.286904E-01   0.469534E+00   0.367397E+03  -0.170530E-16
   LPB:    8  -0.690227869587977E+00   0.761152725622146E-04   0.350039E-01   0.517164E+00   0.454911E+03  -0.192899E-16
  Finished solving LPB equations
  A_corr:   -0.617692808389692     
 End minimization
 Ecorr=   1632.28581247174     
 A_corr= -0.617692808389692     
 Ecorr_band=  -1632.90350528013     
 End Solvation calculations
RMM:   3    -0.138629985580E+03    0.12779E-03   -0.77963E-05  6639   0.415E-02    0.112E-02
 Begin Solvation calculations
  rms_SCF =   1.465310917133880E-003 tol =   1.465310917133880E-004
 Begin minimization
 Creating dielectric and ionic cavities
  area:      138.160420017611     
  volume:    650.754038143800     
  Acav:     7.253422050924563E-002
  Solving linear dielectric/ionic screening model
        iter                  A_solv                     rms
   LPB:       -0.690185689605761E+00   0.801681504835237E-02
   LPB:    0  -0.690185661640315E+00   0.749377985489236E-02   0.443920E-04   0.000000E+00   0.283819E+02   0.125993E-02
   LPB:    1  -0.690185477966925E+00   0.991085300466703E-03   0.945006E-02   0.000000E+00   0.728754E+02  -0.265505E-19
   LPB:    2  -0.690185437767664E+00   0.261997167896493E-03   0.201121E-01   0.102837E+00   0.297030E+03   0.188673E-17
   LPB:    3  -0.690185428335362E+00   0.136972161882344E-03   0.243337E-01   0.193932E+00   0.466758E+03   0.271087E-17
   LPB:    4  -0.690185424262879E+00   0.169715984126466E-03   0.300248E-01   0.349921E+00   0.519392E+03   0.297820E-17
   LPB:    5  -0.690185422234889E+00   0.207423436454514E-03   0.289067E-01   0.517235E+00   0.177021E+03   0.289012E-17
   LPB:    6  -0.690185420937996E+00   0.134743084415145E-03   0.268363E-01   0.688832E+00   0.144463E+03   0.364696E-17
  Finished solving LPB equations
  A_corr:   -0.617651200428750     
 End minimization
 Ecorr=   1632.27613751972     
 A_corr= -0.617651200428750     
 Ecorr_band=  -1632.89378872015     
 End Solvation calculations
RMM:   4    -0.138629988149E+03   -0.25682E-05   -0.26720E-05  6642   0.172E-02
 Begin Solvation calculations
  rms_SCF =   1.465310917133880E-003 tol =   1.465310917133880E-004
 Begin minimization
 Creating dielectric and ionic cavities
  area:      138.160395509909     
  volume:    650.753884281080     
  Acav:     7.253420764270198E-002
  Solving linear dielectric/ionic screening model
        iter                  A_solv                     rms
   LPB:       -0.690159798156368E+00   0.146496689128160E-01
   LPB:    0  -0.690159797315141E+00   0.146407548507158E-01   0.769929E-05   0.000000E+00   0.283819E+02   0.218521E-03
   LPB:    1  -0.690159260881151E+00   0.135736403261829E-02   0.898044E-02   0.000000E+00   0.620617E+02  -0.176383E-19
   LPB:    2  -0.690159212461046E+00   0.213874384331722E-03   0.148582E-01   0.545558E-01   0.162996E+03   0.204572E-18
   LPB:    3  -0.690159205905608E+00   0.982261413240801E-04   0.240375E-01   0.836859E-01   0.289091E+03  -0.196391E-17
   LPB:    4  -0.690159203700102E+00   0.599997581221409E-04   0.307477E-01   0.263017E+00   0.349495E+03  -0.177993E-17
  Finished solving LPB equations
  A_corr:   -0.617624996057400     
 End minimization
 Ecorr=   1632.27717035262     
 A_corr= -0.617624996057400     
 Ecorr_band=  -1632.89479534868     
 End Solvation calculations
  88 F= -.13862999E+03 E0= -.13863282E+03  d E =-.341004E-04
quench:  g(F)=  0.000E+00 g(S)=  0.000E+00 dE (1.order)= 0.000E+00
 reached required accuracy - stopping structural energy minimisation
