 vasp.5.4.4.18Apr17-6-g9f103f2a35 (build Feb 06 2024 13:54:16) complex          
  
 POSCAR found type information on POSCAR  Rh N  O 
 04/POSCAR found :  3 types and      40 ions
 scaLAPACK will be used

 ----------------------------------------------------------------------------- 
|                                                                             |
|  ADVICE TO THIS USER RUNNING 'VASP/VAMP'   (HEAR YOUR MASTER'S VOICE ...):  |
|                                                                             |
|      You enforced a specific xc-type in the INCAR file,                     |
|      a different type was found on the POTCAR file                          |
|          I HOPE YOU KNOW, WHAT YOU ARE  DOING                               |
|                                                                             |
 ----------------------------------------------------------------------------- 

 LDA part: xc-table for Pade appr. of Perdew
 POSCAR found type information on POSCAR  Rh N  O 
 00/POSCAR found :  3 types and      40 ions
 POSCAR found type information on POSCAR  Rh N  O 
 06/POSCAR found :  3 types and      40 ions
 Jacobian:    21.3215267681110     
 POSCAR, INCAR and KPOINTS ok, starting setup
 FFT: planning ...
 WAVECAR not read
 entering main loop
       N       E                     dE             d eps       ncg     rms          rms(c)
  Solvation turned off during non-self-consistent phase (first NELMDL steps)
DAV:   1     0.614191108921E+04    0.61419E+04   -0.35751E+05  6567   0.164E+03
DAV:   2    -0.175159019903E+02   -0.61594E+04   -0.59740E+04  5898   0.478E+02
DAV:   3    -0.255451519521E+03   -0.23794E+03   -0.21925E+03  6078   0.914E+01
DAV:   4    -0.262253362527E+03   -0.68018E+01   -0.66946E+01  5970   0.140E+01
DAV:   5    -0.262486373203E+03   -0.23301E+00   -0.23281E+00  6873   0.236E+00    0.498E+01
 Begin Solvation calculations
  rms_SCF =    2.24291683068390      tol =   0.224291683068390     
 Begin minimization
 Creating dielectric and ionic cavities
  area:      174.948332946801     
  volume:    795.965956660004     
  Acav:     9.184787479707057E-002
  Solving linear dielectric/ionic screening model
        iter                  A_solv                     rms
   LPB:       -0.678965543065653E+03   0.311638423289723E+03
   LPB:    0  -0.203425439206168E+01   0.736541419927466E+01  -0.626129E+01   0.000000E+00   0.345340E+02  -0.216227E+03
   LPB:    1  -0.581034142252861E+00   0.337370989670830E+01   0.166650E-01   0.000000E+00   0.136717E+03  -0.601426E-14
   LPB:    2  -0.360603504524079E+00   0.236274559932645E+01   0.174522E-01   0.144842E+00   0.126998E+03  -0.346010E-13
   LPB:    3  -0.250095371225711E+00   0.614401505145922E+00   0.192110E-01   0.455431E+00   0.158001E+03  -0.352173E-13
   LPB:    4  -0.195287230447889E+00   0.182843513817456E+00   0.318955E-01   0.298726E+00   0.114517E+03  -0.375662E-13
  Finished solving LPB equations
  A_corr:   -0.103439355650818     
 End minimization
 Ecorr=   3356.69326802037     
 A_corr= -0.103439355650818     
 Ecorr_band=  -3356.79670737602     
 End Solvation calculations
RMM:   6    -0.250866943067E+03    0.11619E+02   -0.70904E+01  5424   0.166E+01    0.288E+01
 Begin Solvation calculations
  rms_SCF =    2.24291683068390      tol =   0.224291683068390     
 Begin minimization
 Creating dielectric and ionic cavities
  area:      168.553251720536     
  volume:    817.202196177621     
  Acav:     8.849045715328149E-002
  Solving linear dielectric/ionic screening model
        iter                  A_solv                     rms
   LPB:       -0.102802077177743E+02   0.510550371387830E+02
   LPB:    0  -0.815776481373608E+01   0.458219257894958E+02   0.355764E+00   0.000000E+00   0.335384E+02   0.119317E+02
   LPB:    1  -0.940084027673153E+00   0.409521810065629E+01   0.919422E-02   0.000000E+00   0.801914E+02  -0.427853E-15
   LPB:    2  -0.439130644734682E+00   0.107824500704426E+01   0.161457E-01   0.395237E-01   0.156033E+03   0.153067E-14
   LPB:    3  -0.356201456117374E+00   0.659801482344561E+00   0.225395E-01   0.118583E+00   0.153066E+03   0.179310E-14
   LPB:    4  -0.324991488899558E+00   0.754296741771498E+00   0.250370E-01   0.338803E+00   0.292315E+03   0.842733E-15
   LPB:    5  -0.306310077450867E+00   0.263078424465455E+00   0.272366E-01   0.550231E+00   0.701703E+02   0.535112E-14
   LPB:    6  -0.294039065350837E+00   0.184273891891404E+00   0.338443E-01   0.528614E+00   0.196393E+03   0.319661E-14
  Finished solving LPB equations
  A_corr:   -0.205548608197556     
 End minimization
 Ecorr=   3174.76567525010     
 A_corr= -0.205548608197556     
 Ecorr_band=  -3174.97122385830     
 End Solvation calculations
RMM:   7    -0.304169974277E+03   -0.53303E+02   -0.49331E+01  5424   0.981E+00    0.653E+01
 Begin Solvation calculations
  rms_SCF =    2.24291683068390      tol =   0.224291683068390     
 Begin minimization
 Creating dielectric and ionic cavities
  area:      174.780977227913     
  volume:    814.693853965231     
  Acav:     9.176001304465424E-002
  Solving linear dielectric/ionic screening model
        iter                  A_solv                     rms
   LPB:       -0.192746158816765E+02   0.729158959973596E+02
   LPB:    0  -0.192561461237445E+02   0.728377121773632E+02  -0.331295E-01   0.000000E+00   0.336560E+02  -0.111500E+01
   LPB:    1  -0.177039579511020E+01   0.687271982842473E+01   0.913824E-02   0.000000E+00   0.788282E+02   0.487924E-16
   LPB:    2  -0.477984684183266E+00   0.114837264197369E+01   0.165657E-01   0.407727E-01   0.132231E+03  -0.118019E-13
   LPB:    3  -0.284288603596341E+00   0.472731479444446E+00   0.233527E-01   0.106315E+00   0.253909E+03  -0.119725E-13
   LPB:    4  -0.230238985159513E+00   0.237191534000461E+00   0.276311E-01   0.235837E+00   0.248491E+03  -0.112900E-13
   LPB:    5  -0.210743601827524E+00   0.326490563937031E+00   0.290209E-01   0.343420E+00   0.384291E+03  -0.132641E-13
   LPB:    6  -0.201753521821871E+00   0.239827181990791E+00   0.299416E-01   0.446960E+00   0.915185E+02  -0.139871E-13
   LPB:    7  -0.196879159852937E+00   0.268195497896179E+00   0.278729E-01   0.582434E+00   0.277391E+03  -0.147733E-13
   LPB:    8  -0.193452929553040E+00   0.104195014182768E+00   0.290547E-01   0.674316E+00   0.596633E+02  -0.155906E-13
  Finished solving LPB equations
  A_corr:   -0.101692916508385     
 End minimization
 Ecorr=   3117.46713600373     
 A_corr= -0.101692916508385     
 Ecorr_band=  -3117.56882892024     
 End Solvation calculations
RMM:   8    -0.272893275463E+03    0.31277E+02   -0.27352E+01  5428   0.798E+00    0.479E+01
 Begin Solvation calculations
  rms_SCF =    2.24291683068390      tol =   0.224291683068390     
 Begin minimization
 Creating dielectric and ionic cavities
  area:      170.999082114707     
  volume:    806.996361114126     
  Acav:     8.977451811022091E-002
  Solving linear dielectric/ionic screening model
        iter                  A_solv                     rms
   LPB:       -0.584571118986956E+01   0.397064693300858E+02
   LPB:    0  -0.578230789541755E+01   0.394101579271298E+02  -0.610554E-01   0.000000E+00   0.340169E+02  -0.207691E+01
   LPB:    1  -0.666154074165966E+00   0.367812011271993E+01   0.914309E-02   0.000000E+00   0.785707E+02  -0.478593E-16
   LPB:    2  -0.282416851979250E+00   0.748331916142687E+00   0.160871E-01   0.426292E-01   0.145159E+03  -0.720038E-14
   LPB:    3  -0.224925688003807E+00   0.458230139381898E+00   0.229317E-01   0.105101E+00   0.216049E+03  -0.538102E-14
   LPB:    4  -0.208288911600510E+00   0.327459837765369E+00   0.257088E-01   0.258120E+00   0.174758E+03  -0.160711E-14
   LPB:    5  -0.201850974586514E+00   0.272423634771514E+00   0.230273E-01   0.432032E+00   0.297826E+03   0.604594E-14
   LPB:    6  -0.198450466624018E+00   0.103826075479464E+00   0.273157E-01   0.445275E+00   0.102260E+03   0.919420E-14
  Finished solving LPB equations
  A_corr:   -0.108675948513797     
 End minimization
 Ecorr=   3113.53025936087     
 A_corr= -0.108675948513797     
 Ecorr_band=  -3113.63893530939     
 End Solvation calculations
RMM:   9    -0.254267149903E+03    0.18626E+02   -0.13825E+01  5424   0.574E+00    0.324E+01
 Begin Solvation calculations
  rms_SCF =    2.24291683068390      tol =   0.224291683068390     
 Begin minimization
 Creating dielectric and ionic cavities
  area:      162.657561060416     
  volume:    802.951190818706     
  Acav:     8.539521955671854E-002
  Solving linear dielectric/ionic screening model
        iter                  A_solv                     rms
   LPB:       -0.931769864136130E+00   0.128740566259927E+02
   LPB:    0  -0.926366368072317E+00   0.127107279830726E+02  -0.177745E-01   0.000000E+00   0.342065E+02  -0.608004E+00
   LPB:    1  -0.344948778591792E+00   0.145591051975773E+01   0.942415E-02   0.000000E+00   0.794416E+02   0.507021E-16
   LPB:    2  -0.255452396730702E+00   0.403155931393462E+00   0.201429E-01   0.720173E-01   0.131573E+03  -0.655582E-14
   LPB:    3  -0.233969350009194E+00   0.336837195460139E+00   0.253422E-01   0.190796E+00   0.413651E+03  -0.671754E-14
   LPB:    4  -0.226375279237393E+00   0.240170170444247E+00   0.254169E-01   0.352452E+00   0.121975E+03  -0.637908E-14
   LPB:    5  -0.222684209266776E+00   0.235271701231536E+00   0.260658E-01   0.473946E+00   0.353304E+03  -0.879278E-14
   LPB:    6  -0.220232439650081E+00   0.854564537753361E-01   0.294187E-01   0.588538E+00   0.756002E+02  -0.107986E-13
  Finished solving LPB equations
  A_corr:   -0.134837220093363     
 End minimization
 Ecorr=   3075.99036263015     
 A_corr= -0.134837220093363     
 Ecorr_band=  -3076.12519985025     
 End Solvation calculations
RMM:  10    -0.249860357452E+03    0.44068E+01   -0.94873E+00  5426   0.476E+00    0.245E+01
 Begin Solvation calculations
  rms_SCF =    2.24291683068390      tol =   0.224291683068390     
 Begin minimization
 Creating dielectric and ionic cavities
  area:      157.594508187445     
  volume:    802.559551809790     
  Acav:     8.273711679840849E-002
  Solving linear dielectric/ionic screening model
        iter                  A_solv                     rms
   LPB:       -0.128990546867012E+01   0.165673887858705E+02
   LPB:    0  -0.117463250438980E+01   0.157405219986132E+02   0.820744E-01   0.000000E+00   0.342249E+02   0.280899E+01
   LPB:    1  -0.345273463592242E+00   0.153055606303540E+01   0.925973E-02   0.000000E+00   0.775920E+02   0.185046E-15
   LPB:    2  -0.270080319429766E+00   0.316356817960912E+00   0.163876E-01   0.512293E-01   0.157261E+03  -0.183696E-14
   LPB:    3  -0.257180984365127E+00   0.182080109404946E+00   0.238946E-01   0.117653E+00   0.242504E+03  -0.213441E-14
   LPB:    4  -0.252745704915630E+00   0.255356422918835E+00   0.267255E-01   0.307417E+00   0.345574E+03  -0.235494E-14
   LPB:    5  -0.250597353621933E+00   0.133803962877562E+00   0.250528E-01   0.516719E+00   0.840430E+02  -0.158916E-14
  Finished solving LPB equations
  A_corr:   -0.167860236823524     
 End minimization
 Ecorr=   3036.45552243871     
 A_corr= -0.167860236823524     
 Ecorr_band=  -3036.62338267553     
 End Solvation calculations
RMM:  11    -0.248239819080E+03    0.16205E+01   -0.70042E+00  5428   0.427E+00    0.174E+01
 Begin Solvation calculations
  rms_SCF =    2.24291683068390      tol =   0.224291683068390     
 Begin minimization
 Creating dielectric and ionic cavities
  area:      156.782154141315     
  volume:    796.249185570765     
  Acav:     8.231063092419012E-002
  Solving linear dielectric/ionic screening model
        iter                  A_solv                     rms
   LPB:       -0.330827156993286E+00   0.392357563597016E+01
   LPB:    0  -0.309647047332114E+00   0.257042803020401E+01  -0.350299E-01   0.000000E+00   0.345207E+02  -0.120926E+01
   LPB:    1  -0.268890484191530E+00   0.437585788602600E+00   0.112120E-01   0.000000E+00   0.730546E+02   0.498943E-16
   LPB:    2  -0.260751182872371E+00   0.308032459476957E+00   0.193989E-01   0.115424E+00   0.237436E+03  -0.780534E-14
   LPB:    3  -0.258314546417026E+00   0.259138540706667E+00   0.196533E-01   0.295492E+00   0.137310E+03  -0.902311E-14
   LPB:    4  -0.256798671461513E+00   0.966260868773922E-01   0.252956E-01   0.483351E+00   0.133147E+03  -0.966381E-14
  Finished solving LPB equations
  A_corr:   -0.174488040537323     
 End minimization
 Ecorr=   3032.67894214435     
 A_corr= -0.174488040537323     
 Ecorr_band=  -3032.85343018489     
 End Solvation calculations
RMM:  12    -0.245866547734E+03    0.23733E+01   -0.21930E+00  5429   0.235E+00    0.106E+01
 Begin Solvation calculations
  rms_SCF =    2.24291683068390      tol =   0.224291683068390     
 Begin minimization
 Creating dielectric and ionic cavities
  area:      156.881544024683     
  volume:    794.348217945718     
  Acav:     8.236281061295854E-002
  Solving linear dielectric/ionic screening model
        iter                  A_solv                     rms
   LPB:       -0.268610640294835E+00   0.142414831112950E+01
   LPB:    0  -0.267866691436083E+00   0.128472349361149E+01  -0.655672E-02   0.000000E+00   0.346098E+02  -0.226927E+00
   LPB:    1  -0.259941586491376E+00   0.225463325158755E+00   0.106127E-01   0.000000E+00   0.785339E+02  -0.829606E-17
   LPB:    2  -0.257927011855186E+00   0.936129145367631E-01   0.200231E-01   0.134733E+00   0.197738E+03  -0.765667E-15
   LPB:    3  -0.256751532144684E+00   0.170826572861631E+00   0.341547E-01   0.342067E+00   0.265019E+03  -0.113534E-14
   LPB:    4  -0.255661574126429E+00   0.124580262409191E+00   0.323933E-01   0.977664E+00   0.550760E+02  -0.112849E-14
  Finished solving LPB equations
  A_corr:   -0.173298763513470     
 End minimization
 Ecorr=   3025.07465562864     
 A_corr= -0.173298763513470     
 Ecorr_band=  -3025.24795439216     
 End Solvation calculations
RMM:  13    -0.244996895325E+03    0.86965E+00   -0.58034E-01  5427   0.124E+00    0.424E+00
 Begin Solvation calculations
  rms_SCF =    2.24291683068390      tol =   0.224291683068390     
 Begin minimization
 Creating dielectric and ionic cavities
  area:      156.772101162727     
  volume:    791.238781590741     
  Acav:     8.230535311043176E-002
  Solving linear dielectric/ionic screening model
        iter                  A_solv                     rms
   LPB:       -0.274753092993127E+00   0.123668627803353E+01
   LPB:    0  -0.273796645463888E+00   0.127880260153297E+01   0.741879E-02   0.000000E+00   0.347556E+02   0.257845E+00
   LPB:    1  -0.263038381783318E+00   0.325494201614297E+00   0.118860E-01   0.000000E+00   0.894573E+02  -0.120657E-16
   LPB:    2  -0.260690441886518E+00   0.937513033685980E-01   0.156220E-01   0.166052E+00   0.280568E+03  -0.850779E-15
   LPB:    3  -0.259773071962051E+00   0.108493767504350E+00   0.311183E-01   0.196146E+00   0.218913E+03  -0.108923E-14
   LPB:    4  -0.259042266452533E+00   0.109056947461635E+00   0.348234E-01   0.711872E+00   0.771844E+02  -0.117037E-14
  Finished solving LPB equations
  A_corr:   -0.176736913342101     
 End minimization
 Ecorr=   3013.22709785606     
 A_corr= -0.176736913342101     
 Ecorr_band=  -3013.40383476940     
 End Solvation calculations
RMM:  14    -0.245085758840E+03   -0.88864E-01   -0.28812E-01  5426   0.879E-01    0.485E+00
 Begin Solvation calculations
  rms_SCF =    1.00899740491425      tol =   0.100899740491425     
 Begin minimization
 Creating dielectric and ionic cavities
  area:      157.426593650745     
  volume:    786.589196540307     
  Acav:     8.264896166664096E-002
  Solving linear dielectric/ionic screening model
        iter                  A_solv                     rms
   LPB:       -0.292554880477487E+00   0.813578842990185E+00
   LPB:    0  -0.291881158173620E+00   0.979631845852056E+00   0.620705E-02   0.000000E+00   0.349736E+02   0.217083E+00
   LPB:    1  -0.275447537764442E+00   0.426299590099213E+00   0.134289E-01   0.000000E+00   0.149892E+03  -0.110580E-16
   LPB:    2  -0.272890059431183E+00   0.153190811123169E+00   0.161322E-01   0.129547E+00   0.149490E+03  -0.995924E-15
   LPB:    3  -0.271718625150737E+00   0.139330989996362E+00   0.247522E-01   0.298527E+00   0.296294E+03   0.826599E-15
   LPB:    4  -0.270914307195442E+00   0.137745525500900E+00   0.268636E-01   0.632645E+00   0.952981E+02   0.168161E-14
   LPB:    5  -0.270042634838446E+00   0.974857236654941E-01   0.323101E-01   0.901056E+00   0.253510E+03   0.284546E-14
  Finished solving LPB equations
  A_corr:   -0.187393673171805     
 End minimization
 Ecorr=   2999.00100082737     
 A_corr= -0.187393673171805     
 Ecorr_band=  -2999.18839450054     
 End Solvation calculations
RMM:  15    -0.244926689529E+03    0.15907E+00   -0.16009E-01  5427   0.668E-01    0.247E+00
 Begin Solvation calculations
  rms_SCF =   0.585464443290312      tol =   5.854644432903119E-002
 Begin minimization
 Creating dielectric and ionic cavities
  area:      157.745185893140     
  volume:    784.074243675613     
  Acav:     8.281622259389836E-002
  Solving linear dielectric/ionic screening model
        iter                  A_solv                     rms
   LPB:       -0.287970337930839E+00   0.704036261839529E+00
   LPB:    0  -0.287649264526935E+00   0.809520676133357E+00   0.427776E-02   0.000000E+00   0.350915E+02   0.150113E+00
   LPB:    1  -0.280259914485593E+00   0.299051572293988E+00   0.121342E-01   0.000000E+00   0.124803E+03  -0.391905E-17
   LPB:    2  -0.279013838999684E+00   0.839114776319210E-01   0.155474E-01   0.131610E+00   0.184838E+03  -0.142639E-14
   LPB:    3  -0.278577468496356E+00   0.104837076148405E+00   0.248188E-01   0.219376E+00   0.323440E+03  -0.155853E-14
   LPB:    4  -0.278095310037434E+00   0.983541625086610E-01   0.336518E-01   0.814905E+00   0.741482E+02  -0.166498E-14
   LPB:    5  -0.277423199529598E+00   0.653734067621403E-01   0.393540E-01   0.119198E+01   0.159797E+03  -0.168468E-14
   LPB:    6  -0.276919928697317E+00   0.315818751324315E-01   0.358488E-01   0.822005E+00   0.748706E+02  -0.104118E-14
  Finished solving LPB equations
  A_corr:   -0.194103706103419     
 End minimization
 Ecorr=   2984.37867737704     
 A_corr= -0.194103706103419     
 Ecorr_band=  -2984.57278108315     
 End Solvation calculations
RMM:  16    -0.244925066080E+03    0.16234E-02   -0.92927E-02  5426   0.493E-01    0.264E+00
 Begin Solvation calculations
  rms_SCF =   0.585464443290312      tol =   5.854644432903119E-002
 Begin minimization
 Creating dielectric and ionic cavities
  area:      158.425373374234     
  volume:    779.475981670031     
  Acav:     8.317332102147308E-002
  Solving linear dielectric/ionic screening model
        iter                  A_solv                     rms
   LPB:       -0.331396042963808E+00   0.115071000464307E+01
   LPB:    0  -0.327993429191913E+00   0.133282642897805E+01   0.138832E-01   0.000000E+00   0.353071E+02   0.490176E+00
   LPB:    1  -0.300750920309316E+00   0.640142633815899E+00   0.127556E-01   0.000000E+00   0.165951E+03  -0.160326E-16
   LPB:    2  -0.296342220315064E+00   0.163566578003274E+00   0.147919E-01   0.139553E+00   0.142082E+03  -0.724317E-14
   LPB:    3  -0.295183888071869E+00   0.101974175055870E+00   0.190347E-01   0.204175E+00   0.360793E+03  -0.943455E-14
   LPB:    4  -0.294763578142204E+00   0.798529056082051E-01   0.226378E-01   0.305104E+00   0.146173E+03  -0.101704E-13
   LPB:    5  -0.294466555013116E+00   0.542200152956684E-01   0.281228E-01   0.568850E+00   0.314825E+03  -0.117323E-13
  Finished solving LPB equations
  A_corr:   -0.211293233991643     
 End minimization
 Ecorr=   2969.29166580238     
 A_corr= -0.211293233991643     
 Ecorr_band=  -2969.50295903637     
 End Solvation calculations
RMM:  17    -0.244913296110E+03    0.11770E-01   -0.57665E-02  5427   0.392E-01    0.226E+00
 Begin Solvation calculations
  rms_SCF =   0.585464443290312      tol =   5.854644432903119E-002
 Begin minimization
 Creating dielectric and ionic cavities
  area:      158.689865975751     
  volume:    777.805363653542     
  Acav:     8.331217963726928E-002
  Solving linear dielectric/ionic screening model
        iter                  A_solv                     rms
   LPB:       -0.307132165320606E+00   0.354267020033323E+00
   LPB:    0  -0.306704087344298E+00   0.474196418615005E+00   0.491886E-02   0.000000E+00   0.353854E+02   0.174056E+00
   LPB:    1  -0.302022251330008E+00   0.196397613884474E+00   0.145628E-01   0.000000E+00   0.155042E+03  -0.754301E-17
   LPB:    2  -0.301294989436245E+00   0.660227052977063E-01   0.166357E-01   0.135981E+00   0.138640E+03  -0.126277E-14
   LPB:    3  -0.300966980408283E+00   0.381441932985258E-01   0.317003E-01   0.236685E+00   0.161860E+03  -0.523823E-15
   LPB:    4  -0.300660700516884E+00   0.776730923092921E-01   0.393834E-01   0.751595E+00   0.187328E+03   0.332041E-17
   LPB:    5  -0.300442016690346E+00   0.943155202170933E-01   0.248907E-01   0.112973E+01   0.166538E+03   0.398917E-15
   LPB:    6  -0.300241313239094E+00   0.451544083315584E-01   0.256657E-01   0.890066E+00   0.845174E+02   0.691754E-15
  Finished solving LPB equations
  A_corr:   -0.216929133601825     
 End minimization
 Ecorr=   2960.14801834403     
 A_corr= -0.216929133601825     
 Ecorr_band=  -2960.36494747763     
 End Solvation calculations
RMM:  18    -0.244888427160E+03    0.24869E-01   -0.26886E-02  5426   0.272E-01    0.159E+00
 Begin Solvation calculations
  rms_SCF =   0.585464443290312      tol =   5.854644432903119E-002
 Begin minimization
 Creating dielectric and ionic cavities
  area:      159.152826621753     
  volume:    775.191124065436     
  Acav:     8.355523397642013E-002
  Solving linear dielectric/ionic screening model
        iter                  A_solv                     rms
   LPB:       -0.326239150100235E+00   0.787114786457106E+00
   LPB:    0  -0.325476861656820E+00   0.899518894682851E+00   0.655257E-02   0.000000E+00   0.355079E+02   0.232668E+00
   LPB:    1  -0.311552811978081E+00   0.284790606710866E+00   0.143898E-01   0.000000E+00   0.147520E+03   0.115215E-16
   LPB:    2  -0.309668142738371E+00   0.120868347348691E+00   0.155525E-01   0.125235E+00   0.183046E+03   0.823867E-15
   LPB:    3  -0.309255367961606E+00   0.766031942483805E-01   0.194198E-01   0.175402E+00   0.140683E+03  -0.182979E-16
   LPB:    4  -0.309088268681032E+00   0.731802071417074E-01   0.224334E-01   0.350437E+00   0.219789E+03   0.221415E-15
   LPB:    5  -0.308950160645427E+00   0.448731603641724E-01   0.264439E-01   0.701154E+00   0.149528E+03   0.296257E-15
  Finished solving LPB equations
  A_corr:   -0.225394926669006     
 End minimization
 Ecorr=   2952.13887136066     
 A_corr= -0.225394926669006     
 Ecorr_band=  -2952.36426628733     
 End Solvation calculations
RMM:  19    -0.244877781557E+03    0.10646E-01   -0.11741E-02  5427   0.169E-01    0.106E+00
 Begin Solvation calculations
  rms_SCF =   0.585464443290312      tol =   5.854644432903119E-002
 Begin minimization
 Creating dielectric and ionic cavities
  area:      159.392585800987     
  volume:    773.962707170803     
  Acav:     8.368110754551807E-002
  Solving linear dielectric/ionic screening model
        iter                  A_solv                     rms
   LPB:       -0.319194546646528E+00   0.478568582570733E+00
   LPB:    0  -0.318938982912869E+00   0.538299612841080E+00   0.379097E-02   0.000000E+00   0.355655E+02   0.134828E+00
   LPB:    1  -0.314506227454387E+00   0.165762500614653E+00   0.145077E-01   0.000000E+00   0.130739E+03  -0.364019E-17
   LPB:    2  -0.313904975780131E+00   0.699996170035247E-01   0.153022E-01   0.128596E+00   0.177553E+03   0.736060E-15
   LPB:    3  -0.313701006753986E+00   0.666741545898376E-01   0.253587E-01   0.204708E+00   0.118229E+03   0.525372E-15
   LPB:    4  -0.313546146767857E+00   0.747347174244282E-01   0.274731E-01   0.700801E+00   0.177966E+03   0.415593E-15
   LPB:    5  -0.313388911594275E+00   0.464801870328833E-01   0.279126E-01   0.999352E+00   0.124727E+03   0.326041E-15
  Finished solving LPB equations
  A_corr:   -0.229707804048757     
 End minimization
 Ecorr=   2947.15584363458     
 A_corr= -0.229707804048757     
 Ecorr_band=  -2947.38555143863     
 End Solvation calculations
RMM:  20    -0.244870719814E+03    0.70617E-02   -0.57360E-03  5428   0.123E-01    0.576E-01
 Begin Solvation calculations
  rms_SCF =   0.585464443290312      tol =   5.854644432903119E-002
 Begin minimization
 Creating dielectric and ionic cavities
  area:      159.582521351114     
  volume:    773.037400580305     
  Acav:     8.378082370933479E-002
  Solving linear dielectric/ionic screening model
        iter                  A_solv                     rms
   LPB:       -0.321242591075925E+00   0.443240398688986E+00
   LPB:    0  -0.321183284692054E+00   0.478154016276813E+00   0.182510E-02   0.000000E+00   0.356089E+02   0.649898E-01
   LPB:    1  -0.317407644146713E+00   0.150375794212853E+00   0.142334E-01   0.000000E+00   0.147903E+03   0.185075E-17
   LPB:    2  -0.316964228976297E+00   0.495648792785186E-01   0.151771E-01   0.110139E+00   0.142572E+03  -0.621670E-17
   LPB:    3  -0.316842217361343E+00   0.333495089626655E-01   0.259709E-01   0.160802E+00   0.126435E+03  -0.231445E-15
   LPB:    4  -0.316734296112230E+00   0.582343504900635E-01   0.379572E-01   0.605199E+00   0.221432E+03  -0.173628E-15
  Finished solving LPB equations
  A_corr:   -0.232953472402895     
 End minimization
 Ecorr=   2943.96276872243     
 A_corr= -0.232953472402895     
 Ecorr_band=  -2944.19572219483     
 End Solvation calculations
RMM:  21    -0.244870800367E+03   -0.80553E-04   -0.27708E-03  5425   0.833E-02    0.558E-01
 Begin Solvation calculations
  rms_SCF =   0.585464443290312      tol =   5.854644432903119E-002
 Begin minimization
 Creating dielectric and ionic cavities
  area:      159.966519135654     
  volume:    771.428273372666     
  Acav:     8.398242254621816E-002
  Solving linear dielectric/ionic screening model
        iter                  A_solv                     rms
   LPB:       -0.342430808226395E+00   0.875332777557857E+00
   LPB:    0  -0.342137819452065E+00   0.933252026296076E+00   0.405230E-02   0.000000E+00   0.356843E+02   0.144604E+00
   LPB:    1  -0.326962316116753E+00   0.269594325967576E+00   0.143215E-01   0.000000E+00   0.160577E+03   0.862291E-17
   LPB:    2  -0.325278150461751E+00   0.112744328950239E+00   0.156114E-01   0.101810E+00   0.153385E+03   0.511013E-14
   LPB:    3  -0.324816191466238E+00   0.724721024605426E-01   0.224833E-01   0.190458E+00   0.124819E+03   0.587210E-14
   LPB:    4  -0.324574313719284E+00   0.858978811560348E-01   0.267878E-01   0.439457E+00   0.254733E+03   0.498814E-14
   LPB:    5  -0.324412087032785E+00   0.669446971780093E-01   0.235627E-01   0.762496E+00   0.105528E+03   0.476636E-14
   LPB:    6  -0.324254889896706E+00   0.268010202606736E-01   0.289761E-01   0.787967E+00   0.155401E+03   0.465989E-14
  Finished solving LPB equations
  A_corr:   -0.240272467350488     
 End minimization
 Ecorr=   2938.34541227611     
 A_corr= -0.240272467350488     
 Ecorr_band=  -2938.58568474346     
 End Solvation calculations
RMM:  22    -0.244872421688E+03   -0.16213E-02   -0.22183E-03  5425   0.731E-02    0.712E-01
 Begin Solvation calculations
  rms_SCF =   0.585464443290312      tol =   5.854644432903119E-002
 Begin minimization
 Creating dielectric and ionic cavities
  area:      160.088712631114     
  volume:    770.966499914024     
  Acav:     8.404657413133486E-002
  Solving linear dielectric/ionic screening model
        iter                  A_solv                     rms
   LPB:       -0.329190691162890E+00   0.373609925805864E+00
   LPB:    0  -0.329172929743203E+00   0.384277958889261E+00   0.997432E-03   0.000000E+00   0.357060E+02   0.356143E-01
   LPB:    1  -0.327137163817539E+00   0.940245189189919E-01   0.142511E-01   0.000000E+00   0.132283E+03   0.384320E-18
   LPB:    2  -0.326889100515027E+00   0.541805678592836E-01   0.151142E-01   0.114894E+00   0.237709E+03   0.986664E-15
   LPB:    3  -0.326822611673656E+00   0.353380497856830E-01   0.194131E-01   0.208677E+00   0.114815E+03   0.131909E-14
   LPB:    4  -0.326753602373266E+00   0.511466129087664E-01   0.367484E-01   0.548296E+00   0.164778E+03   0.138134E-14
  Finished solving LPB equations
  A_corr:   -0.242707028241931     
 End minimization
 Ecorr=   2936.43467116702     
 A_corr= -0.242707028241931     
 Ecorr_band=  -2936.67737819526     
 End Solvation calculations
RMM:  23    -0.244871555076E+03    0.86661E-03   -0.93369E-04  5329   0.453E-02    0.630E-01
 Begin Solvation calculations
  rms_SCF =   0.585464443290312      tol =   5.854644432903119E-002
 Begin minimization
 Creating dielectric and ionic cavities
  area:      160.471920526720     
  volume:    769.741356891984     
  Acav:     8.424775827652817E-002
  Solving linear dielectric/ionic screening model
        iter                  A_solv                     rms
   LPB:       -0.359531213329309E+00   0.126616891041633E+01
   LPB:    0  -0.359463971728412E+00   0.128923135816079E+01   0.193916E-02   0.000000E+00   0.357634E+02   0.693511E-01
   LPB:    1  -0.338559865497428E+00   0.300926539774172E+00   0.141377E-01   0.000000E+00   0.122562E+03  -0.105750E-17
   LPB:    2  -0.336349701258752E+00   0.159426576526003E+00   0.144600E-01   0.103372E+00   0.216564E+03   0.419005E-14
   LPB:    3  -0.335783274162073E+00   0.922308519325756E-01   0.188931E-01   0.196149E+00   0.119896E+03   0.720231E-14
   LPB:    4  -0.335505849150144E+00   0.823197674795622E-01   0.231067E-01   0.400466E+00   0.247745E+03   0.798983E-14
   LPB:    5  -0.335319149623059E+00   0.543869639746920E-01   0.259268E-01   0.599772E+00   0.104239E+03   0.836704E-14
  Finished solving LPB equations
  A_corr:   -0.251071391346530     
 End minimization
 Ecorr=   2933.06857300884     
 A_corr= -0.251071391346530     
 Ecorr_band=  -2933.31964440019     
 End Solvation calculations
RMM:  24    -0.244871701465E+03   -0.14639E-03   -0.17917E-03  5383   0.565E-02    0.537E-01
 Begin Solvation calculations
  rms_SCF =   0.585464443290312      tol =   5.854644432903119E-002
 Begin minimization
 Creating dielectric and ionic cavities
  area:      160.676085702422     
  volume:    769.213326459698     
  Acav:     8.435494499377169E-002
  Solving linear dielectric/ionic screening model
        iter                  A_solv                     rms
   LPB:       -0.348225937129444E+00   0.743118203137046E+00
   LPB:    0  -0.348194568357986E+00   0.760962218610401E+00   0.132402E-02   0.000000E+00   0.357882E+02   0.473842E-01
   LPB:    1  -0.341441063364819E+00   0.179920696462495E+00   0.141215E-01   0.000000E+00   0.112380E+03   0.347316E-17
   LPB:    2  -0.340704536117331E+00   0.869400630778279E-01   0.143147E-01   0.107586E+00   0.206140E+03   0.159301E-15
   LPB:    3  -0.340487929106817E+00   0.662370943637226E-01   0.218161E-01   0.192970E+00   0.110998E+03   0.604023E-15
   LPB:    4  -0.340307623411628E+00   0.755459112585648E-01   0.289527E-01   0.627228E+00   0.183062E+03   0.138763E-14
   LPB:    5  -0.340132419004874E+00   0.536136199856637E-01   0.291391E-01   0.965493E+00   0.857491E+02   0.201629E-14
  Finished solving LPB equations
  A_corr:   -0.255777474011103     
 End minimization
 Ecorr=   2930.48974013420     
 A_corr= -0.255777474011103     
 Ecorr_band=  -2930.74551760821     
 End Solvation calculations
RMM:  25    -0.244872304106E+03   -0.60264E-03   -0.76465E-04  5252   0.403E-02    0.570E-01
 Begin Solvation calculations
  rms_SCF =   0.585464443290312      tol =   5.854644432903119E-002
 Begin minimization
 Creating dielectric and ionic cavities
  area:      160.945663158528     
  volume:    768.742316895360     
  Acav:     8.449647315822734E-002
  Solving linear dielectric/ionic screening model
        iter                  A_solv                     rms
   LPB:       -0.367413171377956E+00   0.139826151483555E+01
   LPB:    0  -0.367412963276236E+00   0.139698420525630E+01  -0.107808E-03   0.000000E+00   0.358103E+02  -0.386062E-02
   LPB:    1  -0.349995109760972E+00   0.310860652081052E+00   0.136173E-01   0.000000E+00   0.940550E+02   0.280047E-19
   LPB:    2  -0.348134035881827E+00   0.134130043867955E+00   0.130259E-01   0.111700E+00   0.258734E+03   0.336393E-14
   LPB:    3  -0.347735823579719E+00   0.640533460097216E-01   0.180429E-01   0.154473E+00   0.137185E+03   0.391867E-14
   LPB:    4  -0.347533022468066E+00   0.682089135127866E-01   0.258062E-01   0.356072E+00   0.197246E+03   0.424885E-14
   LPB:    5  -0.347367809900539E+00   0.526389060821533E-01   0.302324E-01   0.695383E+00   0.902982E+02   0.429981E-14
  Finished solving LPB equations
  A_corr:   -0.262871336742312     
 End minimization
 Ecorr=   2927.94490381360     
 A_corr= -0.262871336742312     
 Ecorr_band=  -2928.20777515034     
 End Solvation calculations
RMM:  26    -0.244871934868E+03    0.36924E-03   -0.11096E-03  5252   0.411E-02    0.354E-01
 Begin Solvation calculations
  rms_SCF =   0.516332359626406      tol =   5.163323596264065E-002
 Begin minimization
 Creating dielectric and ionic cavities
  area:      161.275678828787     
  volume:    768.294266607933     
  Acav:     8.466973138511334E-002
  Solving linear dielectric/ionic screening model
        iter                  A_solv                     rms
   LPB:       -0.386220907166226E+00   0.165572477500610E+01
   LPB:    0  -0.386220891292293E+00   0.165606962676884E+01   0.297664E-04   0.000000E+00   0.358313E+02   0.106657E-02
   LPB:    1  -0.361190348358150E+00   0.362371134374439E+00   0.136752E-01   0.000000E+00   0.954835E+02  -0.255507E-19
   LPB:    2  -0.358556161736956E+00   0.165695000703680E+00   0.131816E-01   0.109180E+00   0.257459E+03   0.396120E-14
   LPB:    3  -0.357954361216311E+00   0.805338682544752E-01   0.182727E-01   0.164805E+00   0.131579E+03   0.326716E-14
   LPB:    4  -0.357634040486956E+00   0.849780956567877E-01   0.260139E-01   0.373877E+00   0.209251E+03   0.304517E-14
   LPB:    5  -0.357393187637568E+00   0.631468690893362E-01   0.287428E-01   0.680523E+00   0.912903E+02   0.283076E-14
   LPB:    6  -0.357183055709059E+00   0.268208113771631E-01   0.328234E-01   0.763989E+00   0.133271E+03   0.189489E-14
  Finished solving LPB equations
  A_corr:   -0.272513324323946     
 End minimization
 Ecorr=   2924.03738588724     
 A_corr= -0.272513324323946     
 Ecorr_band=  -2924.30989921156     
 End Solvation calculations
RMM:  27    -0.244872654881E+03   -0.72001E-03   -0.11606E-03  5159   0.445E-02    0.227E-01
 Begin Solvation calculations
  rms_SCF =   0.347823279548980      tol =   3.478232795489798E-002
 Begin minimization
 Creating dielectric and ionic cavities
  area:      161.339495339525     
  volume:    768.281265555845     
  Acav:     8.470323505325070E-002
  Solving linear dielectric/ionic screening model
        iter                  A_solv                     rms
   LPB:       -0.361103899667866E+00   0.405837755813375E+00
   LPB:    0  -0.361101791279682E+00   0.403125177458351E+00  -0.343048E-03   0.000000E+00   0.358319E+02  -0.122921E-01
   LPB:    1  -0.359654477333844E+00   0.843544223506420E-01   0.136374E-01   0.000000E+00   0.952203E+02  -0.252404E-18
   LPB:    2  -0.359490307788621E+00   0.462185422476880E-01   0.138520E-01   0.111674E+00   0.304785E+03  -0.227603E-15
   LPB:    3  -0.359436244663381E+00   0.252744265952425E-01   0.202600E-01   0.225155E+00   0.130875E+03  -0.238094E-15
   LPB:    4  -0.359340731867459E+00   0.484487336942547E-01   0.595618E-01   0.600940E+00   0.149064E+03  -0.286155E-15
   LPB:    5  -0.359201055919469E+00   0.556950157155279E-01   0.384782E-01   0.226367E+01   0.713235E+02  -0.372294E-15
   LPB:    6  -0.359123547702660E+00   0.165608180380721E-01   0.215872E-01   0.989110E+00   0.895969E+02  -0.380995E-15
  Finished solving LPB equations
  A_corr:   -0.274420312649409     
 End minimization
 Ecorr=   2922.72915780277     
 A_corr= -0.274420312649409     
 Ecorr_band=  -2923.00357811542     
 End Solvation calculations
RMM:  28    -0.244873762474E+03   -0.11076E-02   -0.47919E-04  4714   0.309E-02    0.431E-01
 Begin Solvation calculations
  rms_SCF =   0.347823279548980      tol =   3.478232795489798E-002
 Begin minimization
 Creating dielectric and ionic cavities
  area:      161.460087091048     
  volume:    768.493494451976     
  Acav:     8.476654572279996E-002
  Solving linear dielectric/ionic screening model
        iter                  A_solv                     rms
   LPB:       -0.379077579605767E+00   0.142008663608953E+01
   LPB:    0  -0.378918857047762E+00   0.139177986149548E+01  -0.297687E-02   0.000000E+00   0.358219E+02  -0.106637E+00
   LPB:    1  -0.366623645612701E+00   0.279724894311086E+00   0.127047E-01   0.000000E+00   0.779299E+02  -0.357136E-17
   LPB:    2  -0.365282661593516E+00   0.958782266205688E-01   0.122819E-01   0.112820E+00   0.293925E+03   0.106648E-14
   LPB:    3  -0.365038472757645E+00   0.280543762985513E-01   0.174891E-01   0.127879E+00   0.172549E+03   0.111679E-14
   LPB:    4  -0.364963110502975E+00   0.295595528885557E-01   0.247468E-01   0.218110E+00   0.285363E+03   0.103133E-14
  Finished solving LPB equations
  A_corr:   -0.280196564780175     
 End minimization
 Ecorr=   2921.80525297674     
 A_corr= -0.280196564780175     
 Ecorr_band=  -2922.08544954152     
 End Solvation calculations
RMM:  29    -0.244873271344E+03    0.49113E-03   -0.76136E-04  4666   0.292E-02    0.113E-01
 Begin Solvation calculations
  rms_SCF =   0.133178588775053      tol =   1.331785887750532E-002
 Begin minimization
 Creating dielectric and ionic cavities
  area:      161.495581912564     
  volume:    768.657254007831     
  Acav:     8.478518050409627E-002
  Solving linear dielectric/ionic screening model
        iter                  A_solv                     rms
   LPB:       -0.368947369644594E+00   0.551078014900236E+00
   LPB:    0  -0.368898827748023E+00   0.536947034102585E+00  -0.164644E-02   0.000000E+00   0.358143E+02  -0.589660E-01
   LPB:    1  -0.367156840901076E+00   0.103218206560422E+00   0.125879E-01   0.000000E+00   0.758628E+02   0.118629E-17
   LPB:    2  -0.366982022004157E+00   0.398196489269736E-01   0.122200E-01   0.103378E+00   0.273765E+03   0.884758E-16
   LPB:    3  -0.366929679900819E+00   0.141294503766788E-01   0.226752E-01   0.161355E+00   0.116595E+03   0.959994E-16
   LPB:    4  -0.366893156799949E+00   0.145333019489986E-01   0.347762E-01   0.454973E+00   0.190448E+03   0.532813E-16
   LPB:    5  -0.366871865424865E+00   0.187592811715923E-01   0.313776E-01   0.646098E+00   0.147866E+03   0.263731E-16
   LPB:    6  -0.366855563583941E+00   0.160196217721770E-01   0.305356E-01   0.786769E+00   0.111162E+03  -0.131219E-15
   LPB:    7  -0.366839042374285E+00   0.876569771228764E-02   0.341887E-01   0.905167E+00   0.162771E+03   0.168752E-16
  Finished solving LPB equations
  A_corr:   -0.282053861870189     
 End minimization
 Ecorr=   2921.57491449455     
 A_corr= -0.282053861870189     
 Ecorr_band=  -2921.85696835643     
 End Solvation calculations
RMM:  30    -0.244873666784E+03   -0.39544E-03   -0.24148E-04  4601   0.210E-02    0.174E-01
 Begin Solvation calculations
  rms_SCF =   0.133178588775053      tol =   1.331785887750532E-002
 Begin minimization
 Creating dielectric and ionic cavities
  area:      161.563867047972     
  volume:    768.804394401601     
  Acav:     8.482103020018542E-002
  Solving linear dielectric/ionic screening model
        iter                  A_solv                     rms
   LPB:       -0.374680519741392E+00   0.833157515478635E+00
   LPB:    0  -0.374623415501867E+00   0.815278384382689E+00  -0.178592E-02   0.000000E+00   0.358074E+02  -0.639492E-01
   LPB:    1  -0.370745766787518E+00   0.158112466561731E+00   0.124366E-01   0.000000E+00   0.744974E+02  -0.289705E-17
   LPB:    2  -0.370317461224800E+00   0.509680759322310E-01   0.122426E-01   0.112205E+00   0.290115E+03   0.338562E-16
   LPB:    3  -0.370240364308359E+00   0.150189859418199E-01   0.178725E-01   0.123302E+00   0.178137E+03   0.100602E-15
   LPB:    4  -0.370219540619985E+00   0.151259167791185E-01   0.238050E-01   0.202786E+00   0.254720E+03   0.358705E-16
   LPB:    5  -0.370209492221349E+00   0.144694360210433E-01   0.275172E-01   0.417448E+00   0.121817E+03   0.184789E-16
   LPB:    6  -0.370199224281846E+00   0.897148945926238E-02   0.350413E-01   0.802437E+00   0.944791E+02  -0.202081E-15
  Finished solving LPB equations
  A_corr:   -0.285378194081661     
 End minimization
 Ecorr=   2920.75027467372     
 A_corr= -0.285378194081661     
 Ecorr_band=  -2921.03565286781     
 End Solvation calculations
RMM:  31    -0.244874340527E+03   -0.67374E-03   -0.27858E-04  4511   0.146E-02    0.280E-01
 Begin Solvation calculations
  rms_SCF =   0.133178588775053      tol =   1.331785887750532E-002
 Begin minimization
 Creating dielectric and ionic cavities
  area:      161.571500568492     
  volume:    768.815148863878     
  Acav:     8.482503779845850E-002
  Solving linear dielectric/ionic screening model
        iter                  A_solv                     rms
   LPB:       -0.370704417213462E+00   0.114750844389333E+00
   LPB:    0  -0.370703895267768E+00   0.113908695073862E+00  -0.170744E-03   0.000000E+00   0.358069E+02  -0.611379E-02
   LPB:    1  -0.370634148425392E+00   0.231898676615320E-01   0.120700E-01   0.000000E+00   0.736831E+02   0.270269E-18
   LPB:    2  -0.370623729368857E+00   0.754184967938077E-02   0.135000E-01   0.133560E+00   0.265599E+03  -0.144537E-16
   LPB:    3  -0.370619910304853E+00   0.448804435784693E-02   0.268107E-01   0.184567E+00   0.161224E+03  -0.208157E-16
   LPB:    4  -0.370609586064949E+00   0.758952028150783E-02   0.865921E-01   0.837012E+00   0.100265E+03  -0.449073E-17
  Finished solving LPB equations
  A_corr:   -0.285784548266490     
 End minimization
 Ecorr=   2920.57977756690     
 A_corr= -0.285784548266490     
 Ecorr_band=  -2920.86556211516     
 End Solvation calculations
RMM:  32    -0.244875775135E+03   -0.14346E-02   -0.12673E-04  4624   0.964E-03    0.480E-01
 Begin Solvation calculations
  rms_SCF =   0.133178588775053      tol =   1.331785887750532E-002
 Begin minimization
 Creating dielectric and ionic cavities
  area:      161.551209237139     
  volume:    768.859530623652     
  Acav:     8.481438484949798E-002
  Solving linear dielectric/ionic screening model
        iter                  A_solv                     rms
   LPB:       -0.369977011858366E+00   0.180454459329637E+00
   LPB:    0  -0.369976332498759E+00   0.181439027723490E+00  -0.194802E-03   0.000000E+00   0.358048E+02  -0.697486E-02
   LPB:    1  -0.369784785212225E+00   0.405852240697868E-01   0.120599E-01   0.000000E+00   0.796183E+02  -0.233770E-18
   LPB:    2  -0.369749868730734E+00   0.111491515341817E-01   0.141128E-01   0.155771E+00   0.272572E+03  -0.356525E-15
   LPB:    3  -0.369743084732852E+00   0.569068555562957E-02   0.191168E-01   0.143434E+00   0.297871E+03  -0.434801E-15
   LPB:    4  -0.369740473272512E+00   0.682678522728149E-02   0.264364E-01   0.278362E+00   0.441676E+03  -0.445192E-15
  Finished solving LPB equations
  A_corr:   -0.284926088423014     
 End minimization
 Ecorr=   2920.86338048214     
 A_corr= -0.284926088423014     
 Ecorr_band=  -2921.14830657057     
 End Solvation calculations
RMM:  33    -0.244874716254E+03    0.10589E-02   -0.84058E-05  4305   0.102E-02    0.331E-01
 Begin Solvation calculations
  rms_SCF =   0.133178588775053      tol =   1.331785887750532E-002
 Begin minimization
 Creating dielectric and ionic cavities
  area:      161.525529404404     
  volume:    768.988881164065     
  Acav:     8.480090293731211E-002
  Solving linear dielectric/ionic screening model
        iter                  A_solv                     rms
   LPB:       -0.369235762424155E+00   0.170109877344896E+00
   LPB:    0  -0.369219452667646E+00   0.162779419181799E+00  -0.954564E-03   0.000000E+00   0.357987E+02  -0.341722E-01
   LPB:    1  -0.368975977654829E+00   0.441990057688575E-01   0.120421E-01   0.000000E+00   0.125710E+03  -0.754222E-18
   LPB:    2  -0.368939944187584E+00   0.184235255288539E-01   0.136862E-01   0.130218E+00   0.244308E+03  -0.326841E-16
   LPB:    3  -0.368929356934449E+00   0.825353852456146E-02   0.216566E-01   0.185682E+00   0.137818E+03  -0.279794E-16
   LPB:    4  -0.368924526502949E+00   0.849542107732826E-02   0.286676E-01   0.344669E+00   0.554682E+03  -0.553582E-16
  Finished solving LPB equations
  A_corr:   -0.284123623565637     
 End minimization
 Ecorr=   2920.98091749887     
 A_corr= -0.284123623565637     
 Ecorr_band=  -2921.26504112243     
 End Solvation calculations
RMM:  34    -0.244876429622E+03   -0.17134E-02   -0.93018E-05  4299   0.105E-02    0.520E-01
 Begin Solvation calculations
  rms_SCF =   0.133178588775053      tol =   1.331785887750532E-002
 Begin minimization
 Creating dielectric and ionic cavities
  area:      161.517305524466     
  volume:    769.023519331978     
  Acav:     8.479658540034467E-002
  Solving linear dielectric/ionic screening model
        iter                  A_solv                     rms
   LPB:       -0.368681495376515E+00   0.123944113888114E+00
   LPB:    0  -0.368679047005706E+00   0.121348920995368E+00  -0.369854E-03   0.000000E+00   0.357971E+02  -0.132397E-01
   LPB:    1  -0.368605472225160E+00   0.233404425955244E-01   0.110506E-01   0.000000E+00   0.810340E+02  -0.769776E-18
   LPB:    2  -0.368593003209643E+00   0.594830048957076E-02   0.142254E-01   0.131651E+00   0.246629E+03   0.874493E-17
   LPB:    3  -0.368588981878100E+00   0.435386552051094E-02   0.301579E-01   0.152125E+00   0.179691E+03  -0.192458E-16
   LPB:    4  -0.368586071841079E+00   0.317825749639265E-02   0.360509E-01   0.605360E+00   0.309643E+03  -0.299986E-16
  Finished solving LPB equations
  A_corr:   -0.283789486440735     
 End minimization
 Ecorr=   2920.88585030739     
 A_corr= -0.283789486440735     
 Ecorr_band=  -2921.16963979383     
 End Solvation calculations
RMM:  35    -0.244877659160E+03   -0.12295E-02   -0.39562E-05  3895   0.772E-03    0.629E-01
 Begin Solvation calculations
  rms_SCF =   0.133178588775053      tol =   1.331785887750532E-002
 Begin minimization
 Creating dielectric and ionic cavities
  area:      161.510206495820     
  volume:    769.032455384117     
  Acav:     8.479285841030547E-002
  Solving linear dielectric/ionic screening model
        iter                  A_solv                     rms
   LPB:       -0.368646746166197E+00   0.372660555993763E+00
   LPB:    0  -0.368643945270786E+00   0.371818996667566E+00  -0.395587E-03   0.000000E+00   0.357967E+02  -0.141607E-01
   LPB:    1  -0.368107433616490E+00   0.563405113396684E-01   0.104338E-01   0.000000E+00   0.712201E+02   0.836393E-18
   LPB:    2  -0.368025128456162E+00   0.104971768065744E-01   0.141330E-01   0.113255E+00   0.223800E+03  -0.442902E-16
   LPB:    3  -0.368012674142378E+00   0.458345525734738E-02   0.237419E-01   0.900764E-01   0.252923E+03  -0.175020E-16
   LPB:    4  -0.368007666145822E+00   0.366641695571575E-02   0.314485E-01   0.303571E+00   0.306796E+03  -0.149092E-16
  Finished solving LPB equations
  A_corr:   -0.283214807735516     
 End minimization
 Ecorr=   2920.85662038737     
 A_corr= -0.283214807735516     
 Ecorr_band=  -2921.13983519511     
 End Solvation calculations
RMM:  36    -0.244881925762E+03   -0.42666E-02   -0.14644E-04  4544   0.126E-02    0.919E-01
 Begin Solvation calculations
  rms_SCF =   0.133178588775053      tol =   1.331785887750532E-002
 Begin minimization
 Creating dielectric and ionic cavities
  area:      161.509285569437     
  volume:    769.029182753008     
  Acav:     8.479237492395453E-002
  Solving linear dielectric/ionic screening model
        iter                  A_solv                     rms
   LPB:       -0.367918676380081E+00   0.547166663295506E-01
   LPB:    0  -0.367918671199322E+00   0.547102205795931E-01   0.170133E-04   0.000000E+00   0.357968E+02   0.609023E-03
   LPB:    1  -0.367905997799006E+00   0.976490120477049E-02   0.111173E-01   0.000000E+00   0.685118E+02   0.209490E-19
   LPB:    2  -0.367903566430023E+00   0.219206362305130E-02   0.151049E-01   0.141202E+00   0.238684E+03  -0.120694E-17
   LPB:    3  -0.367901135697873E+00   0.348927380551023E-02   0.616152E-01   0.245084E+00   0.151556E+03  -0.191420E-17
   LPB:    4  -0.367899382280591E+00   0.167926936463162E-02   0.298261E-01   0.149019E+01   0.173977E+03  -0.776142E-19
  Finished solving LPB equations
  A_corr:   -0.283107007356636     
 End minimization
 Ecorr=   2920.76485909863     
 A_corr= -0.283107007356636     
 Ecorr_band=  -2921.04796610599     
 End Solvation calculations
RMM:  37    -0.244882134203E+03   -0.20844E-03   -0.71658E-06  3065   0.483E-03    0.930E-01
 Begin Solvation calculations
  rms_SCF =   0.133178588775053      tol =   1.331785887750532E-002
 Begin minimization
 Creating dielectric and ionic cavities
  area:      161.513593104598     
  volume:    769.052941132066     
  Acav:     8.479463637991416E-002
  Solving linear dielectric/ionic screening model
        iter                  A_solv                     rms
   LPB:       -0.369023911841845E+00   0.363614600643998E+00
   LPB:    0  -0.369023599254325E+00   0.363412725805478E+00  -0.132156E-03   0.000000E+00   0.357957E+02  -0.473060E-02
   LPB:    1  -0.368530464123544E+00   0.530152833321630E-01   0.103872E-01   0.000000E+00   0.692054E+02  -0.130677E-18
   LPB:    2  -0.368459219204333E+00   0.105597434177138E-01   0.139729E-01   0.107399E+00   0.215897E+03  -0.272151E-16
   LPB:    3  -0.368448936783392E+00   0.333349532260314E-02   0.217883E-01   0.925557E-01   0.247488E+03  -0.315441E-16
   LPB:    4  -0.368445850059267E+00   0.231949329517912E-02   0.272654E-01   0.239891E+00   0.463360E+03  -0.786876E-17
  Finished solving LPB equations
  A_corr:   -0.283651213679353     
 End minimization
 Ecorr=   2920.69712440093     
 A_corr= -0.283651213679353     
 Ecorr_band=  -2920.98077561461     
 End Solvation calculations
RMM:  38    -0.244878689320E+03    0.34449E-02   -0.61672E-05  4371   0.832E-03    0.700E-01
 Begin Solvation calculations
  rms_SCF =   0.133178588775053      tol =   1.331785887750532E-002
 Begin minimization
 Creating dielectric and ionic cavities
  area:      161.520289782755     
  volume:    769.079343064983     
  Acav:     8.479815213594644E-002
  Solving linear dielectric/ionic screening model
        iter                  A_solv                     rms
   LPB:       -0.369563218209069E+00   0.325345289376350E+00
   LPB:    0  -0.369560253384865E+00   0.323566209802818E+00  -0.407011E-03   0.000000E+00   0.357945E+02  -0.145688E-01
   LPB:    1  -0.369158756929911E+00   0.484372960322970E-01   0.105404E-01   0.000000E+00   0.688788E+02  -0.538954E-18
   LPB:    2  -0.369105007699869E+00   0.102808208556695E-01   0.133813E-01   0.105451E+00   0.223061E+03  -0.104308E-15
   LPB:    3  -0.369097035208987E+00   0.327597793398129E-02   0.222815E-01   0.890790E-01   0.199666E+03  -0.105827E-15
   LPB:    4  -0.369093758089474E+00   0.273311050911100E-02   0.306120E-01   0.299194E+00   0.272458E+03  -0.110064E-15
  Finished solving LPB equations
  A_corr:   -0.284295605953527     
 End minimization
 Ecorr=   2920.56566246842     
 A_corr= -0.284295605953527     
 Ecorr_band=  -2920.84995807437     
 End Solvation calculations
RMM:  39    -0.244876933749E+03    0.17556E-02   -0.49145E-05  4214   0.807E-03    0.544E-01
 Begin Solvation calculations
  rms_SCF =   0.133178588775053      tol =   1.331785887750532E-002
 Begin minimization
 Creating dielectric and ionic cavities
  area:      161.536504920627     
  volume:    769.120394324772     
  Acav:     8.480666508332936E-002
  Solving linear dielectric/ionic screening model
        iter                  A_solv                     rms
   LPB:       -0.371431811637086E+00   0.494171603050873E+00
   LPB:    0  -0.371420364335636E+00   0.489374578770924E+00  -0.799780E-03   0.000000E+00   0.357925E+02  -0.286261E-01
   LPB:    1  -0.370463904345951E+00   0.759546478492868E-01   0.107294E-01   0.000000E+00   0.690509E+02  -0.165832E-17
   LPB:    2  -0.370339989647492E+00   0.168401267922508E-01   0.130575E-01   0.106457E+00   0.231781E+03  -0.998816E-16
   LPB:    3  -0.370322424146251E+00   0.496722807428983E-02   0.209575E-01   0.883195E-01   0.196417E+03  -0.950584E-16
   LPB:    4  -0.370315714816653E+00   0.467620867285581E-02   0.302231E-01   0.264862E+00   0.244596E+03  -0.990456E-16
  Finished solving LPB equations
  A_corr:   -0.285509049733324     
 End minimization
 Ecorr=   2920.26623896071     
 A_corr= -0.285509049733324     
 Ecorr_band=  -2920.55174801044     
 End Solvation calculations
RMM:  40    -0.244875390524E+03    0.15432E-02   -0.80970E-05  4436   0.958E-03    0.347E-01
 Begin Solvation calculations
  rms_SCF =   0.133178588775053      tol =   1.331785887750532E-002
 Begin minimization
 Creating dielectric and ionic cavities
  area:      161.546067357756     
  volume:    769.139772233783     
  Acav:     8.481168536282181E-002
  Solving linear dielectric/ionic screening model
        iter                  A_solv                     rms
   LPB:       -0.371206004194121E+00   0.231152901155425E+00
   LPB:    0  -0.371202273880691E+00   0.227918822280878E+00  -0.456559E-03   0.000000E+00   0.357916E+02  -0.163410E-01
   LPB:    1  -0.370990778195506E+00   0.362721628593041E-01   0.108212E-01   0.000000E+00   0.690510E+02   0.651880E-18
   LPB:    2  -0.370963873337558E+00   0.894739385476992E-02   0.129698E-01   0.106138E+00   0.225536E+03   0.191167E-17
   LPB:    3  -0.370958469308156E+00   0.330084270667691E-02   0.251497E-01   0.103583E+00   0.142536E+03  -0.206494E-16
   LPB:    4  -0.370954443173486E+00   0.333000351768083E-02   0.385215E-01   0.486407E+00   0.144929E+03  -0.393412E-16
  Finished solving LPB equations
  A_corr:   -0.286142757810664     
 End minimization
 Ecorr=   2920.03478837818     
 A_corr= -0.286142757810664     
 Ecorr_band=  -2920.32093113599     
 End Solvation calculations
RMM:  41    -0.244875491016E+03   -0.10049E-03   -0.13147E-05  3257   0.508E-03    0.358E-01
 Begin Solvation calculations
  rms_SCF =   0.133178588775053      tol =   1.331785887750532E-002
 Begin minimization
 Creating dielectric and ionic cavities
  area:      161.561413588626     
  volume:    769.170750996047     
  Acav:     8.481974213402857E-002
  Solving linear dielectric/ionic screening model
        iter                  A_solv                     rms
   LPB:       -0.373177318370436E+00   0.487253389653263E+00
   LPB:    0  -0.373161662071807E+00   0.480665485010485E+00  -0.935357E-03   0.000000E+00   0.357902E+02  -0.334766E-01
   LPB:    1  -0.372283379856589E+00   0.689996524807079E-01   0.103509E-01   0.000000E+00   0.704105E+02   0.797833E-18
   LPB:    2  -0.372177681362786E+00   0.151354096174380E-01   0.131519E-01   0.947159E-01   0.215550E+03   0.267620E-15
   LPB:    3  -0.372164245815375E+00   0.441842674536512E-02   0.206677E-01   0.808875E-01   0.183778E+03   0.275899E-15
   LPB:    4  -0.372158641583608E+00   0.357731708417570E-02   0.329830E-01   0.261374E+00   0.184030E+03   0.266414E-15
  Finished solving LPB equations
  A_corr:   -0.287338899449579     
 End minimization
 Ecorr=   2919.64216578205     
 A_corr= -0.287338899449579     
 Ecorr_band=  -2919.92950468150     
 End Solvation calculations
RMM:  42    -0.244874676795E+03    0.81422E-03   -0.61041E-05  4247   0.774E-03    0.186E-01
 Begin Solvation calculations
  rms_SCF =   0.133178588775053      tol =   1.331785887750532E-002
 Begin minimization
 Creating dielectric and ionic cavities
  area:      161.570699021968     
  volume:    769.181865278391     
  Acav:     8.482461698653322E-002
  Solving linear dielectric/ionic screening model
        iter                  A_solv                     rms
   LPB:       -0.373109426815357E+00   0.257455489847584E+00
   LPB:    0  -0.373105001987164E+00   0.253802297525943E+00  -0.497261E-03   0.000000E+00   0.357897E+02  -0.177968E-01
   LPB:    1  -0.372864033760036E+00   0.364009790112993E-01   0.102802E-01   0.000000E+00   0.701689E+02   0.719781E-18
   LPB:    2  -0.372834369392392E+00   0.852865720512973E-02   0.134102E-01   0.943714E-01   0.200834E+03  -0.111657E-15
   LPB:    3  -0.372829004056322E+00   0.327238103114327E-02   0.253007E-01   0.958660E-01   0.141986E+03  -0.115099E-15
   LPB:    4  -0.372824676790140E+00   0.315721657397058E-02   0.413364E-01   0.493646E+00   0.118247E+03  -0.104816E-15
  Finished solving LPB equations
  A_corr:   -0.288000059803607     
 End minimization
 Ecorr=   2919.32066223525     
 A_corr= -0.288000059803607     
 Ecorr_band=  -2919.60866229505     
 End Solvation calculations
RMM:  43    -0.244874387771E+03    0.28902E-03   -0.38976E-05  4015   0.681E-03    0.478E-02
 Begin Solvation calculations
  rms_SCF =   7.788344748890956E-002 tol =   7.788344748890956E-003
 Begin minimization
 Creating dielectric and ionic cavities
  area:      161.586454300416     
  volume:    769.179950708781     
  Acav:     8.483288850771838E-002
  Solving linear dielectric/ionic screening model
        iter                  A_solv                     rms
   LPB:       -0.373701769163168E+00   0.163178323526883E+00
   LPB:    0  -0.373694532295030E+00   0.152335332708071E+00  -0.635932E-03   0.000000E+00   0.357897E+02  -0.227599E-01
   LPB:    1  -0.373589123733953E+00   0.253590455854237E-01   0.109846E-01   0.000000E+00   0.714850E+02  -0.141945E-17
   LPB:    2  -0.373577531567518E+00   0.683441855753044E-02   0.124558E-01   0.969847E-01   0.220938E+03  -0.222077E-15
   LPB:    3  -0.373575278828828E+00   0.349720140327396E-02   0.233089E-01   0.103847E+00   0.138054E+03  -0.221185E-15
   LPB:    4  -0.373572646837384E+00   0.613921864122683E-02   0.502758E-01   0.541673E+00   0.614830E+02  -0.232105E-15
  Finished solving LPB equations
  A_corr:   -0.288739758329666     
 End minimization
 Ecorr=   2918.88902975432     
 A_corr= -0.288739758329666     
 Ecorr_band=  -2919.17776951265     
 End Solvation calculations
RMM:  44    -0.244874428547E+03   -0.40776E-04   -0.53728E-06  2799   0.349E-03    0.521E-02
 Begin Solvation calculations
  rms_SCF =   7.788344748890956E-002 tol =   7.788344748890956E-003
 Begin minimization
 Creating dielectric and ionic cavities
  area:      161.593910844417     
  volume:    769.167810591827     
  Acav:     8.483680319331871E-002
  Solving linear dielectric/ionic screening model
        iter                  A_solv                     rms
   LPB:       -0.374294745221909E+00   0.210437373575422E+00
   LPB:    0  -0.374288565800107E+00   0.204281229835946E+00  -0.587633E-03   0.000000E+00   0.357903E+02  -0.210316E-01
   LPB:    1  -0.374141168932054E+00   0.246475101355910E-01   0.947775E-02   0.000000E+00   0.770568E+02   0.193894E-17
   LPB:    2  -0.374127600681588E+00   0.553705378900687E-02   0.136067E-01   0.641191E-01   0.167894E+03   0.840476E-16
   LPB:    3  -0.374125758901648E+00   0.207072458819167E-02   0.231468E-01   0.797950E-01   0.137071E+03   0.387159E-16
   LPB:    4  -0.374123995774984E+00   0.177925447534217E-02   0.510127E-01   0.434370E+00   0.789548E+02   0.551060E-16
  Finished solving LPB equations
  A_corr:   -0.289287192581666     
 End minimization
 Ecorr=   2918.58113661383     
 A_corr= -0.289287192581666     
 Ecorr_band=  -2918.87042380641     
 End Solvation calculations
RMM:  45    -0.244874468995E+03   -0.40448E-04   -0.18910E-05  3451   0.439E-03    0.477E-02
 Begin Solvation calculations
  rms_SCF =   6.930165140046468E-002 tol =   6.930165140046468E-003
 Begin minimization
 Creating dielectric and ionic cavities
  area:      161.603108960378     
  volume:    769.151442278493     
  Acav:     8.484163220419849E-002
  Solving linear dielectric/ionic screening model
        iter                  A_solv                     rms
   LPB:       -0.374662435118992E+00   0.124863792917498E+00
   LPB:    0  -0.374656972792930E+00   0.113886192670062E+00  -0.552480E-03   0.000000E+00   0.357911E+02  -0.197739E-01
   LPB:    1  -0.374604907483093E+00   0.156994205459917E-01   0.969935E-02   0.000000E+00   0.788261E+02   0.641997E-19
   LPB:    2  -0.374600388502921E+00   0.369667102000391E-02   0.130024E-01   0.647457E-01   0.151545E+03  -0.424520E-15
   LPB:    3  -0.374599527569847E+00   0.244624410433567E-02   0.259134E-01   0.955933E-01   0.126534E+03  -0.519758E-15
   LPB:    4  -0.374598178099583E+00   0.488778325908679E-02   0.612385E-01   0.663276E+00   0.398426E+02  -0.532775E-15
  Finished solving LPB equations
  A_corr:   -0.289756545895384     
 End minimization
 Ecorr=   2918.16222732471     
 A_corr= -0.289756545895384     
 Ecorr_band=  -2918.45198387061     
 End Solvation calculations
RMM:  46    -0.244874541120E+03   -0.72125E-04   -0.89689E-06  2903   0.344E-03    0.810E-02
 Begin Solvation calculations
  rms_SCF =   6.930165140046468E-002 tol =   6.930165140046468E-003
 Begin minimization
 Creating dielectric and ionic cavities
  area:      161.612093746749     
  volume:    769.137668782340     
  Acav:     8.484634921704301E-002
  Solving linear dielectric/ionic screening model
        iter                  A_solv                     rms
   LPB:       -0.374912155293603E+00   0.545342497202203E-01
   LPB:    0  -0.374908848161622E+00   0.375324152597488E-01  -0.429882E-03   0.000000E+00   0.357917E+02  -0.153862E-01
   LPB:    1  -0.374896133476160E+00   0.640613800001939E-02   0.124696E-01   0.000000E+00   0.819674E+02  -0.665688E-18
   LPB:    2  -0.374895171437854E+00   0.392188639922158E-02   0.137002E-01   0.688672E-01   0.365090E+03   0.728182E-16
   LPB:    3  -0.374894713827430E+00   0.352491906705060E-02   0.244121E-01   0.266948E+00   0.142201E+03   0.836703E-16
   LPB:    4  -0.374894278050953E+00   0.282281449691218E-02   0.349141E-01   0.665844E+00   0.919215E+02   0.888359E-16
  Finished solving LPB equations
  A_corr:   -0.290047928833910     
 End minimization
 Ecorr=   2917.96343723598     
 A_corr= -0.290047928833910     
 Ecorr_band=  -2918.25348516482     
 End Solvation calculations
RMM:  47    -0.244874509567E+03    0.31553E-04   -0.47870E-06  2161   0.229E-03    0.348E-02
 Begin Solvation calculations
  rms_SCF =   5.348604725070995E-002 tol =   5.348604725070995E-003
 Begin minimization
 Creating dielectric and ionic cavities
  area:      161.615846468873     
  volume:    769.127477107874     
  Acav:     8.484831939615847E-002
  Solving linear dielectric/ionic screening model
        iter                  A_solv                     rms
   LPB:       -0.375031547353995E+00   0.379572158065847E-01
   LPB:    0  -0.375030043554495E+00   0.259802409617918E-01  -0.289878E-03   0.000000E+00   0.357922E+02  -0.103754E-01
   LPB:    1  -0.375023106958703E+00   0.326383962524284E-02   0.128802E-01   0.000000E+00   0.828826E+02   0.443915E-18
   LPB:    2  -0.375022767757193E+00   0.203639157627583E-02   0.161112E-01   0.390937E-01   0.257985E+03  -0.230464E-16
   LPB:    3  -0.375022520718090E+00   0.233515455256738E-02   0.365671E-01   0.320881E+00   0.804558E+02  -0.317489E-16
   LPB:    4  -0.375022125891027E+00   0.266269048941949E-02   0.451197E-01   0.129529E+01   0.636872E+02  -0.478623E-16
  Finished solving LPB equations
  A_corr:   -0.290173806494868     
 End minimization
 Ecorr=   2917.72787062804     
 A_corr= -0.290173806494868     
 Ecorr_band=  -2918.01804443454     
 End Solvation calculations
RMM:  48    -0.244874514752E+03   -0.51847E-05   -0.34610E-06  2101   0.194E-03
 Begin Solvation calculations
  rms_SCF =   5.348604725070995E-002 tol =   5.348604725070995E-003
 Begin minimization
 Creating dielectric and ionic cavities
  area:      161.617363602866     
  volume:    769.122978156706     
  Acav:     8.484911589150443E-002
  Solving linear dielectric/ionic screening model
        iter                  A_solv                     rms
   LPB:       -0.375082550517095E+00   0.198555752711389E-01
   LPB:    0  -0.375082185472583E+00   0.142136624070206E-01  -0.142821E-03   0.000000E+00   0.357924E+02  -0.511191E-02
   LPB:    1  -0.375080507409361E+00   0.200994709117375E-02   0.123800E-01   0.000000E+00   0.769326E+02   0.403186E-18
   LPB:    2  -0.375080412120925E+00   0.779360154467265E-03   0.140414E-01   0.500661E-01   0.316550E+03  -0.138351E-15
   LPB:    3  -0.375080313308303E+00   0.276800524635113E-02   0.539100E-01   0.270093E+00   0.187346E+03  -0.143084E-15
   LPB:    4  -0.375080060154052E+00   0.274091259207491E-02   0.462902E-01   0.298368E+01   0.445783E+02  -0.148463E-15
  Finished solving LPB equations
  A_corr:   -0.290230944262548     
 End minimization
 Ecorr=   2917.60687910528     
 A_corr= -0.290230944262548     
 Ecorr_band=  -2917.89711004954     
 End Solvation calculations
   1 F= -.24487451E+03 E0= -.24486575E+03  d E =-.244875E+03
quench:  g(F)=  0.000E+00 g(S)=  0.000E+00 dE (1.order)= 0.000E+00
 bond charge predicted
       N       E                     dE             d eps       ncg     rms          rms(c)
 Begin Solvation calculations
  rms_SCF =   5.348604725070995E-002 tol =   5.348604725070995E-003
 Begin minimization
 Creating dielectric and ionic cavities
  area:      161.695295317372     
  volume:    769.160927576224     
  Acav:     8.489003004162046E-002
  Solving linear dielectric/ionic screening model
        iter                  A_solv                     rms
   LPB:       -0.383701697974972E+00   0.851108108523450E-02
   LPB:    0  -0.383701697865577E+00   0.851850008994255E-02   0.247245E-05   0.000000E+00   0.357906E+02   0.884907E-04
   LPB:    1  -0.375572396259980E+00   0.344281428980597E-02   0.155358E-01   0.000000E+00   0.918584E+06  -0.212783E-20
   LPB:    2  -0.374872557565276E+00   0.508036055881801E-02   0.260862E-01   0.512704E-01   0.172046E+06   0.233152E-17
   LPB:    3  -0.374679336614432E+00   0.122147218805921E-01   0.311606E-01   0.231132E+00   0.186854E+05   0.572127E-17
   LPB:    4  -0.374605698746343E+00   0.301953041415361E-01   0.325040E-01   0.365356E+00   0.123188E+04   0.807451E-17
   LPB:    5  -0.374577745999759E+00   0.342452599474529E-01   0.213731E-01   0.577290E+00   0.210793E+03   0.909936E-17
   LPB:    6  -0.374555825399657E+00   0.908007480541984E-02   0.220492E-01   0.760155E+00   0.352810E+03   0.586746E-17
   LPB:    7  -0.374540662526475E+00   0.214709545748451E-02   0.359180E-01   0.424629E+00   0.401332E+04   0.355454E-17
  Finished solving LPB equations
  A_corr:   -0.289650632484854     
 End minimization
 Ecorr=   2917.58557909317     
 A_corr= -0.289650632484854     
 Ecorr_band=  -2917.87522972566     
 End Solvation calculations
DAV:   1    -0.244877516990E+03   -0.30074E-02   -0.47390E-01  5502   0.119E+00    0.241E-01
 Begin Solvation calculations
  rms_SCF =   5.348604725070995E-002 tol =   5.348604725070995E-003
 Begin minimization
 Creating dielectric and ionic cavities
  area:      161.649035079389     
  volume:    769.015385769342     
  Acav:     8.486574341667941E-002
  Solving linear dielectric/ionic screening model
        iter                  A_solv                     rms
   LPB:       -0.378249755113244E+00   0.481229019728379E+00
   LPB:    0  -0.378097349288842E+00   0.423848009491391E+00  -0.291803E-02   0.000000E+00   0.357975E+02  -0.104458E+00
   LPB:    1  -0.377093189589012E+00   0.866544409857391E-01   0.107538E-01   0.000000E+00   0.928765E+02  -0.323977E-17
   LPB:    2  -0.376954338124161E+00   0.150126343218079E-01   0.136387E-01   0.109028E+00   0.335457E+03  -0.927257E-16
   LPB:    3  -0.376919035823853E+00   0.142023317311313E-01   0.258955E-01   0.133906E+00   0.738263E+03   0.372044E-16
   LPB:    4  -0.376907245216602E+00   0.133688553610900E-01   0.238039E-01   0.363337E+00   0.176390E+03   0.958853E-16
   LPB:    5  -0.376900075152065E+00   0.729958150218179E-02   0.252853E-01   0.572490E+00   0.316716E+03   0.177516E-15
   LPB:    6  -0.376895251122448E+00   0.367605559107448E-02   0.333055E-01   0.510785E+00   0.291174E+03   0.270372E-15
  Finished solving LPB equations
  A_corr:   -0.292029507705769     
 End minimization
 Ecorr=   2917.43072310274     
 A_corr= -0.292029507705769     
 Ecorr_band=  -2917.72275261045     
 End Solvation calculations
RMM:   2    -0.244880706900E+03   -0.31899E-02   -0.30535E-02  5275   0.254E-01    0.377E-01
 Begin Solvation calculations
  rms_SCF =   5.348604725070995E-002 tol =   5.348604725070995E-003
 Begin minimization
 Creating dielectric and ionic cavities
  area:      161.645270201747     
  volume:    769.021744025539     
  Acav:     8.486376685591712E-002
  Solving linear dielectric/ionic screening model
        iter                  A_solv                     rms
   LPB:       -0.378423454653958E+00   0.522253318742214E+00
   LPB:    0  -0.378421461705183E+00   0.521490998207149E+00  -0.333687E-03   0.000000E+00   0.357972E+02  -0.119450E-01
   LPB:    1  -0.377571908412125E+00   0.520103720180873E-01   0.885563E-02   0.000000E+00   0.796027E+02   0.638788E-18
   LPB:    2  -0.377493648182362E+00   0.795529905834593E-02   0.165672E-01   0.492402E-01   0.137837E+03  -0.873895E-16
   LPB:    3  -0.377484285125076E+00   0.410489440571407E-02   0.237176E-01   0.835710E-01   0.280660E+03  -0.131738E-15
   LPB:    4  -0.377480827554743E+00   0.266209211833166E-02   0.301381E-01   0.290608E+00   0.364124E+03  -0.145395E-15
  Finished solving LPB equations
  A_corr:   -0.292617060698826     
 End minimization
 Ecorr=   2917.28402042776     
 A_corr= -0.292617060698826     
 Ecorr_band=  -2917.57663748846     
 End Solvation calculations
RMM:   3    -0.244881690882E+03   -0.98398E-03   -0.15988E-03  5479   0.595E-02    0.566E-01
 Begin Solvation calculations
  rms_SCF =   5.348604725070995E-002 tol =   5.348604725070995E-003
 Begin minimization
 Creating dielectric and ionic cavities
  area:      161.659597892365     
  volume:    769.060503820711     
  Acav:     8.487128889349155E-002
  Solving linear dielectric/ionic screening model
        iter                  A_solv                     rms
   LPB:       -0.378304838749387E+00   0.449150812124022E+00
   LPB:    0  -0.378304531335876E+00   0.449083314373032E+00   0.131058E-03   0.000000E+00   0.357953E+02   0.469126E-02
   LPB:    1  -0.377654820301619E+00   0.412715949238894E-01   0.894214E-02   0.000000E+00   0.805714E+02  -0.871140E-19
   LPB:    2  -0.377601582886285E+00   0.641946844003124E-02   0.151467E-01   0.483749E-01   0.184937E+03  -0.352420E-16
   LPB:    3  -0.377594891303475E+00   0.238304700164091E-02   0.226895E-01   0.839085E-01   0.373418E+03  -0.567263E-16
   LPB:    4  -0.377592987207585E+00   0.166850058117833E-02   0.292679E-01   0.220593E+00   0.739685E+03  -0.530418E-16
  Finished solving LPB equations
  A_corr:   -0.292721698314094     
 End minimization
 Ecorr=   2917.13737710150     
 A_corr= -0.292721698314094     
 Ecorr_band=  -2917.43009879982     
 End Solvation calculations
RMM:   4    -0.244879535691E+03    0.21552E-02   -0.12118E-03  5394   0.509E-02    0.252E-01
 Begin Solvation calculations
  rms_SCF =   5.348604725070995E-002 tol =   5.348604725070995E-003
 Begin minimization
 Creating dielectric and ionic cavities
  area:      161.659853935388     
  volume:    769.028123388116     
  Acav:     8.487142331607851E-002
  Solving linear dielectric/ionic screening model
        iter                  A_solv                     rms
   LPB:       -0.378827166813441E+00   0.130231453810874E+00
   LPB:    0  -0.378791961057920E+00   0.670981465109704E-01  -0.140249E-02   0.000000E+00   0.357969E+02  -0.502047E-01
   LPB:    1  -0.378731957559612E+00   0.210274622956064E-01   0.139391E-01   0.000000E+00   0.925595E+02   0.148885E-17
   LPB:    2  -0.378724523484044E+00   0.649507552030175E-02   0.154299E-01   0.111924E+00   0.198845E+03  -0.560807E-16
   LPB:    3  -0.378721882757655E+00   0.513881555905110E-02   0.239026E-01   0.229306E+00   0.308920E+03   0.505539E-16
   LPB:    4  -0.378720617591069E+00   0.724896092836487E-02   0.233100E-01   0.491279E+00   0.148995E+03   0.733619E-16
   LPB:    5  -0.378719434094705E+00   0.376632176694607E-02   0.260220E-01   0.837953E+00   0.181064E+03   0.817939E-16
  Finished solving LPB equations
  A_corr:   -0.293848010778627     
 End minimization
 Ecorr=   2917.03631796356     
 A_corr= -0.293848010778627     
 Ecorr_band=  -2917.33016597434     
 End Solvation calculations
RMM:   5    -0.244879313068E+03    0.22262E-03   -0.79797E-04  5339   0.436E-02    0.205E-01
 Begin Solvation calculations
  rms_SCF =   5.348604725070995E-002 tol =   5.348604725070995E-003
 Begin minimization
 Creating dielectric and ionic cavities
  area:      161.644337895125     
  volume:    769.034651044026     
  Acav:     8.486327739494057E-002
  Solving linear dielectric/ionic screening model
        iter                  A_solv                     rms
   LPB:       -0.381291619365434E+00   0.199123251194120E+00
   LPB:    0  -0.381240883227968E+00   0.139998897763779E+00  -0.168365E-02   0.000000E+00   0.357966E+02  -0.602691E-01
   LPB:    1  -0.380913243920741E+00   0.627805844631228E-01   0.141128E-01   0.000000E+00   0.138302E+03  -0.202570E-17
   LPB:    2  -0.380880160768348E+00   0.157890917672024E-01   0.127668E-01   0.111620E+00   0.136389E+03   0.127518E-14
   LPB:    3  -0.380868236299139E+00   0.733999157029533E-02   0.213379E-01   0.215656E+00   0.416916E+03   0.140000E-14
   LPB:    4  -0.380863680539460E+00   0.780567701436358E-02   0.261844E-01   0.311337E+00   0.160217E+03   0.145065E-14
   LPB:    5  -0.380861180036723E+00   0.597122850547914E-02   0.239908E-01   0.599053E+00   0.312807E+03   0.150163E-14
   LPB:    6  -0.380859381184149E+00   0.255152469391312E-02   0.312446E-01   0.552378E+00   0.123598E+03   0.154402E-14
  Finished solving LPB equations
  A_corr:   -0.295996103789208     
 End minimization
 Ecorr=   2916.39440383023     
 A_corr= -0.295996103789208     
 Ecorr_band=  -2916.69039993402     
 End Solvation calculations
RMM:   6    -0.244879089167E+03    0.22390E-03   -0.40740E-04  5144   0.329E-02    0.159E-01
 Begin Solvation calculations
  rms_SCF =   5.348604725070995E-002 tol =   5.348604725070995E-003
 Begin minimization
 Creating dielectric and ionic cavities
  area:      161.644976490399     
  volume:    769.049645120879     
  Acav:     8.486361265745956E-002
  Solving linear dielectric/ionic screening model
        iter                  A_solv                     rms
   LPB:       -0.381743059101997E+00   0.681549930112993E-01
   LPB:    0  -0.381736408476780E+00   0.438406146344307E-01  -0.609579E-03   0.000000E+00   0.357959E+02  -0.218204E-01
   LPB:    1  -0.381685264833061E+00   0.185983718050790E-01   0.155123E-01   0.000000E+00   0.166884E+03  -0.105914E-17
   LPB:    2  -0.381680764553222E+00   0.932087867703926E-02   0.158767E-01   0.859733E-01   0.115917E+03   0.127775E-15
   LPB:    3  -0.381679112756152E+00   0.320368226748414E-02   0.179106E-01   0.325363E+00   0.244264E+03   0.139948E-15
   LPB:    4  -0.381677955027480E+00   0.356006152642277E-02   0.325609E-01   0.385535E+00   0.164901E+03   0.136447E-15
  Finished solving LPB equations
  A_corr:   -0.296814342370021     
 End minimization
 Ecorr=   2916.09870460181     
 A_corr= -0.296814342370021     
 Ecorr_band=  -2916.39551894418     
 End Solvation calculations
RMM:   7    -0.244878924470E+03    0.16470E-03   -0.26059E-04  4884   0.263E-02    0.975E-02
 Begin Solvation calculations
  rms_SCF =   5.348604725070995E-002 tol =   5.348604725070995E-003
 Begin minimization
 Creating dielectric and ionic cavities
  area:      161.655011156579     
  volume:    769.063760485953     
  Acav:     8.486888085720391E-002
  Solving linear dielectric/ionic screening model
        iter                  A_solv                     rms
   LPB:       -0.382880982911134E+00   0.106329071099320E+00
   LPB:    0  -0.382863310206685E+00   0.660794310117398E-01  -0.993697E-03   0.000000E+00   0.357952E+02  -0.355696E-01
   LPB:    1  -0.382792943701539E+00   0.297769090348806E-01   0.140347E-01   0.000000E+00   0.121043E+03  -0.257684E-17
   LPB:    2  -0.382786151123287E+00   0.717430260290811E-02   0.127640E-01   0.106141E+00   0.112239E+03   0.992577E-16
   LPB:    3  -0.382783539710019E+00   0.463021115220201E-02   0.228925E-01   0.214354E+00   0.285256E+03   0.109797E-15
   LPB:    4  -0.382782064721037E+00   0.510257202793872E-02   0.285668E-01   0.452633E+00   0.891065E+02   0.127018E-15
  Finished solving LPB equations
  A_corr:   -0.297913183863834     
 End minimization
 Ecorr=   2915.74897141298     
 A_corr= -0.297913183863834     
 Ecorr_band=  -2916.04688459685     
 End Solvation calculations
RMM:   8    -0.244878932169E+03   -0.76991E-05   -0.13488E-04  4624   0.189E-02    0.101E-01
 Begin Solvation calculations
  rms_SCF =   5.348604725070995E-002 tol =   5.348604725070995E-003
 Begin minimization
 Creating dielectric and ionic cavities
  area:      161.666040290739     
  volume:    769.085169432558     
  Acav:     8.487467115263801E-002
  Solving linear dielectric/ionic screening model
        iter                  A_solv                     rms
   LPB:       -0.383608276476023E+00   0.627063183510747E-01
   LPB:    0  -0.383602827659529E+00   0.409614132886327E-01  -0.551772E-03   0.000000E+00   0.357942E+02  -0.197502E-01
   LPB:    1  -0.383571826885498E+00   0.196889043993202E-01   0.142938E-01   0.000000E+00   0.135279E+03  -0.650899E-19
   LPB:    2  -0.383568975989656E+00   0.558255889357556E-02   0.130286E-01   0.100893E+00   0.952106E+02  -0.478192E-16
   LPB:    3  -0.383567444993553E+00   0.304196390560274E-02   0.258821E-01   0.270328E+00   0.200808E+03  -0.496554E-16
   LPB:    4  -0.383566171139337E+00   0.378176285845304E-02   0.363749E-01   0.592031E+00   0.807253E+02  -0.454234E-16
  Finished solving LPB equations
  A_corr:   -0.298691499986699     
 End minimization
 Ecorr=   2915.39357694503     
 A_corr= -0.298691499986699     
 Ecorr_band=  -2915.69226844501     
 End Solvation calculations
RMM:   9    -0.244878858557E+03    0.73612E-04   -0.64741E-05  4526   0.134E-02    0.399E-02
 Begin Solvation calculations
  rms_SCF =   3.500387460503257E-002 tol =   3.500387460503257E-003
 Begin minimization
 Creating dielectric and ionic cavities
  area:      161.674204286150     
  volume:    769.096694872056     
  Acav:     8.487895725022897E-002
  Solving linear dielectric/ionic screening model
        iter                  A_solv                     rms
   LPB:       -0.383951024386994E+00   0.299266735387660E-01
   LPB:    0  -0.383949830297656E+00   0.203074321537160E-01  -0.258304E-03   0.000000E+00   0.357937E+02  -0.924563E-02
   LPB:    1  -0.383943188547047E+00   0.105866216090858E-01   0.134864E-01   0.000000E+00   0.137255E+03   0.478237E-18
   LPB:    2  -0.383942447567055E+00   0.224797297328324E-02   0.125645E-01   0.119750E+00   0.907455E+02  -0.515343E-16
   LPB:    3  -0.383941860603663E+00   0.213345826660322E-02   0.405682E-01   0.245337E+00   0.130683E+03  -0.580843E-16
   LPB:    4  -0.383940939158722E+00   0.309599210553321E-02   0.489391E-01   0.130133E+01   0.472305E+02  -0.696743E-16
  Finished solving LPB equations
  A_corr:   -0.299061981908493     
 End minimization
 Ecorr=   2915.11562714507     
 A_corr= -0.299061981908493     
 Ecorr_band=  -2915.41468912698     
 End Solvation calculations
RMM:  10    -0.244878862731E+03   -0.41735E-05   -0.14213E-05  3025   0.641E-03
 Begin Solvation calculations
  rms_SCF =   3.500387460503257E-002 tol =   3.500387460503257E-003
 Begin minimization
[...]
   LPB:    1  -0.412451567538205E+00   0.479513168964579E-02   0.891585E-02   0.000000E+00   0.788883E+02   0.271854E-20
   LPB:    2  -0.412450900947275E+00   0.791051804440012E-03   0.159202E-01   0.499718E-01   0.150389E+03   0.390842E-17
   LPB:    3  -0.412450822408284E+00   0.364496754304872E-03   0.224583E-01   0.835213E-01   0.274381E+03   0.494972E-17
   LPB:    4  -0.412450798892326E+00   0.240183040516369E-03   0.273920E-01   0.245488E+00   0.413934E+03  -0.745975E-18
  Finished solving LPB equations
  A_corr:   -0.327320990396604     
 End minimization
 Ecorr=   2905.13608766315     
 A_corr= -0.327320990396604     
 Ecorr_band=  -2905.46340865355     
 End Solvation calculations
RMM:   4    -0.244881704996E+03    0.26614E-04   -0.22964E-05  3470   0.802E-03    0.374E-02
 Begin Solvation calculations
  rms_SCF =   3.092161767028768E-003 tol =   3.092161767028768E-004
 Begin minimization
 Creating dielectric and ionic cavities
  area:      162.152600787530     
  volume:    769.443171731895     
  Acav:     8.513011541345331E-002
  Solving linear dielectric/ionic screening model
        iter                  A_solv                     rms
   LPB:       -0.412398493882700E+00   0.374286724726082E-02
   LPB:    0  -0.412398493070673E+00   0.371518240152715E-02   0.673745E-05   0.000000E+00   0.357774E+02   0.241049E-03
   LPB:    1  -0.412398221959015E+00   0.232669522106492E-02   0.137108E-01   0.000000E+00   0.208973E+03   0.117624E-19
   LPB:    2  -0.412398158881855E+00   0.591444001310603E-03   0.142656E-01   0.223612E+00   0.192006E+03   0.138221E-17
   LPB:    3  -0.412398138471253E+00   0.356425722197950E-03   0.246298E-01   0.187418E+00   0.347227E+03   0.128506E-17
   LPB:    4  -0.412398130065771E+00   0.350079642646338E-03   0.295906E-01   0.342780E+00   0.209764E+03   0.115633E-17
   LPB:    5  -0.412398125479003E+00   0.265892014438376E-03   0.264235E-01   0.611093E+00   0.136110E+03   0.273846E-17
  Finished solving LPB equations
  A_corr:   -0.327268010065549     
 End minimization
 Ecorr=   2905.14593115166     
 A_corr= -0.327268010065549     
 Ecorr_band=  -2905.47319916172     
 End Solvation calculations
RMM:   5    -0.244881697851E+03    0.71456E-05   -0.12303E-05  2894   0.637E-03
 Begin Solvation calculations
  rms_SCF =   3.092161767028768E-003 tol =   3.092161767028768E-004
 Begin minimization
 Creating dielectric and ionic cavities
  area:      162.152923306544     
  volume:    769.446355288756     
  Acav:     8.513028473593562E-002
  Solving linear dielectric/ionic screening model
        iter                  A_solv                     rms
   LPB:       -0.412378175863545E+00   0.820743629228798E-02
   LPB:    0  -0.412378102363332E+00   0.697048571256239E-02   0.640997E-04   0.000000E+00   0.357773E+02   0.229331E-02
   LPB:    1  -0.412377777468725E+00   0.182839399463156E-02   0.117946E-01   0.000000E+00   0.938789E+02   0.848514E-19
   LPB:    2  -0.412377721331185E+00   0.391776198679776E-03   0.140132E-01   0.145431E+00   0.378597E+03  -0.781562E-17
   LPB:    3  -0.412377703658485E+00   0.277992534006806E-03   0.251557E-01   0.175368E+00   0.534728E+03  -0.922385E-17
   LPB:    4  -0.412377696427940E+00   0.331129156472057E-03   0.286623E-01   0.359082E+00   0.229545E+03  -0.104417E-16
   LPB:    5  -0.412377691681080E+00   0.224547968295636E-03   0.259427E-01   0.725322E+00   0.246509E+03  -0.124623E-16
  Finished solving LPB equations
  A_corr:   -0.327247406945145     
 End minimization
 Ecorr=   2905.12922648028     
 A_corr= -0.327247406945145     
 Ecorr_band=  -2905.45647388723     
 End Solvation calculations
  32 F= -.24488170E+03 E0= -.24487281E+03  d E =0.878057E-04
quench:  g(F)=  0.000E+00 g(S)=  0.000E+00 dE (1.order)= 0.000E+00
 bond charge predicted
       N       E                     dE             d eps       ncg     rms          rms(c)
 Begin Solvation calculations
  rms_SCF =   3.092161767028768E-003 tol =   3.092161767028768E-004
 Begin minimization
 Creating dielectric and ionic cavities
  area:      162.159056462423     
  volume:    769.451778367460     
  Acav:     8.513350464277185E-002
  Solving linear dielectric/ionic screening model
        iter                  A_solv                     rms
   LPB:       -0.412398551968673E+00   0.693847805770787E-03
   LPB:    0  -0.412398551964502E+00   0.693539635636234E-03   0.482849E-06   0.000000E+00   0.357770E+02   0.172749E-04
   LPB:    1  -0.412352836086613E+00   0.248157848303732E-03   0.156374E-01   0.000000E+00   0.772321E+06  -0.104155E-20
   LPB:    2  -0.412348281246680E+00   0.119559875557582E-03   0.264355E-01   0.589364E-01   0.187986E+06  -0.811803E-19
   LPB:    3  -0.412346918820371E+00   0.123147081097311E-03   0.321141E-01   0.246225E+00   0.112597E+06  -0.871703E-18
   LPB:    4  -0.412346356558401E+00   0.195420692261618E-03   0.352405E-01   0.376080E+00   0.445855E+05  -0.122169E-17
  Finished solving LPB equations
  A_corr:   -0.327212851915629     
 End minimization
 Ecorr=   2905.13130583608     
 A_corr= -0.327212851915629     
 Ecorr_band=  -2905.45851868799     
 End Solvation calculations
DAV:   1    -0.244881649797E+03    0.55199E-04   -0.26577E-03  5358   0.898E-02    0.230E-02
 Begin Solvation calculations
  rms_SCF =   3.092161767028768E-003 tol =   3.092161767028768E-004
 Begin minimization
 Creating dielectric and ionic cavities
  area:      162.160247351200     
  volume:    769.442623485430     
  Acav:     8.513412985937978E-002
  Solving linear dielectric/ionic screening model
        iter                  A_solv                     rms
   LPB:       -0.412371575329950E+00   0.906459404258410E-02
   LPB:    0  -0.412371357061332E+00   0.446692379116846E-02  -0.110460E-03   0.000000E+00   0.357774E+02  -0.395198E-02
   LPB:    1  -0.412370696372774E+00   0.339317353954589E-02   0.171532E-01   0.000000E+00   0.172551E+03   0.154727E-18
   LPB:    2  -0.412370455603859E+00   0.147363739301387E-02   0.197312E-01   0.316808E+00   0.178020E+03   0.683385E-17
   LPB:    3  -0.412370328396042E+00   0.172054311159559E-02   0.277990E-01   0.375005E+00   0.362274E+03  -0.136106E-16
   LPB:    4  -0.412370234637037E+00   0.160795229842819E-02   0.251983E-01   0.813123E+00   0.213632E+03  -0.217026E-16
   LPB:    5  -0.412370155493847E+00   0.768627439800614E-03   0.262721E-01   0.809615E+00   0.331112E+03  -0.267842E-16
   LPB:    6  -0.412370095128530E+00   0.274627430639055E-03   0.320890E-01   0.624471E+00   0.918508E+03  -0.282709E-16
  Finished solving LPB equations
  A_corr:   -0.327235965269150     
 End minimization
 Ecorr=   2905.16430659379     
 A_corr= -0.327235965269150     
 Ecorr_band=  -2905.49154255905     
 End Solvation calculations
RMM:   2    -0.244881750931E+03   -0.10113E-03   -0.18048E-04  4647   0.223E-02    0.110E-01
 Begin Solvation calculations
  rms_SCF =   3.092161767028768E-003 tol =   3.092161767028768E-004
 Begin minimization
 Creating dielectric and ionic cavities
  area:      162.159597478540     
  volume:    769.446263572335     
  Acav:     8.513378867623349E-002
  Solving linear dielectric/ionic screening model
        iter                  A_solv                     rms
   LPB:       -0.412382768691365E+00   0.471709010486946E-02
   LPB:    0  -0.412382714879969E+00   0.279473952301202E-02   0.548465E-04   0.000000E+00   0.357773E+02   0.196226E-02
   LPB:    1  -0.412382390245721E+00   0.293517198693907E-02   0.193681E-01   0.000000E+00   0.189670E+03  -0.703727E-19
   LPB:    2  -0.412382276370339E+00   0.958584964381864E-03   0.164756E-01   0.412365E+00   0.146029E+03  -0.882940E-17
   LPB:    3  -0.412382227010785E+00   0.102240505528498E-02   0.258717E-01   0.276031E+00   0.348301E+03  -0.127284E-16
   LPB:    4  -0.412382204394145E+00   0.548934233776070E-03   0.192066E-01   0.617208E+00   0.182021E+03  -0.150584E-16
   LPB:    5  -0.412382189179437E+00   0.296586516417012E-03   0.304742E-01   0.423988E+00   0.348000E+03  -0.162718E-16
  Finished solving LPB equations
  A_corr:   -0.327248400503203     
 End minimization
 Ecorr=   2905.14075892194     
 A_corr= -0.327248400503203     
 Ecorr_band=  -2905.46800732244     
 End Solvation calculations
RMM:   3    -0.244881657340E+03    0.93591E-04   -0.51080E-05  4180   0.119E-02    0.165E-02
 Begin Solvation calculations
  rms_SCF =   3.092161767028768E-003 tol =   3.092161767028768E-004
 Begin minimization
 Creating dielectric and ionic cavities
  area:      162.158780857548     
  volume:    769.446468105021     
  Acav:     8.513335995021251E-002
  Solving linear dielectric/ionic screening model
        iter                  A_solv                     rms
   LPB:       -0.412409737521931E+00   0.776682940599513E-02
   LPB:    0  -0.412409736914289E+00   0.774359024304027E-02  -0.582821E-05   0.000000E+00   0.357773E+02  -0.208517E-03
   LPB:    1  -0.412409513254754E+00   0.108332861562232E-02   0.979439E-02   0.000000E+00   0.775464E+02  -0.113129E-19
   LPB:    2  -0.412409470555492E+00   0.206292039539852E-03   0.174678E-01   0.107047E+00   0.190275E+03  -0.516146E-17
   LPB:    3  -0.412409459796527E+00   0.177075197978298E-03   0.304311E-01   0.144634E+00   0.468016E+03  -0.653837E-17
   LPB:    4  -0.412409453168565E+00   0.171307963117207E-03   0.346838E-01   0.540507E+00   0.561825E+03  -0.734894E-17
  Finished solving LPB equations
  A_corr:   -0.327276093218352     
 End minimization
 Ecorr=   2905.13336065821     
 A_corr= -0.327276093218352     
 Ecorr_band=  -2905.46063675143     
 End Solvation calculations
RMM:   4    -0.244881657650E+03   -0.30997E-06   -0.65866E-06  2835   0.455E-03
 Begin Solvation calculations
  rms_SCF =   3.092161767028768E-003 tol =   3.092161767028768E-004
 Begin minimization
 Creating dielectric and ionic cavities
  area:      162.159160178035     
  volume:    769.444929044392     
  Acav:     8.513355909346838E-002
  Solving linear dielectric/ionic screening model
        iter                  A_solv                     rms
   LPB:       -0.412420211400496E+00   0.222621779043593E-01
   LPB:    0  -0.412420199830229E+00   0.221732231423492E-01  -0.254321E-04   0.000000E+00   0.357773E+02  -0.909894E-03
   LPB:    1  -0.412418627969365E+00   0.197680443814107E-02   0.883972E-02   0.000000E+00   0.817540E+02   0.290106E-19
   LPB:    2  -0.412418504911650E+00   0.395484064413655E-03   0.156735E-01   0.441536E-01   0.172632E+03  -0.348093E-17
   LPB:    3  -0.412418487041676E+00   0.258821213151966E-03   0.238113E-01   0.955870E-01   0.245998E+03  -0.269699E-17
   LPB:    4  -0.412418480935087E+00   0.241342358031997E-03   0.276694E-01   0.294076E+00   0.261229E+03  -0.299207E-17
  Finished solving LPB equations
  A_corr:   -0.327284921841618     
 End minimization
 Ecorr=   2905.13591321360     
 A_corr= -0.327284921841618     
 Ecorr_band=  -2905.46319813544     
 End Solvation calculations
  33 F= -.24488166E+03 E0= -.24487277E+03  d E =0.402009E-04
quench:  g(F)=  0.000E+00 g(S)=  0.000E+00 dE (1.order)= 0.000E+00
 bond charge predicted
       N       E                     dE             d eps       ncg     rms          rms(c)
 Begin Solvation calculations
  rms_SCF =   3.092161767028768E-003 tol =   3.092161767028768E-004
 Begin minimization
 Creating dielectric and ionic cavities
  area:      162.163589139317     
  volume:    769.450425844427     
  Acav:     8.513588429814158E-002
  Solving linear dielectric/ionic screening model
        iter                  A_solv                     rms
   LPB:       -0.412461002281460E+00   0.778222575584012E-03
   LPB:    0  -0.412461002277020E+00   0.777916215861001E-03   0.498196E-06   0.000000E+00   0.357771E+02   0.178240E-04
   LPB:    1  -0.412405663960541E+00   0.273286365157393E-03   0.153744E-01   0.000000E+00   0.769654E+06  -0.113249E-20
   LPB:    2  -0.412400710988134E+00   0.181876587887756E-03   0.260238E-01   0.528769E-01   0.178291E+06   0.467667E-18
   LPB:    3  -0.412399219210599E+00   0.273092206136634E-03   0.324470E-01   0.241565E+00   0.629161E+05   0.295743E-18
   LPB:    4  -0.412398557258658E+00   0.705747435833158E-03   0.363501E-01   0.396088E+00   0.135899E+05  -0.613715E-18
   LPB:    5  -0.412398221873492E+00   0.182781250234673E-02   0.361136E-01   0.509979E+00   0.121638E+04  -0.472806E-17
   LPB:    6  -0.412398065879586E+00   0.252130281641820E-02   0.248991E-01   0.674608E+00   0.221352E+03  -0.710014E-17
   LPB:    7  -0.412397944193203E+00   0.108146024765543E-02   0.220818E-01   0.879596E+00   0.291354E+03  -0.158508E-16
   LPB:    8  -0.412397854130418E+00   0.114497631408817E-02   0.321357E-01   0.508569E+00   0.492278E+03  -0.209740E-16
   LPB:    9  -0.412397802112328E+00   0.100924563027370E-02   0.253678E-01   0.731669E+00   0.194038E+03  -0.243052E-16
   LPB:   10  -0.412397759392600E+00   0.359507760555899E-03   0.285752E-01   0.729065E+00   0.358425E+03  -0.335479E-16
   LPB:   11  -0.412397728720788E+00   0.152392517601758E-03   0.380556E-01   0.539117E+00   0.179158E+04  -0.489982E-16
  Finished solving LPB equations
  A_corr:   -0.327261844422646     
 End minimization
 Ecorr=   2905.13728096951     
 A_corr= -0.327261844422646     
 Ecorr_band=  -2905.46454281394     
 End Solvation calculations
DAV:   1    -0.244881537577E+03    0.11976E-03   -0.40524E-03  5454   0.135E-01    0.330E-02
 Begin Solvation calculations
  rms_SCF =   3.092161767028768E-003 tol =   3.092161767028768E-004
 Begin minimization
 Creating dielectric and ionic cavities
  area:      162.158317444960     
  volume:    769.444144078718     
  Acav:     8.513311665860424E-002
  Solving linear dielectric/ionic screening model
        iter                  A_solv                     rms
   LPB:       -0.412887706425369E+00   0.224350408635747E+00
   LPB:    0  -0.412886791336289E+00   0.223528446782377E+00  -0.226174E-03   0.000000E+00   0.357774E+02  -0.809191E-02
   LPB:    1  -0.412730865183659E+00   0.222571314083141E-01   0.887562E-02   0.000000E+00   0.790673E+02  -0.430516E-18
   LPB:    2  -0.412716929282544E+00   0.325938809345578E-02   0.162134E-01   0.489261E-01   0.140068E+03   0.401658E-16
   LPB:    3  -0.412715398602463E+00   0.131103444527107E-02   0.221053E-01   0.805615E-01   0.326338E+03   0.430149E-16
   LPB:    4  -0.412714967173146E+00   0.798381080989640E-03   0.270602E-01   0.230245E+00   0.411822E+03   0.305245E-16
   LPB:    5  -0.412714807686730E+00   0.803750365958119E-03   0.288034E-01   0.347296E+00   0.344286E+03   0.248442E-16
   LPB:    6  -0.412714735555516E+00   0.879990482615448E-03   0.289813E-01   0.449496E+00   0.240418E+03   0.243081E-16
   LPB:    7  -0.412714700501086E+00   0.675795091363413E-03   0.258683E-01   0.544465E+00   0.155850E+03   0.106524E-16
   LPB:    8  -0.412714678126277E+00   0.302402467405149E-03   0.263929E-01   0.625601E+00   0.286906E+03  -0.195484E-17
  Finished solving LPB equations
  A_corr:   -0.327581561467673     
 End minimization
 Ecorr=   2905.09734389753     
 A_corr= -0.327581561467673     
 Ecorr_band=  -2905.42492545899     
 End Solvation calculations
RMM:   2    -0.244882500514E+03   -0.96294E-03   -0.36394E-04  5120   0.331E-02    0.348E-01
 Begin Solvation calculations
  rms_SCF =   3.092161767028768E-003 tol =   3.092161767028768E-004
 Begin minimization
 Creating dielectric and ionic cavities
  area:      162.165022029947     
  volume:    769.449081964348     
  Acav:     8.513663656572203E-002
  Solving linear dielectric/ionic screening model
        iter                  A_solv                     rms
   LPB:       -0.412646215020038E+00   0.220827009358972E+00
   LPB:    0  -0.412645693213856E+00   0.220347276893289E+00   0.170792E-03   0.000000E+00   0.357771E+02   0.611044E-02
   LPB:    1  -0.412494571863921E+00   0.216121041735477E-01   0.885214E-02   0.000000E+00   0.793374E+02  -0.422510E-18
   LPB:    2  -0.412481550370347E+00   0.320775281890203E-02   0.161264E-01   0.472982E-01   0.140930E+03  -0.127710E-16
   LPB:    3  -0.412480128141938E+00   0.126540402185329E-02   0.221056E-01   0.796792E-01   0.307008E+03  -0.956695E-17
   LPB:    4  -0.412479731278307E+00   0.610009571720731E-03   0.272741E-01   0.226164E+00   0.417619E+03  -0.151491E-16
   LPB:    5  -0.412479592048048E+00   0.452012718066767E-03   0.282599E-01   0.338588E+00   0.479379E+03  -0.171126E-16
   LPB:    6  -0.412479535016331E+00   0.379985881472039E-03   0.298227E-01   0.388157E+00   0.440349E+03  -0.170504E-16
   LPB:    7  -0.412479509991480E+00   0.431928877002317E-03   0.310503E-01   0.421440E+00   0.316186E+03  -0.139388E-16
   LPB:    8  -0.412479498368351E+00   0.412924080922482E-03   0.261070E-01   0.552410E+00   0.219815E+03  -0.174400E-16
   LPB:    9  -0.412479490885219E+00   0.208956076177891E-03   0.263445E-01   0.638010E+00   0.208625E+03  -0.172663E-16
  Finished solving LPB equations
  A_corr:   -0.327342854319497     
 End minimization
 Ecorr=   2905.13102138699     
 A_corr= -0.327342854319497     
 Ecorr_band=  -2905.45836424131     
 End Solvation calculations
RMM:   3    -0.244881552767E+03    0.94775E-03   -0.12559E-04  4604   0.182E-02    0.271E-02
 Begin Solvation calculations
  rms_SCF =   3.092161767028768E-003 tol =   3.092161767028768E-004
 Begin minimization
 Creating dielectric and ionic cavities
  area:      162.162739422602     
  volume:    769.447499535395     
  Acav:     8.513543819686600E-002
  Solving linear dielectric/ionic screening model
        iter                  A_solv                     rms
   LPB:       -0.412496461367854E+00   0.119240813310726E-01
   LPB:    0  -0.412496447675600E+00   0.117421739638926E-01  -0.276662E-04   0.000000E+00   0.357772E+02  -0.989819E-03
   LPB:    1  -0.412495949626598E+00   0.150196822236192E-02   0.960998E-02   0.000000E+00   0.778865E+02  -0.104593E-19
   LPB:    2  -0.412495860122346E+00   0.295483523228492E-03   0.176842E-01   0.976584E-01   0.190235E+03   0.158244E-17
   LPB:    3  -0.412495842280122E+00   0.139146408447549E-03   0.266468E-01   0.132295E+00   0.587911E+03   0.301212E-17
   LPB:    4  -0.412495834833857E+00   0.100377369384034E-03   0.302283E-01   0.367892E+00   0.851849E+03   0.336679E-17
  Finished solving LPB equations
  A_corr:   -0.327360396636991     
 End minimization
 Ecorr=   2905.12961337628     
 A_corr= -0.327360396636991     
 Ecorr_band=  -2905.45697377292     
 End Solvation calculations
RMM:   4    -0.244881549147E+03    0.36195E-05   -0.16684E-05  3203   0.749E-03
 Begin Solvation calculations
  rms_SCF =   3.092161767028768E-003 tol =   3.092161767028768E-004
 Begin minimization
 Creating dielectric and ionic cavities
  area:      162.161666415987     
  volume:    769.448712218318     
  Acav:     8.513487486839312E-002
  Solving linear dielectric/ionic screening model
        iter                  A_solv                     rms
   LPB:       -0.412553795947360E+00   0.215582419398331E-02
   LPB:    0  -0.412553795256561E+00   0.196328139432325E-02  -0.621424E-05   0.000000E+00   0.357771E+02  -0.222328E-03
   LPB:    1  -0.412553629784650E+00   0.132985720638390E-02   0.173973E-01   0.000000E+00   0.232521E+03   0.383814E-20
   LPB:    2  -0.412553607989557E+00   0.734697857753818E-03   0.153789E-01   0.149001E+00   0.115451E+03   0.783071E-17
   LPB:    3  -0.412553597529970E+00   0.166723096798664E-03   0.197315E-01   0.374044E+00   0.388454E+03   0.887896E-17
   LPB:    4  -0.412553592124951E+00   0.109349959046567E-03   0.303774E-01   0.335654E+00   0.589204E+03   0.922509E-17
  Finished solving LPB equations
  A_corr:   -0.327418717256558     
 End minimization
 Ecorr=   2905.10762605074     
 A_corr= -0.327418717256558     
 Ecorr_band=  -2905.43504476800     
 End Solvation calculations
  34 F= -.24488155E+03 E0= -.24487267E+03  d E =0.108503E-03
quench:  g(F)=  0.000E+00 g(S)=  0.000E+00 dE (1.order)= 0.000E+00
 reached required accuracy - stopping structural energy minimisation
