 vasp.5.4.4.18Apr17-6-g9f103f2a35 (build Feb 06 2024 13:54:16) complex          
  
 POSCAR found type information on POSCAR  Ni N  O 
 02/POSCAR found :  3 types and      40 ions
 scaLAPACK will be used

 ----------------------------------------------------------------------------- 
|                                                                             |
|  ADVICE TO THIS USER RUNNING 'VASP/VAMP'   (HEAR YOUR MASTER'S VOICE ...):  |
|                                                                             |
|      You enforced a specific xc-type in the INCAR file,                     |
|      a different type was found on the POTCAR file                          |
|          I HOPE YOU KNOW, WHAT YOU ARE  DOING                               |
|                                                                             |
 ----------------------------------------------------------------------------- 

 LDA part: xc-table for Pade appr. of Perdew
 POSCAR found type information on POSCAR  Ni N  O 
 00/POSCAR found :  3 types and      40 ions
 POSCAR found type information on POSCAR  Ni N  O 
 06/POSCAR found :  3 types and      40 ions
 Jacobian:    19.9387148800365     
 POSCAR, INCAR and KPOINTS ok, starting setup
 FFT: planning ...
 WAVECAR not read
 entering main loop
       N       E                     dE             d eps       ncg     rms          rms(c)
DAV:   1     0.244859584474E+04    0.24486E+04   -0.12443E+05  1992   0.109E+03
DAV:   2     0.804271186355E+02   -0.23682E+04   -0.22399E+04  1992   0.306E+02
DAV:   3    -0.193482206468E+03   -0.27391E+03   -0.23885E+03  2616   0.122E+02
DAV:   4    -0.217435987364E+03   -0.23954E+02   -0.21951E+02  2256   0.324E+01
DAV:   5    -0.218211923085E+03   -0.77594E+00   -0.74531E+00  2202   0.542E+00    0.571E+01
RMM:   6    -0.225603427279E+03   -0.73915E+01   -0.39800E+02  2001   0.683E+01    0.780E+01
RMM:   7    -0.285174978331E+03   -0.59572E+02   -0.10021E+02  1996   0.298E+01    0.121E+02
RMM:   8    -0.201453570182E+03    0.83721E+02   -0.32344E+01  2006   0.174E+01    0.630E+01
RMM:   9    -0.201096917967E+03    0.35665E+00   -0.43234E+01  2000   0.192E+01    0.614E+01
RMM:  10    -0.204854993423E+03   -0.37581E+01   -0.32099E+01  2009   0.171E+01    0.804E+01
RMM:  11    -0.186699426312E+03    0.18156E+02   -0.19756E+01  2004   0.137E+01    0.451E+01
RMM:  12    -0.184586125852E+03    0.21133E+01   -0.18888E+01  2012   0.133E+01    0.519E+01
RMM:  13    -0.186920697669E+03   -0.23346E+01   -0.11834E+01  2010   0.107E+01    0.604E+01
RMM:  14    -0.183719270920E+03    0.32014E+01   -0.53356E+00  2022   0.683E+00    0.600E+01
RMM:  15    -0.178913741976E+03    0.48055E+01   -0.35922E+00  2021   0.574E+00    0.425E+01
RMM:  16    -0.178057350828E+03    0.85639E+00   -0.27063E+00  2016   0.491E+00    0.372E+01
RMM:  17    -0.177546849534E+03    0.51050E+00   -0.27351E+00  2024   0.498E+00    0.291E+01
RMM:  18    -0.177574585756E+03   -0.27736E-01   -0.14963E+00  2020   0.359E+00    0.232E+01
RMM:  19    -0.177648962061E+03   -0.74376E-01   -0.94381E-01  2013   0.287E+00    0.185E+01
RMM:  20    -0.177759985043E+03   -0.11102E+00   -0.49396E-01  2015   0.208E+00    0.189E+01
RMM:  21    -0.177939017295E+03   -0.17903E+00   -0.43376E-01  2012   0.183E+00    0.128E+01
RMM:  22    -0.179099654479E+03   -0.11606E+01   -0.93886E-01  2006   0.269E+00    0.119E+01
RMM:  23    -0.180637683830E+03   -0.15380E+01   -0.89731E-01  2020   0.257E+00    0.160E+01
RMM:  24    -0.181858873500E+03   -0.12212E+01   -0.77262E-01  2016   0.250E+00    0.182E+01
RMM:  25    -0.181880501947E+03   -0.21628E-01   -0.24691E-01  2012   0.144E+00    0.160E+01
RMM:  26    -0.182246412980E+03   -0.36591E+00   -0.34846E-01  2006   0.158E+00    0.157E+01
RMM:  27    -0.182603199849E+03   -0.35679E+00   -0.44365E-01  2009   0.179E+00    0.107E+01
RMM:  28    -0.183282009633E+03   -0.67881E+00   -0.60230E-01  1999   0.176E+00    0.101E+01
RMM:  29    -0.183558912334E+03   -0.27690E+00   -0.32237E-01  2010   0.135E+00    0.709E+00
RMM:  30    -0.183624181640E+03   -0.65269E-01   -0.64361E-02  2014   0.701E-01    0.544E+00
RMM:  31    -0.183734334988E+03   -0.11015E+00   -0.30647E-02  2009   0.491E-01    0.532E+00
RMM:  32    -0.183753279927E+03   -0.18945E-01   -0.35521E-03  2005   0.170E-01    0.513E+00
RMM:  33    -0.183749465593E+03    0.38143E-02   -0.41721E-04  1436   0.543E-02    0.515E+00
RMM:  34    -0.183770305688E+03   -0.20840E-01   -0.17192E-03  1964   0.103E-01    0.517E+00
RMM:  35    -0.184021385637E+03   -0.25108E+00   -0.61020E-02  1999   0.583E-01    0.542E+00
RMM:  36    -0.184467538210E+03   -0.44615E+00   -0.16273E-01  2002   0.869E-01    0.446E+00
RMM:  37    -0.184716236715E+03   -0.24870E+00   -0.44896E-02  2007   0.497E-01    0.514E+00
RMM:  38    -0.184860614592E+03   -0.14438E+00   -0.18595E-02  2002   0.308E-01    0.530E+00
RMM:  39    -0.185136899283E+03   -0.27628E+00   -0.59903E-02  2001   0.585E-01    0.600E+00
RMM:  40    -0.185630236450E+03   -0.49334E+00   -0.24416E-01  1998   0.983E-01    0.405E+00
RMM:  41    -0.185945417491E+03   -0.31518E+00   -0.12166E-01  2012   0.824E-01    0.486E+00
RMM:  42    -0.186099511418E+03   -0.15409E+00   -0.55383E-02  2004   0.578E-01    0.372E+00
RMM:  43    -0.186130349965E+03   -0.30839E-01   -0.71596E-03  2005   0.243E-01    0.366E+00
RMM:  44    -0.186183538532E+03   -0.53189E-01   -0.99019E-03  2008   0.263E-01    0.331E+00
RMM:  45    -0.186222281325E+03   -0.38743E-01   -0.57672E-03  1989   0.206E-01    0.318E+00
RMM:  46    -0.186326889786E+03   -0.10461E+00   -0.22052E-02  2003   0.375E-01    0.245E+00
RMM:  47    -0.186394709181E+03   -0.67819E-01   -0.14362E-02  2001   0.301E-01    0.241E+00
RMM:  48    -0.186537427730E+03   -0.14272E+00   -0.56195E-02  2001   0.522E-01    0.228E+00
RMM:  49    -0.186580221562E+03   -0.42794E-01   -0.97556E-03  2007   0.240E-01    0.240E+00
RMM:  50    -0.186686075778E+03   -0.10585E+00   -0.19201E-02  2002   0.289E-01    0.264E+00
RMM:  51    -0.186683261878E+03    0.28139E-02   -0.82331E-03  2006   0.267E-01    0.271E+00
RMM:  52    -0.186902680291E+03   -0.21942E+00   -0.44187E-02  2000   0.415E-01    0.192E+00
RMM:  53    -0.187005698612E+03   -0.10302E+00   -0.19501E-02  2006   0.325E-01    0.177E+00
RMM:  54    -0.187104476673E+03   -0.98778E-01   -0.17197E-02  2007   0.307E-01    0.125E+00
RMM:  55    -0.187142552838E+03   -0.38076E-01   -0.38499E-03  2001   0.150E-01    0.116E+00
RMM:  56    -0.187213063398E+03   -0.70511E-01   -0.57647E-03  1996   0.171E-01    0.136E+00
RMM:  57    -0.187232057295E+03   -0.18994E-01   -0.18648E-03  1977   0.114E-01    0.120E+00
RMM:  58    -0.187244144961E+03   -0.12088E-01   -0.10961E-03  1949   0.911E-02    0.107E+00
RMM:  59    -0.187328268223E+03   -0.84123E-01   -0.85358E-03  1995   0.191E-01    0.113E+00
RMM:  60    -0.187355087818E+03   -0.26820E-01   -0.25711E-03  1978   0.129E-01    0.864E-01
RMM:  61    -0.187372904873E+03   -0.17817E-01   -0.20881E-03  1979   0.123E-01    0.326E-01
RMM:  62    -0.187391781430E+03   -0.18877E-01   -0.10707E-03  1949   0.782E-02    0.457E-01
RMM:  63    -0.187409993830E+03   -0.18212E-01   -0.99412E-04  1854   0.715E-02    0.407E-01
RMM:  64    -0.187418825042E+03   -0.88312E-02   -0.40636E-04  1467   0.461E-02    0.300E-01
RMM:  65    -0.187431393503E+03   -0.12568E-01   -0.66689E-04  1584   0.526E-02    0.263E-01
RMM:  66    -0.187427182467E+03    0.42110E-02   -0.61948E-04  1778   0.656E-02    0.311E-01
RMM:  67    -0.187433783326E+03   -0.66009E-02   -0.37044E-04  1462   0.503E-02    0.160E-01
RMM:  68    -0.187440207103E+03   -0.64238E-02   -0.23892E-04  1295   0.319E-02    0.986E-02
RMM:  69    -0.187447106158E+03   -0.68991E-02   -0.35685E-04  1403   0.331E-02    0.915E-02
RMM:  70    -0.187448820186E+03   -0.17140E-02   -0.84440E-05  1179   0.237E-02    0.768E-02
RMM:  71    -0.187449138540E+03   -0.31835E-03   -0.56917E-05  1148   0.199E-02    0.955E-02
RMM:  72    -0.187451109789E+03   -0.19712E-02   -0.73295E-05  1184   0.194E-02    0.698E-02
RMM:  73    -0.187452691957E+03   -0.15822E-02   -0.74664E-05  1188   0.163E-02    0.643E-02
RMM:  74    -0.187453429949E+03   -0.73799E-03   -0.46879E-05  1172   0.126E-02    0.471E-02
RMM:  75    -0.187453641248E+03   -0.21130E-03   -0.19050E-05  1141   0.103E-02    0.473E-02
RMM:  76    -0.187453505289E+03    0.13596E-03   -0.12037E-05  1075   0.108E-02    0.504E-02
RMM:  77    -0.187453956704E+03   -0.45142E-03   -0.24669E-05  1153   0.114E-02    0.226E-02
RMM:  78    -0.187454040879E+03   -0.84174E-04   -0.68599E-06   967   0.637E-03
   1 F= -.18745404E+03 E0= -.18746666E+03  d E =-.187454E+03  mag=    26.2237
quench:  g(F)=  0.000E+00 g(S)=  0.000E+00 dE (1.order)= 0.000E+00
 bond charge predicted
       N       E                     dE             d eps       ncg     rms          rms(c)
DAV:   1    -0.187516791174E+03   -0.62834E-01   -0.90275E-01  2046   0.173E+00    0.428E-01
RMM:   2    -0.187539361856E+03   -0.22571E-01   -0.41808E-02  2022   0.491E-01    0.260E+00
RMM:   3    -0.187521574811E+03    0.17787E-01   -0.56649E-03  2019   0.228E-01    0.132E+00
RMM:   4    -0.187519390975E+03    0.21838E-02   -0.20239E-03  2011   0.131E-01    0.796E-01
RMM:   5    -0.187522118888E+03   -0.27279E-02   -0.23516E-03  1994   0.142E-01    0.123E+00
RMM:   6    -0.187520118116E+03    0.20008E-02   -0.22190E-03  1988   0.147E-01    0.740E-01
RMM:   7    -0.187521479918E+03   -0.13618E-02   -0.26315E-03  1983   0.153E-01    0.102E+00
RMM:   8    -0.187520419550E+03    0.10604E-02   -0.24300E-03  1984   0.149E-01    0.805E-01
RMM:   9    -0.187519078684E+03    0.13409E-02   -0.14133E-03  1954   0.117E-01    0.344E-01
RMM:  10    -0.187519131446E+03   -0.52762E-04   -0.43495E-04  1640   0.627E-02
   2 F= -.18751913E+03 E0= -.18753192E+03  d E =-.650906E-01  mag=    26.2374
quench:  g(F)=  0.000E+00 g(S)=  0.000E+00 dE (1.order)= 0.000E+00
 bond charge predicted
       N       E                     dE             d eps       ncg     rms          rms(c)
DAV:   1    -0.187613467053E+03   -0.94388E-01   -0.31647E+00  2016   0.327E+00    0.755E-01
RMM:   2    -0.187665854875E+03   -0.52388E-01   -0.13178E-01  2024   0.849E-01    0.387E+00
RMM:   3    -0.187624516167E+03    0.41339E-01   -0.18430E-02  2024   0.408E-01    0.181E+00
RMM:   4    -0.187626814503E+03   -0.22983E-02   -0.56331E-03  2035   0.214E-01    0.193E+00
RMM:   5    -0.187630106279E+03   -0.32918E-02   -0.80267E-03  2005   0.264E-01    0.213E+00
RMM:   6    -0.187624251015E+03    0.58553E-02   -0.73222E-03  2015   0.266E-01    0.125E+00
RMM:   7    -0.187626847009E+03   -0.25960E-02   -0.72750E-03  2012   0.254E-01    0.157E+00
RMM:   8    -0.187625348031E+03    0.14990E-02   -0.66069E-03  1997   0.244E-01    0.140E+00
RMM:   9    -0.187621490510E+03    0.38575E-02   -0.44347E-03  1993   0.207E-01    0.667E-01
RMM:  10    -0.187621345971E+03    0.14454E-03   -0.15431E-03  1989   0.117E-01    0.610E-01
RMM:  11    -0.187620560516E+03    0.78545E-03   -0.74976E-04  1829   0.871E-02    0.194E-01
RMM:  12    -0.187620614832E+03   -0.54316E-04   -0.18429E-04  1132   0.424E-02
   3 F= -.18762061E+03 E0= -.18763373E+03  d E =-.101483E+00  mag=    26.2651
quench:  g(F)=  0.000E+00 g(S)=  0.000E+00 dE (1.order)= 0.000E+00
 bond charge predicted
       N       E                     dE             d eps       ncg     rms          rms(c)
DAV:   1    -0.187713047816E+03   -0.92487E-01   -0.57648E+00  1992   0.447E+00    0.932E-01
RMM:   2    -0.187791904028E+03   -0.78856E-01   -0.22357E-01  2027   0.104E+00    0.479E+00
RMM:   3    -0.187731801178E+03    0.60103E-01   -0.29649E-02  2024   0.508E-01    0.224E+00
RMM:   4    -0.187738584555E+03   -0.67834E-02   -0.10870E-02  2031   0.296E-01    0.269E+00
RMM:   5    -0.187739730079E+03   -0.11455E-02   -0.13595E-02  2012   0.344E-01    0.260E+00
RMM:   6    -0.187729728171E+03    0.10002E-01   -0.11542E-02  2027   0.336E-01    0.137E+00
RMM:   7    -0.187734103441E+03   -0.43753E-02   -0.88941E-03  2006   0.279E-01    0.187E+00
RMM:   8    -0.187730042244E+03    0.40612E-02   -0.77937E-03  2016   0.268E-01    0.133E+00
RMM:   9    -0.187726637334E+03    0.34049E-02   -0.49788E-03  1987   0.216E-01    0.670E-01
RMM:  10    -0.187726953838E+03   -0.31650E-03   -0.20221E-03  1991   0.135E-01    0.764E-01
RMM:  11    -0.187725705177E+03    0.12487E-02   -0.10172E-03  1905   0.101E-01    0.255E-01
RMM:  12    -0.187725782303E+03   -0.77126E-04   -0.27104E-04  1318   0.505E-02
   4 F= -.18772578E+03 E0= -.18773936E+03  d E =-.105167E+00  mag=    26.3050
quench:  g(F)=  0.000E+00 g(S)=  0.000E+00 dE (1.order)= 0.000E+00
 bond charge predicted
       N       E                     dE             d eps       ncg     rms          rms(c)
DAV:   1    -0.187796433307E+03   -0.70728E-01   -0.78910E+00  2016   0.532E+00    0.966E-01
RMM:   2    -0.187861525755E+03   -0.65092E-01   -0.28286E-01  2071   0.106E+00    0.400E+00
RMM:   3    -0.187823559447E+03    0.37966E-01   -0.30726E-02  2026   0.491E-01    0.247E+00
RMM:   4    -0.187833192403E+03   -0.96330E-02   -0.16189E-02  2038   0.362E-01    0.316E+00
RMM:   5    -0.187826274722E+03    0.69177E-02   -0.16533E-02  2014   0.382E-01    0.245E+00
RMM:   6    -0.187816486972E+03    0.97877E-02   -0.11236E-02  2019   0.332E-01    0.114E+00
RMM:   7    -0.187821699948E+03   -0.52130E-02   -0.75330E-03  2012   0.256E-01    0.179E+00
RMM:   8    -0.187815845134E+03    0.58548E-02   -0.56722E-03  2008   0.233E-01    0.821E-01
RMM:   9    -0.187815428843E+03    0.41629E-03   -0.32428E-03  1987   0.172E-01    0.648E-01
RMM:  10    -0.187815265450E+03    0.16339E-03   -0.16872E-03  1987   0.125E-01    0.583E-01
RMM:  11    -0.187814639238E+03    0.62621E-03   -0.79479E-04  1849   0.896E-02    0.287E-01
RMM:  12    -0.187814714542E+03   -0.75304E-04   -0.30708E-04  1398   0.541E-02
   5 F= -.18781471E+03 E0= -.18782883E+03  d E =-.889322E-01  mag=    26.3501
quench:  g(F)=  0.000E+00 g(S)=  0.000E+00 dE (1.order)= 0.000E+00
 bond charge predicted
       N       E                     dE             d eps       ncg     rms          rms(c)
DAV:   1    -0.187861814779E+03   -0.47176E-01   -0.95240E+00  1992   0.590E+00    0.945E-01
RMM:   2    -0.187908338256E+03   -0.46523E-01   -0.31730E-01  2457   0.105E+00    0.285E+00
RMM:   3    -0.187908198862E+03    0.13939E-03   -0.30992E-02  2028   0.474E-01    0.347E+00
RMM:   4    -0.187907204688E+03    0.99417E-03   -0.23535E-02  2029   0.444E-01    0.323E+00
RMM:   5    -0.187890605898E+03    0.16599E-01   -0.18040E-02  2029   0.415E-01    0.184E+00
RMM:   6    -0.187885491982E+03    0.51139E-02   -0.77415E-03  2014   0.273E-01    0.834E-01
RMM:   7    -0.187889516321E+03   -0.40243E-02   -0.45616E-03  2003   0.201E-01    0.139E+00
RMM:   8    -0.187885663350E+03    0.38530E-02   -0.33041E-03  1993   0.181E-01    0.497E-01
RMM:   9    -0.187886223829E+03   -0.56048E-03   -0.18055E-03  1969   0.128E-01    0.570E-01
RMM:  10    -0.187886347442E+03   -0.12361E-03   -0.12092E-03  1959   0.106E-01    0.551E-01
RMM:  11    -0.187885891600E+03    0.45584E-03   -0.61991E-04  1750   0.784E-02    0.292E-01
RMM:  12    -0.187885997274E+03   -0.10567E-03   -0.29089E-04  1365   0.526E-02    0.286E-01
RMM:  13    -0.187885892916E+03    0.10436E-03   -0.15062E-04  1120   0.438E-02    0.878E-02
RMM:  14    -0.187885955469E+03   -0.62553E-04   -0.38858E-05  1076   0.205E-02
   6 F= -.18788596E+03 E0= -.18790068E+03  d E =-.712409E-01  mag=    26.3946
quench:  g(F)=  0.000E+00 g(S)=  0.000E+00 dE (1.order)= 0.000E+00
 bond charge predicted
       N       E                     dE             d eps       ncg     rms          rms(c)
DAV:   1    -0.187915824338E+03   -0.29931E-01   -0.11210E+01  1992   0.643E+00    0.968E-01
RMM:   2    -0.187952856797E+03   -0.37032E-01   -0.38223E-01  2788   0.110E+00    0.148E+00
RMM:   3    -0.188020668029E+03   -0.67811E-01   -0.42138E-02  2035   0.558E-01    0.589E+00
RMM:   4    -0.187969782989E+03    0.50885E-01   -0.25442E-02  2023   0.469E-01    0.346E+00
RMM:   5    -0.187946070454E+03    0.23713E-01   -0.18673E-02  2035   0.428E-01    0.996E-01
RMM:   6    -0.187947143397E+03   -0.10729E-02   -0.53600E-03  2009   0.217E-01    0.901E-01
RMM:   7    -0.187949014548E+03   -0.18712E-02   -0.31969E-03  2006   0.171E-01    0.110E+00
RMM:   8    -0.187946784957E+03    0.22296E-02   -0.22426E-03  1981   0.150E-01    0.425E-01
RMM:   9    -0.187947686082E+03   -0.90112E-03   -0.16018E-03  1979   0.119E-01    0.598E-01
RMM:  10    -0.187947395844E+03    0.29024E-03   -0.10496E-03  1955   0.101E-01    0.399E-01
RMM:  11    -0.187947241586E+03    0.15426E-03   -0.41055E-04  1590   0.635E-02    0.262E-01
RMM:  12    -0.187947287717E+03   -0.46131E-04   -0.18891E-04  1120   0.440E-02
   7 F= -.18794729E+03 E0= -.18796246E+03  d E =-.613322E-01  mag=    26.4207
quench:  g(F)=  0.000E+00 g(S)=  0.000E+00 dE (1.order)= 0.000E+00
 bond charge predicted
       N       E                     dE             d eps       ncg     rms          rms(c)
DAV:   1    -0.187961475794E+03   -0.14234E-01   -0.13207E+01  1992   0.700E+00    0.103E+00
RMM:   2    -0.188008601801E+03   -0.47126E-01   -0.45678E-01  2718   0.121E+00    0.193E+00
RMM:   3    -0.188071109563E+03   -0.62508E-01   -0.47310E-02  2044   0.584E-01    0.589E+00
RMM:   4    -0.188028113427E+03    0.42996E-01   -0.31158E-02  2030   0.522E-01    0.381E+00
RMM:   5    -0.187999817784E+03    0.28296E-01   -0.21323E-02  2027   0.454E-01    0.121E+00
RMM:   6    -0.187999093048E+03    0.72474E-03   -0.55810E-03  2005   0.222E-01    0.769E-01
RMM:   7    -0.188002408161E+03   -0.33151E-02   -0.43016E-03  2011   0.195E-01    0.111E+00
RMM:   8    -0.187999802072E+03    0.26061E-02   -0.30247E-03  1991   0.175E-01    0.424E-01
RMM:   9    -0.188000653295E+03   -0.85122E-03   -0.15734E-03  1966   0.117E-01    0.636E-01
RMM:  10    -0.188000444480E+03    0.20881E-03   -0.10783E-03  1964   0.994E-02    0.382E-01
RMM:  11    -0.188000234205E+03    0.21028E-03   -0.56864E-04  1781   0.753E-02    0.253E-01
RMM:  12    -0.188000258366E+03   -0.24161E-04   -0.22363E-04  1205   0.471E-02
   8 F= -.18800026E+03 E0= -.18801587E+03  d E =-.529706E-01  mag=    26.4334
quench:  g(F)=  0.000E+00 g(S)=  0.000E+00 dE (1.order)= 0.000E+00
 bond charge predicted
       N       E                     dE             d eps       ncg     rms          rms(c)
DAV:   1    -0.188006143552E+03   -0.59093E-02   -0.14449E+01  1992   0.739E+00    0.110E+00
RMM:   2    -0.188053516347E+03   -0.47373E-01   -0.51035E-01  2603   0.129E+00    0.151E+00
RMM:   3    -0.188096263249E+03   -0.42747E-01   -0.64515E-02  2034   0.723E-01    0.481E+00
RMM:   4    -0.188105798966E+03   -0.95357E-02   -0.27965E-02  2025   0.493E-01    0.521E+00
RMM:   5    -0.188045155723E+03    0.60643E-01   -0.16984E-02  2030   0.399E-01    0.133E+00
RMM:   6    -0.188046205079E+03   -0.10494E-02   -0.73305E-03  2010   0.257E-01    0.872E-01
RMM:   7    -0.188049827887E+03   -0.36228E-02   -0.51123E-03  2015   0.212E-01    0.122E+00
RMM:   8    -0.188046710877E+03    0.31170E-02   -0.35422E-03  1990   0.188E-01    0.479E-01
RMM:   9    -0.188047880273E+03   -0.11694E-02   -0.20173E-03  1968   0.132E-01    0.767E-01
RMM:  10    -0.188047216220E+03    0.66405E-03   -0.13943E-03  1976   0.112E-01    0.418E-01
RMM:  11    -0.188047106370E+03    0.10985E-03   -0.72988E-04  1839   0.841E-02    0.350E-01
RMM:  12    -0.188047023191E+03    0.83179E-04   -0.35384E-04  1460   0.585E-02
   9 F= -.18804702E+03 E0= -.18806295E+03  d E =-.467648E-01  mag=    26.4336
quench:  g(F)=  0.000E+00 g(S)=  0.000E+00 dE (1.order)= 0.000E+00
 bond charge predicted
       N       E                     dE             d eps       ncg     rms          rms(c)
DAV:   1    -0.188031249366E+03    0.15857E-01   -0.13065E+01  1992   0.685E+00    0.102E+00
RMM:   2    -0.188079271704E+03   -0.48022E-01   -0.48846E-01  2332   0.122E+00    0.150E+00
RMM:   3    -0.188143533917E+03   -0.64262E-01   -0.48787E-02  2035   0.600E-01    0.589E+00
RMM:   4    -0.188090561684E+03    0.52972E-01   -0.27508E-02  2041   0.489E-01    0.340E+00
RMM:   5    -0.188072919483E+03    0.17642E-01   -0.19709E-02  2013   0.423E-01    0.144E+00
RMM:   6    -0.188073698185E+03   -0.77870E-03   -0.95200E-03  2014   0.288E-01    0.146E+00
RMM:   7    -0.188071826269E+03    0.18719E-02   -0.60800E-03  2016   0.237E-01    0.105E+00
RMM:   8    -0.188070899158E+03    0.92711E-03   -0.37276E-03  1984   0.190E-01    0.778E-01
RMM:   9    -0.188071041596E+03   -0.14244E-03   -0.27769E-03  1994   0.154E-01    0.821E-01
RMM:  10    -0.188069673036E+03    0.13686E-02   -0.16960E-03  1982   0.129E-01    0.289E-01
RMM:  11    -0.188070061424E+03   -0.38839E-03   -0.82216E-04  1935   0.852E-02    0.424E-01
RMM:  12    -0.188069674247E+03    0.38718E-03   -0.40259E-04  1571   0.652E-02    0.154E-01
RMM:  13    -0.188069694145E+03   -0.19899E-04   -0.12576E-04  1082   0.358E-02
  10 F= -.18806969E+03 E0= -.18808605E+03  d E =-.226710E-01  mag=    26.4280
quench:  g(F)=  0.000E+00 g(S)=  0.000E+00 dE (1.order)= 0.000E+00
 bond charge predicted
       N       E                     dE             d eps       ncg     rms          rms(c)
DAV:   1    -0.188083330821E+03   -0.13657E-01   -0.27625E-01  2058   0.834E-01    0.248E-01
RMM:   2    -0.188094296834E+03   -0.10966E-01   -0.21066E-02  2057   0.283E-01    0.205E+00
RMM:   3    -0.188085763115E+03    0.85337E-02   -0.33844E-03  2011   0.174E-01    0.956E-01
RMM:   4    -0.188085065038E+03    0.69808E-03   -0.18871E-03  1996   0.128E-01    0.653E-01
RMM:   5    -0.188084748305E+03    0.31673E-03   -0.10489E-03  1940   0.914E-02    0.497E-01
RMM:   6    -0.188084266213E+03    0.48209E-03   -0.68711E-04  1818   0.792E-02    0.180E-01
RMM:   7    -0.188084577344E+03   -0.31113E-03   -0.55082E-04  1779   0.704E-02    0.349E-01
RMM:   8    -0.188084461932E+03    0.11541E-03   -0.36591E-04  1495   0.628E-02    0.276E-01
RMM:   9    -0.188084324388E+03    0.13754E-03   -0.19896E-04  1118   0.471E-02    0.119E-01
RMM:  10    -0.188084393862E+03   -0.69474E-04   -0.98650E-05  1118   0.316E-02
  11 F= -.18808439E+03 E0= -.18810061E+03  d E =-.146997E-01  mag=    26.4256
quench:  g(F)=  0.000E+00 g(S)=  0.000E+00 dE (1.order)= 0.000E+00
 bond charge predicted
       N       E                     dE             d eps       ncg     rms          rms(c)
DAV:   1    -0.188095792672E+03   -0.11468E-01   -0.60861E-01  2031   0.132E+00    0.311E-01
RMM:   2    -0.188108948673E+03   -0.13156E-01   -0.38589E-02  2329   0.318E-01    0.217E+00
RMM:   3    -0.188097649625E+03    0.11299E-01   -0.35455E-03  2021   0.163E-01    0.607E-01
RMM:   4    -0.188099641145E+03   -0.19915E-02   -0.32231E-03  2011   0.164E-01    0.104E+00
RMM:   5    -0.188097546876E+03    0.20943E-02   -0.17214E-03  1985   0.124E-01    0.386E-01
RMM:   6    -0.188097647918E+03   -0.10104E-03   -0.10008E-03  1973   0.945E-02    0.358E-01
RMM:   7    -0.188097864292E+03   -0.21637E-03   -0.81951E-04  1904   0.851E-02    0.475E-01
RMM:   8    -0.188097430906E+03    0.43339E-03   -0.58608E-04  1756   0.779E-02    0.270E-01
RMM:   9    -0.188097435923E+03   -0.50176E-05   -0.29845E-04  1342   0.528E-02
  12 F= -.18809744E+03 E0= -.18811378E+03  d E =-.130421E-01  mag=    26.4230
quench:  g(F)=  0.000E+00 g(S)=  0.000E+00 dE (1.order)= 0.000E+00
 bond charge predicted
       N       E                     dE             d eps       ncg     rms          rms(c)
DAV:   1    -0.188106012790E+03   -0.85819E-02   -0.54422E-01  2031   0.147E+00    0.253E-01
RMM:   2    -0.188113741493E+03   -0.77287E-02   -0.22381E-02  2122   0.315E-01    0.169E+00
RMM:   3    -0.188108524855E+03    0.52166E-02   -0.32496E-03  2018   0.163E-01    0.857E-01
RMM:   4    -0.188108758141E+03   -0.23329E-03   -0.16892E-03  1987   0.120E-01    0.847E-01
RMM:   5    -0.188107942021E+03    0.81612E-03   -0.12576E-03  1979   0.105E-01    0.501E-01
RMM:   6    -0.188107424312E+03    0.51771E-03   -0.70646E-04  1820   0.845E-02    0.201E-01
RMM:   7    -0.188107518184E+03   -0.93872E-04   -0.29726E-04  1352   0.527E-02
  13 F= -.18810752E+03 E0= -.18812400E+03  d E =-.100823E-01  mag=    26.4211
quench:  g(F)=  0.000E+00 g(S)=  0.000E+00 dE (1.order)= 0.000E+00
 bond charge predicted
       N       E                     dE             d eps       ncg     rms          rms(c)
DAV:   1    -0.188117625184E+03   -0.10201E-01   -0.78094E-01  1992   0.175E+00    0.337E-01
RMM:   2    -0.188149813838E+03   -0.32189E-01   -0.33954E-02  2039   0.428E-01    0.358E+00
RMM:   3    -0.188120969250E+03    0.28845E-01   -0.77025E-03  2030   0.262E-01    0.121E+00
RMM:   4    -0.188120008368E+03    0.96088E-03   -0.33807E-03  2003   0.173E-01    0.616E-01
RMM:   5    -0.188121276536E+03   -0.12682E-02   -0.19762E-03  1996   0.131E-01    0.879E-01
RMM:   6    -0.188119611473E+03    0.16651E-02   -0.12190E-03  1923   0.110E-01    0.233E-01
RMM:   7    -0.188119702299E+03   -0.90826E-04   -0.37061E-04  1527   0.586E-02
  14 F= -.18811970E+03 E0= -.18813611E+03  d E =-.121841E-01  mag=    26.4200
quench:  g(F)=  0.000E+00 g(S)=  0.000E+00 dE (1.order)= 0.000E+00
 bond charge predicted
       N       E                     dE             d eps       ncg     rms          rms(c)
DAV:   1    -0.188131496298E+03   -0.11885E-01   -0.10389E+00  1992   0.201E+00    0.439E-01
RMM:   2    -0.188159373254E+03   -0.27877E-01   -0.51268E-02  2031   0.552E-01    0.331E+00
RMM:   3    -0.188137017356E+03    0.22356E-01   -0.15484E-02  2029   0.380E-01    0.141E+00
RMM:   4    -0.188136512645E+03    0.50471E-03   -0.32941E-03  2011   0.165E-01    0.119E+00
RMM:   5    -0.188135651671E+03    0.86097E-03   -0.30710E-03  2002   0.162E-01    0.918E-01
RMM:   6    -0.188134404510E+03    0.12472E-02   -0.18653E-03  1985   0.133E-01    0.537E-01
RMM:   7    -0.188133953901E+03    0.45061E-03   -0.77580E-04  1866   0.863E-02    0.253E-01
RMM:   8    -0.188134243909E+03   -0.29001E-03   -0.46778E-04  1655   0.646E-02    0.377E-01
RMM:   9    -0.188134042118E+03    0.20179E-03   -0.35082E-04  1471   0.627E-02    0.185E-01
RMM:  10    -0.188134132223E+03   -0.90105E-04   -0.17671E-04  1127   0.419E-02
  15 F= -.18813413E+03 E0= -.18815074E+03  d E =-.144299E-01  mag=    26.4185
quench:  g(F)=  0.000E+00 g(S)=  0.000E+00 dE (1.order)= 0.000E+00
 bond charge predicted
       N       E                     dE             d eps       ncg     rms          rms(c)
DAV:   1    -0.188146301032E+03   -0.12259E-01   -0.13680E+00  1992   0.228E+00    0.357E-01
RMM:   2    -0.188154699095E+03   -0.83981E-02   -0.47249E-02  2235   0.420E-01    0.143E+00
RMM:   3    -0.188152661750E+03    0.20373E-02   -0.56350E-03  2038   0.207E-01    0.126E+00
RMM:   4    -0.188154879456E+03   -0.22177E-02   -0.33766E-03  2026   0.169E-01    0.155E+00
RMM:   5    -0.188150839428E+03    0.40400E-02   -0.25052E-03  1994   0.151E-01    0.727E-01
RMM:   6    -0.188150007573E+03    0.83185E-03   -0.12421E-03  1937   0.109E-01    0.313E-01
RMM:   7    -0.188150089783E+03   -0.82210E-04   -0.54368E-04  1758   0.693E-02
  16 F= -.18815009E+03 E0= -.18816670E+03  d E =-.159576E-01  mag=    26.4181
quench:  g(F)=  0.000E+00 g(S)=  0.000E+00 dE (1.order)= 0.000E+00
 bond charge predicted
       N       E                     dE             d eps       ncg     rms          rms(c)
DAV:   1    -0.188162738179E+03   -0.12731E-01   -0.16671E+00  1992   0.250E+00    0.449E-01
RMM:   2    -0.188200828142E+03   -0.38090E-01   -0.64497E-02  2098   0.529E-01    0.390E+00
RMM:   3    -0.188168492551E+03    0.32336E-01   -0.10676E-02  2036   0.297E-01    0.132E+00
RMM:   4    -0.188169510341E+03   -0.10178E-02   -0.55928E-03  2018   0.222E-01    0.119E+00
RMM:   5    -0.188168504967E+03    0.10054E-02   -0.31259E-03  2000   0.169E-01    0.865E-01
RMM:   6    -0.188166869528E+03    0.16354E-02   -0.17684E-03  1972   0.133E-01    0.298E-01
RMM:   7    -0.188167603457E+03   -0.73393E-03   -0.89992E-04  1909   0.893E-02    0.538E-01
RMM:   8    -0.188167118825E+03    0.48463E-03   -0.58910E-04  1771   0.776E-02    0.253E-01
RMM:   9    -0.188167132144E+03   -0.13319E-04   -0.34374E-04  1471   0.584E-02
  17 F= -.18816713E+03 E0= -.18818391E+03  d E =-.170424E-01  mag=    26.4191
quench:  g(F)=  0.000E+00 g(S)=  0.000E+00 dE (1.order)= 0.000E+00
 bond charge predicted
       N       E                     dE             d eps       ncg     rms          rms(c)
DAV:   1    -0.188179199615E+03   -0.12081E-01   -0.20585E+00  1992   0.274E+00    0.472E-01
RMM:   2    -0.188207322757E+03   -0.28123E-01   -0.79855E-02  2087   0.572E-01    0.314E+00
RMM:   3    -0.188189190989E+03    0.18132E-01   -0.11412E-02  2028   0.308E-01    0.172E+00
RMM:   4    -0.188187942285E+03    0.12487E-02   -0.62314E-03  2027   0.231E-01    0.132E+00
RMM:   5    -0.188187201055E+03    0.74123E-03   -0.43680E-03  2012   0.197E-01    0.104E+00
RMM:   6    -0.188185164499E+03    0.20366E-02   -0.26097E-03  1980   0.163E-01    0.561E-01
RMM:   7    -0.188184944420E+03    0.22008E-03   -0.95506E-04  1907   0.920E-02    0.468E-01
RMM:   8    -0.188184659353E+03    0.28507E-03   -0.55204E-04  1763   0.712E-02    0.260E-01
RMM:   9    -0.188184777927E+03   -0.11857E-03   -0.38607E-04  1540   0.616E-02    0.282E-01
RMM:  10    -0.188184799738E+03   -0.21811E-04   -0.27837E-04  1302   0.544E-02
  18 F= -.18818480E+03 E0= -.18820183E+03  d E =-.176676E-01  mag=    26.4217
quench:  g(F)=  0.000E+00 g(S)=  0.000E+00 dE (1.order)= 0.000E+00
 bond charge predicted
       N       E                     dE             d eps       ncg     rms          rms(c)
DAV:   1    -0.188196090357E+03   -0.11312E-01   -0.21476E+00  1992   0.275E+00    0.456E-01
RMM:   2    -0.188207793006E+03   -0.11703E-01   -0.84029E-02  2262   0.515E-01    0.148E+00
RMM:   3    -0.188208436419E+03   -0.64341E-03   -0.94228E-03  2031   0.268E-01    0.188E+00
RMM:   4    -0.188210349950E+03   -0.19135E-02   -0.58556E-03  2021   0.226E-01    0.197E+00
RMM:   5    -0.188202671189E+03    0.76788E-02   -0.41277E-03  2015   0.190E-01    0.860E-01
RMM:   6    -0.188202160436E+03    0.51075E-03   -0.21112E-03  1983   0.141E-01    0.533E-01
RMM:   7    -0.188202011238E+03    0.14920E-03   -0.10476E-03  1977   0.978E-02    0.486E-01
RMM:   8    -0.188201683859E+03    0.32738E-03   -0.68069E-04  1813   0.826E-02    0.280E-01
RMM:   9    -0.188201966418E+03   -0.28256E-03   -0.50715E-04  1715   0.685E-02    0.407E-01
RMM:  10    -0.188201656499E+03    0.30992E-03   -0.37290E-04  1513   0.626E-02    0.176E-01
RMM:  11    -0.188201710383E+03   -0.53884E-04   -0.17199E-04  1107   0.418E-02
  19 F= -.18820171E+03 E0= -.18821885E+03  d E =-.169106E-01  mag=    26.4251
quench:  g(F)=  0.000E+00 g(S)=  0.000E+00 dE (1.order)= 0.000E+00
 bond charge predicted
       N       E                     dE             d eps       ncg     rms          rms(c)
DAV:   1    -0.188209334633E+03   -0.76781E-02   -0.18331E+00  1992   0.243E+00    0.436E-01
RMM:   2    -0.188222035608E+03   -0.12701E-01   -0.79926E-02  2101   0.511E-01    0.160E+00
RMM:   3    -0.188216482018E+03    0.55536E-02   -0.10201E-02  2018   0.293E-01    0.106E+00
RMM:   4    -0.188223410543E+03   -0.69285E-02   -0.43744E-03  2041   0.190E-01    0.199E+00
RMM:   5    -0.188217582211E+03    0.58283E-02   -0.32779E-03  2003   0.165E-01    0.125E+00
RMM:   6    -0.188214722583E+03    0.28596E-02   -0.23972E-03  1995   0.149E-01    0.394E-01
RMM:   7    -0.188215357195E+03   -0.63461E-03   -0.12039E-03  1980   0.101E-01    0.614E-01
RMM:   8    -0.188214782954E+03    0.57424E-03   -0.83552E-04  1941   0.886E-02    0.333E-01
RMM:   9    -0.188214761475E+03    0.21479E-04   -0.54521E-04  1725   0.722E-02
  20 F= -.18821476E+03 E0= -.18823196E+03  d E =-.130511E-01  mag=    26.4293
quench:  g(F)=  0.000E+00 g(S)=  0.000E+00 dE (1.order)= 0.000E+00
 bond charge predicted
       N       E                     dE             d eps       ncg     rms          rms(c)
DAV:   1    -0.188222282235E+03   -0.74993E-02   -0.60681E-01  2004   0.139E+00    0.362E-01
RMM:   2    -0.188247167320E+03   -0.24885E-01   -0.41398E-02  2036   0.444E-01    0.302E+00
RMM:   3    -0.188228496303E+03    0.18671E-01   -0.91650E-03  2024   0.293E-01    0.163E+00
RMM:   4    -0.188225440237E+03    0.30561E-02   -0.37260E-03  2003   0.181E-01    0.934E-01
RMM:   5    -0.188224790249E+03    0.64999E-03   -0.21127E-03  2001   0.132E-01    0.693E-01
RMM:   6    -0.188223814524E+03    0.97572E-03   -0.11606E-03  1979   0.105E-01    0.316E-01
RMM:   7    -0.188223901796E+03   -0.87271E-04   -0.64610E-04  1832   0.762E-02
  21 F= -.18822390E+03 E0= -.18824103E+03  d E =-.914032E-02  mag=    26.4305
quench:  g(F)=  0.000E+00 g(S)=  0.000E+00 dE (1.order)= 0.000E+00
 bond charge predicted
       N       E                     dE             d eps       ncg     rms          rms(c)
DAV:   1    -0.188230882066E+03   -0.70675E-02   -0.48897E-01  1992   0.135E+00    0.391E-01
RMM:   2    -0.188268575933E+03   -0.37694E-01   -0.37182E-02  2008   0.519E-01    0.396E+00
RMM:   3    -0.188239158158E+03    0.29418E-01   -0.15038E-02  2018   0.382E-01    0.192E+00
RMM:   4    -0.188231985489E+03    0.71727E-02   -0.32314E-03  1992   0.168E-01    0.520E-01
RMM:   5    -0.188232733596E+03   -0.74811E-03   -0.16521E-03  1970   0.120E-01    0.545E-01
RMM:   6    -0.188232396525E+03    0.33707E-03   -0.78544E-04  1869   0.882E-02    0.380E-01
RMM:   7    -0.188232104154E+03    0.29237E-03   -0.37334E-04  1530   0.627E-02    0.177E-01
RMM:   8    -0.188232219839E+03   -0.11568E-03   -0.18649E-04  1121   0.421E-02    0.250E-01
RMM:   9    -0.188232174110E+03    0.45729E-04   -0.14327E-04  1128   0.422E-02
  22 F= -.18823217E+03 E0= -.18824942E+03  d E =-.827231E-02  mag=    26.4330
quench:  g(F)=  0.000E+00 g(S)=  0.000E+00 dE (1.order)= 0.000E+00
 bond charge predicted
       N       E                     dE             d eps       ncg     rms          rms(c)
DAV:   1    -0.188240273464E+03   -0.80536E-02   -0.69008E-01  2013   0.155E+00    0.281E-01
RMM:   2    -0.188256000044E+03   -0.15727E-01   -0.28395E-02  2052   0.344E-01    0.240E+00
RMM:   3    -0.188243600714E+03    0.12399E-01   -0.44406E-03  2021   0.195E-01    0.101E+00
RMM:   4    -0.188242482806E+03    0.11179E-02   -0.25341E-03  1995   0.150E-01    0.535E-01
RMM:   5    -0.188243342353E+03   -0.85955E-03   -0.13456E-03  1970   0.110E-01    0.765E-01
RMM:   6    -0.188242112785E+03    0.12296E-02   -0.84540E-04  1896   0.941E-02    0.224E-01
RMM:   7    -0.188242237628E+03   -0.12484E-03   -0.32487E-04  1432   0.553E-02    0.255E-01
RMM:   8    -0.188242161586E+03    0.76042E-04   -0.18187E-04  1143   0.468E-02
  23 F= -.18824216E+03 E0= -.18825947E+03  d E =-.998748E-02  mag=    26.4348
quench:  g(F)=  0.000E+00 g(S)=  0.000E+00 dE (1.order)= 0.000E+00
 bond charge predicted
       N       E                     dE             d eps       ncg     rms          rms(c)
DAV:   1    -0.188251403344E+03   -0.91657E-02   -0.95945E-01  1992   0.183E+00    0.341E-01
RMM:   2    -0.188276254771E+03   -0.24851E-01   -0.40289E-02  2053   0.414E-01    0.307E+00
RMM:   3    -0.188255945122E+03    0.20310E-01   -0.69092E-03  2028   0.245E-01    0.120E+00
RMM:   4    -0.188254804957E+03    0.11402E-02   -0.29518E-03  2002   0.163E-01    0.789E-01
RMM:   5    -0.188255344353E+03   -0.53940E-03   -0.23990E-03  1999   0.146E-01    0.716E-01
RMM:   6    -0.188254113558E+03    0.12308E-02   -0.14740E-03  1975   0.122E-01    0.318E-01
RMM:   7    -0.188254140323E+03   -0.26765E-04   -0.40826E-04  1593   0.612E-02
  24 F= -.18825414E+03 E0= -.18827144E+03  d E =-.119787E-01  mag=    26.4360
quench:  g(F)=  0.000E+00 g(S)=  0.000E+00 dE (1.order)= 0.000E+00
 bond charge predicted
       N       E                     dE             d eps       ncg     rms          rms(c)
DAV:   1    -0.188264513919E+03   -0.10400E-01   -0.12683E+00  1992   0.211E+00    0.409E-01
RMM:   2    -0.188295545658E+03   -0.31032E-01   -0.55670E-02  2032   0.502E-01    0.344E+00
RMM:   3    -0.188272207225E+03    0.23338E-01   -0.97476E-03  2030   0.293E-01    0.160E+00
RMM:   4    -0.188268889803E+03    0.33174E-02   -0.43996E-03  2007   0.198E-01    0.859E-01
RMM:   5    -0.188270364025E+03   -0.14742E-02   -0.32881E-03  1999   0.170E-01    0.102E+00
RMM:   6    -0.188268109236E+03    0.22548E-02   -0.21123E-03  1983   0.146E-01    0.329E-01
RMM:   7    -0.188268275006E+03   -0.16577E-03   -0.67375E-04  1830   0.778E-02    0.370E-01
RMM:   8    -0.188268260571E+03    0.14435E-04   -0.41845E-04  1592   0.640E-02
  25 F= -.18826826E+03 E0= -.18828552E+03  d E =-.141202E-01  mag=    26.4368
quench:  g(F)=  0.000E+00 g(S)=  0.000E+00 dE (1.order)= 0.000E+00
 bond charge predicted
       N       E                     dE             d eps       ncg     rms          rms(c)
DAV:   1    -0.188279594157E+03   -0.11319E-01   -0.16402E+00  1992   0.240E+00    0.437E-01
RMM:   2    -0.188320419412E+03   -0.40825E-01   -0.68611E-02  2054   0.526E-01    0.398E+00
RMM:   3    -0.188285694806E+03    0.34725E-01   -0.10400E-02  2027   0.298E-01    0.128E+00
RMM:   4    -0.188286025250E+03   -0.33044E-03   -0.52223E-03  2014   0.216E-01    0.105E+00
RMM:   5    -0.188286889997E+03   -0.86475E-03   -0.35529E-03  2002   0.179E-01    0.108E+00
RMM:   6    -0.188284179301E+03    0.27107E-02   -0.23263E-03  1969   0.153E-01    0.305E-01
RMM:   7    -0.188284598206E+03   -0.41890E-03   -0.80920E-04  1881   0.841E-02    0.396E-01
RMM:   8    -0.188284490166E+03    0.10804E-03   -0.45190E-04  1625   0.670E-02    0.314E-01
RMM:   9    -0.188284474612E+03    0.15554E-04   -0.27952E-04  1349   0.534E-02
  26 F= -.18828447E+03 E0= -.18830180E+03  d E =-.162140E-01  mag=    26.4377
quench:  g(F)=  0.000E+00 g(S)=  0.000E+00 dE (1.order)= 0.000E+00
 bond charge predicted
       N       E                     dE             d eps       ncg     rms          rms(c)
DAV:   1    -0.188297010310E+03   -0.12520E-01   -0.20467E+00  1992   0.267E+00    0.468E-01
RMM:   2    -0.188314466139E+03   -0.17456E-01   -0.84666E-02  2094   0.560E-01    0.207E+00
RMM:   3    -0.188305898809E+03    0.85673E-02   -0.12265E-02  2027   0.325E-01    0.142E+00
RMM:   4    -0.188310054310E+03   -0.41555E-02   -0.46365E-03  2020   0.198E-01    0.188E+00
RMM:   5    -0.188306343738E+03    0.37106E-02   -0.42995E-03  2009   0.192E-01    0.133E+00
RMM:   6    -0.188303024649E+03    0.33191E-02   -0.30062E-03  1993   0.172E-01    0.498E-01
RMM:   7    -0.188303085440E+03   -0.60791E-04   -0.10787E-03  1948   0.983E-02    0.444E-01
RMM:   8    -0.188302916552E+03    0.16889E-03   -0.52575E-04  1767   0.705E-02    0.331E-01
RMM:   9    -0.188302898896E+03    0.17656E-04   -0.32818E-04  1443   0.581E-02
  27 F= -.18830290E+03 E0= -.18832022E+03  d E =-.184243E-01  mag=    26.4370
quench:  g(F)=  0.000E+00 g(S)=  0.000E+00 dE (1.order)= 0.000E+00
 bond charge predicted
       N       E                     dE             d eps       ncg     rms          rms(c)
DAV:   1    -0.188316104992E+03   -0.13188E-01   -0.24798E+00  1992   0.293E+00    0.560E-01
RMM:   2    -0.188350136397E+03   -0.34031E-01   -0.11116E-01  2036   0.690E-01    0.332E+00
RMM:   3    -0.188325911548E+03    0.24225E-01   -0.20312E-02  2021   0.433E-01    0.145E+00
RMM:   4    -0.188331296079E+03   -0.53845E-02   -0.54367E-03  2020   0.211E-01    0.205E+00
RMM:   5    -0.188327710088E+03    0.35860E-02   -0.57319E-03  2010   0.226E-01    0.144E+00
RMM:   6    -0.188323314904E+03    0.43952E-02   -0.40608E-03  2007   0.200E-01    0.528E-01
RMM:   7    -0.188323426431E+03   -0.11153E-03   -0.11991E-03  1958   0.105E-01    0.468E-01
RMM:   8    -0.188323446973E+03   -0.20542E-04   -0.76742E-04  1913   0.827E-02
  28 F= -.18832345E+03 E0= -.18834083E+03  d E =-.205481E-01  mag=    26.4355
quench:  g(F)=  0.000E+00 g(S)=  0.000E+00 dE (1.order)= 0.000E+00
 bond charge predicted
       N       E                     dE             d eps       ncg     rms          rms(c)
DAV:   1    -0.188335453513E+03   -0.12027E-01   -0.28106E+00  1992   0.313E+00    0.591E-01
RMM:   2    -0.188420813141E+03   -0.85360E-01   -0.12802E-01  2080   0.714E-01    0.575E+00
RMM:   3    -0.188345965246E+03    0.74848E-01   -0.19950E-02  2021   0.415E-01    0.176E+00
RMM:   4    -0.188346843354E+03   -0.87811E-03   -0.91327E-03  2024   0.286E-01    0.140E+00
RMM:   5    -0.188347835147E+03   -0.99179E-03   -0.63400E-03  2012   0.237E-01    0.126E+00
RMM:   6    -0.188343808509E+03    0.40266E-02   -0.38938E-03  2002   0.197E-01    0.445E-01
RMM:   7    -0.188344355310E+03   -0.54680E-03   -0.14820E-03  1966   0.115E-01    0.560E-01
RMM:   8    -0.188344232427E+03    0.12288E-03   -0.88138E-04  1905   0.907E-02    0.451E-01
RMM:   9    -0.188343970951E+03    0.26148E-03   -0.54801E-04  1738   0.739E-02    0.296E-01
RMM:  10    -0.188344148422E+03   -0.17747E-03   -0.43600E-04  1638   0.637E-02    0.341E-01
RMM:  11    -0.188343964633E+03    0.18379E-03   -0.25915E-04  1255   0.548E-02    0.171E-01
RMM:  12    -0.188343974567E+03   -0.99342E-05   -0.84164E-05  1077   0.294E-02
  29 F= -.18834397E+03 E0= -.18836145E+03  d E =-.205276E-01  mag=    26.4311
quench:  g(F)=  0.000E+00 g(S)=  0.000E+00 dE (1.order)= 0.000E+00
 bond charge predicted
       N       E                     dE             d eps       ncg     rms          rms(c)
DAV:   1    -0.188353141947E+03   -0.91773E-02   -0.23487E+00  1992   0.276E+00    0.488E-01
RMM:   2    -0.188363906205E+03   -0.10764E-01   -0.10624E-01  2144   0.544E-01    0.916E-01
RMM:   3    -0.188363690644E+03    0.21556E-03   -0.12761E-02  2020   0.319E-01    0.115E+00
RMM:   4    -0.188363891922E+03   -0.20128E-03   -0.52709E-03  2037   0.214E-01    0.133E+00
RMM:   5    -0.188362212689E+03    0.16792E-02   -0.23856E-03  2004   0.149E-01    0.102E+00
RMM:   6    -0.188360312790E+03    0.18999E-02   -0.10341E-03  1940   0.941E-02    0.443E-01
RMM:   7    -0.188361288414E+03   -0.97562E-03   -0.13817E-03  1983   0.110E-01    0.707E-01
RMM:   8    -0.188360234384E+03    0.10540E-02   -0.97120E-04  1901   0.980E-02    0.273E-01
RMM:   9    -0.188360429487E+03   -0.19510E-03   -0.51220E-04  1700   0.684E-02    0.346E-01
RMM:  10    -0.188360342604E+03    0.86884E-04   -0.35895E-04  1486   0.598E-02
  30 F= -.18836034E+03 E0= -.18837786E+03  d E =-.163680E-01  mag=    26.4284
quench:  g(F)=  0.000E+00 g(S)=  0.000E+00 dE (1.order)= 0.000E+00
 bond charge predicted
       N       E                     dE             d eps       ncg     rms          rms(c)
DAV:   1    -0.188368273606E+03   -0.78441E-02   -0.81479E-01  2004   0.158E+00    0.329E-01
RMM:   2    -0.188390690645E+03   -0.22417E-01   -0.44035E-02  2156   0.364E-01    0.294E+00
RMM:   3    -0.188370020053E+03    0.20671E-01   -0.48192E-03  2018   0.198E-01    0.575E-01
RMM:   4    -0.188372914973E+03   -0.28949E-02   -0.38691E-03  2014   0.181E-01    0.105E+00
RMM:   5    -0.188370883888E+03    0.20311E-02   -0.20622E-03  1987   0.134E-01    0.432E-01
RMM:   6    -0.188370899138E+03   -0.15250E-04   -0.10152E-03  1942   0.960E-02    0.382E-01
RMM:   7    -0.188371234898E+03   -0.33576E-03   -0.78259E-04  1871   0.846E-02    0.529E-01
RMM:   8    -0.188370644736E+03    0.59016E-03   -0.51471E-04  1691   0.736E-02    0.228E-01
RMM:   9    -0.188370745416E+03   -0.10068E-03   -0.25659E-04  1251   0.501E-02    0.270E-01
RMM:  10    -0.188370642738E+03    0.10268E-03   -0.17223E-04  1140   0.448E-02    0.157E-01
RMM:  11    -0.188370605643E+03    0.37095E-04   -0.80120E-05  1078   0.314E-02
  31 F= -.18837061E+03 E0= -.18838798E+03  d E =-.102630E-01  mag=    26.4238
quench:  g(F)=  0.000E+00 g(S)=  0.000E+00 dE (1.order)= 0.000E+00
 bond charge predicted
       N       E                     dE             d eps       ncg     rms          rms(c)
DAV:   1    -0.188377290894E+03   -0.66482E-02   -0.42544E-01  2010   0.120E+00    0.230E-01
RMM:   2    -0.188382065409E+03   -0.47745E-02   -0.20206E-02  2053   0.279E-01    0.118E+00
RMM:   3    -0.188378723708E+03    0.33417E-02   -0.31742E-03  2003   0.168E-01    0.441E-01
RMM:   4    -0.188380501770E+03   -0.17781E-02   -0.12477E-03  1984   0.103E-01    0.958E-01
RMM:   5    -0.188379635983E+03    0.86579E-03   -0.77602E-04  1887   0.836E-02    0.702E-01
RMM:   6    -0.188378571123E+03    0.10649E-02   -0.62451E-04  1862   0.788E-02    0.200E-01
RMM:   7    -0.188378684420E+03   -0.11330E-03   -0.25181E-04  1238   0.495E-02    0.240E-01
RMM:   8    -0.188378629375E+03    0.55046E-04   -0.16207E-04  1116   0.447E-02
  32 F= -.18837863E+03 E0= -.18839594E+03  d E =-.802373E-02  mag=    26.4213
quench:  g(F)=  0.000E+00 g(S)=  0.000E+00 dE (1.order)= 0.000E+00
 bond charge predicted
       N       E                     dE             d eps       ncg     rms          rms(c)
DAV:   1    -0.188385967421E+03   -0.72830E-02   -0.58618E-01  1992   0.143E+00    0.266E-01
RMM:   2    -0.188396659088E+03   -0.10692E-01   -0.25743E-02  2100   0.315E-01    0.197E+00
RMM:   3    -0.188389159044E+03    0.75000E-02   -0.37141E-03  2003   0.178E-01    0.973E-01
RMM:   4    -0.188388253410E+03    0.90563E-03   -0.16569E-03  1975   0.120E-01    0.654E-01
RMM:   5    -0.188388603176E+03   -0.34977E-03   -0.13902E-03  1983   0.112E-01    0.606E-01
RMM:   6    -0.188387660455E+03    0.94272E-03   -0.87071E-04  1890   0.940E-02    0.199E-01
RMM:   7    -0.188387763306E+03   -0.10285E-03   -0.23185E-04  1228   0.471E-02    0.228E-01
RMM:   8    -0.188387791664E+03   -0.28358E-04   -0.16565E-04  1118   0.432E-02
  33 F= -.18838779E+03 E0= -.18840496E+03  d E =-.916229E-02  mag=    26.4178
quench:  g(F)=  0.000E+00 g(S)=  0.000E+00 dE (1.order)= 0.000E+00
 bond charge predicted
       N       E                     dE             d eps       ncg     rms          rms(c)
DAV:   1    -0.188395796677E+03   -0.80334E-02   -0.81765E-01  1992   0.169E+00    0.313E-01
RMM:   2    -0.188421005583E+03   -0.25209E-01   -0.35993E-02  2080   0.376E-01    0.311E+00
RMM:   3    -0.188398112551E+03    0.22893E-01   -0.54425E-03  2018   0.215E-01    0.802E-01
RMM:   4    -0.188399177223E+03   -0.10647E-02   -0.28351E-03  1997   0.161E-01    0.767E-01
RMM:   5    -0.188399438294E+03   -0.26107E-03   -0.17569E-03  1985   0.128E-01    0.736E-01
RMM:   6    -0.188398121054E+03    0.13172E-02   -0.10506E-03  1925   0.104E-01    0.208E-01
RMM:   7    -0.188398260860E+03   -0.13981E-03   -0.34639E-04  1452   0.566E-02    0.242E-01
RMM:   8    -0.188398311420E+03   -0.50561E-04   -0.20397E-04  1159   0.479E-02
  34 F= -.18839831E+03 E0= -.18841554E+03  d E =-.105198E-01  mag=    26.4135
quench:  g(F)=  0.000E+00 g(S)=  0.000E+00 dE (1.order)= 0.000E+00
 bond charge predicted
       N       E                     dE             d eps       ncg     rms          rms(c)
DAV:   1    -0.188406650518E+03   -0.83897E-02   -0.11004E+00  1992   0.196E+00    0.349E-01
RMM:   2    -0.188422259615E+03   -0.15609E-01   -0.46041E-02  2125   0.408E-01    0.229E+00
RMM:   3    -0.188412210172E+03    0.10049E-01   -0.57304E-03  2015   0.216E-01    0.122E+00
RMM:   4    -0.188411253303E+03    0.95687E-03   -0.30743E-03  2007   0.163E-01    0.954E-01
RMM:   5    -0.188411390562E+03   -0.13726E-03   -0.23901E-03  1994   0.148E-01    0.784E-01
RMM:   6    -0.188409776871E+03    0.16137E-02   -0.14659E-03  1963   0.121E-01    0.223E-01
RMM:   7    -0.188410061783E+03   -0.28491E-03   -0.41660E-04  1576   0.611E-02    0.341E-01
RMM:   8    -0.188410043508E+03    0.18276E-04   -0.28889E-04  1327   0.557E-02
  35 F= -.18841004E+03 E0= -.18842711E+03  d E =-.117321E-01  mag=    26.4081
quench:  g(F)=  0.000E+00 g(S)=  0.000E+00 dE (1.order)= 0.000E+00
 bond charge predicted
       N       E                     dE             d eps       ncg     rms          rms(c)
DAV:   1    -0.188418297755E+03   -0.82360E-02   -0.13972E+00  1992   0.221E+00    0.404E-01
RMM:   2    -0.188454405888E+03   -0.36108E-01   -0.60053E-02  2094   0.481E-01    0.368E+00
RMM:   3    -0.188422820865E+03    0.31585E-01   -0.84592E-03  2013   0.266E-01    0.108E+00
RMM:   4    -0.188424053103E+03   -0.12322E-02   -0.47952E-03  2014   0.208E-01    0.997E-01
RMM:   5    -0.188424478884E+03   -0.42578E-03   -0.30170E-03  1997   0.167E-01    0.972E-01
RMM:   6    -0.188422242308E+03    0.22366E-02   -0.18533E-03  1970   0.136E-01    0.288E-01
RMM:   7    -0.188422424342E+03   -0.18203E-03   -0.60432E-04  1766   0.734E-02    0.294E-01
RMM:   8    -0.188422568307E+03   -0.14397E-03   -0.32830E-04  1417   0.577E-02    0.320E-01
RMM:   9    -0.188422406811E+03    0.16150E-03   -0.22287E-04  1203   0.506E-02    0.157E-01
RMM:  10    -0.188422516886E+03   -0.11007E-03   -0.18043E-04  1104   0.422E-02    0.211E-01
RMM:  11    -0.188422458914E+03    0.57972E-04   -0.11730E-04  1081   0.392E-02
  36 F= -.18842246E+03 E0= -.18843964E+03  d E =-.124154E-01  mag=    26.3997
quench:  g(F)=  0.000E+00 g(S)=  0.000E+00 dE (1.order)= 0.000E+00
 bond charge predicted
       N       E                     dE             d eps       ncg     rms          rms(c)
DAV:   1    -0.188430063935E+03   -0.75470E-02   -0.17315E+00  1992   0.245E+00    0.406E-01
RMM:   2    -0.188445787209E+03   -0.15723E-01   -0.68826E-02  2216   0.475E-01    0.213E+00
RMM:   3    -0.188436997930E+03    0.87893E-02   -0.62614E-03  2022   0.215E-01    0.118E+00
RMM:   4    -0.188438837064E+03   -0.18391E-02   -0.58276E-03  2019   0.226E-01    0.129E+00
RMM:   5    -0.188436648503E+03    0.21886E-02   -0.32691E-03  2001   0.175E-01    0.878E-01
RMM:   6    -0.188435026688E+03    0.16218E-02   -0.16803E-03  1969   0.128E-01    0.301E-01
RMM:   7    -0.188435464651E+03   -0.43796E-03   -0.67309E-04  1816   0.772E-02    0.481E-01
RMM:   8    -0.188435161190E+03    0.30346E-03   -0.42854E-04  1593   0.661E-02    0.264E-01
RMM:   9    -0.188435181451E+03   -0.20260E-04   -0.27246E-04  1304   0.525E-02
  37 F= -.18843518E+03 E0= -.18845218E+03  d E =-.127225E-01  mag=    26.3910
quench:  g(F)=  0.000E+00 g(S)=  0.000E+00 dE (1.order)= 0.000E+00
 bond charge predicted
       N       E                     dE             d eps       ncg     rms          rms(c)
DAV:   1    -0.188441876713E+03   -0.67155E-02   -0.19454E+00  1992   0.259E+00    0.472E-01
RMM:   2    -0.188459302321E+03   -0.17426E-01   -0.82988E-02  2080   0.566E-01    0.220E+00
RMM:   3    -0.188447843392E+03    0.11459E-01   -0.12912E-02  2014   0.335E-01    0.905E-01
RMM:   4    -0.188451199105E+03   -0.33557E-02   -0.62002E-03  2029   0.233E-01    0.129E+00
RMM:   5    -0.188452618733E+03   -0.14196E-02   -0.32592E-03  2000   0.173E-01    0.158E+00
RMM:   6    -0.188447344352E+03    0.52744E-02   -0.14567E-03  1965   0.118E-01    0.499E-01
RMM:   7    -0.188447380592E+03   -0.36240E-04   -0.10315E-03  1938   0.958E-02    0.347E-01
RMM:   8    -0.188447760257E+03   -0.37966E-03   -0.58666E-04  1802   0.731E-02    0.456E-01
RMM:   9    -0.188447373091E+03    0.38717E-03   -0.42491E-04  1607   0.670E-02    0.202E-01
RMM:  10    -0.188447592966E+03   -0.21988E-03   -0.27178E-04  1326   0.503E-02    0.340E-01
RMM:  11    -0.188447418066E+03    0.17490E-03   -0.20376E-04  1171   0.490E-02    0.148E-01
RMM:  12    -0.188447405860E+03    0.12206E-04   -0.72364E-05  1072   0.285E-02
  38 F= -.18844741E+03 E0= -.18846444E+03  d E =-.122244E-01  mag=    26.3796
quench:  g(F)=  0.000E+00 g(S)=  0.000E+00 dE (1.order)= 0.000E+00
 bond charge predicted
       N       E                     dE             d eps       ncg     rms          rms(c)
DAV:   1    -0.188450786727E+03   -0.33687E-02   -0.19326E+00  1992   0.253E+00    0.434E-01
RMM:   2    -0.188460021388E+03   -0.92347E-02   -0.79361E-02  2404   0.485E-01    0.105E+00
RMM:   3    -0.188463357640E+03   -0.33363E-02   -0.82038E-03  2024   0.252E-01    0.188E+00
RMM:   4    -0.188462934388E+03    0.42325E-03   -0.53601E-03  2025   0.214E-01    0.162E+00
RMM:   5    -0.188457664486E+03    0.52699E-02   -0.39166E-03  2007   0.189E-01    0.844E-01
RMM:   6    -0.188456451594E+03    0.12129E-02   -0.17702E-03  1977   0.129E-01    0.312E-01
RMM:   7    -0.188457090271E+03   -0.63868E-03   -0.90711E-04  1949   0.896E-02    0.572E-01
RMM:   8    -0.188456506406E+03    0.58386E-03   -0.61057E-04  1762   0.783E-02    0.292E-01
RMM:   9    -0.188456542660E+03   -0.36254E-04   -0.33248E-04  1454   0.558E-02
  39 F= -.18845654E+03 E0= -.18847328E+03  d E =-.913680E-02  mag=    26.3690
quench:  g(F)=  0.000E+00 g(S)=  0.000E+00 dE (1.order)= 0.000E+00
 bond charge predicted
       N       E                     dE             d eps       ncg     rms          rms(c)
DAV:   1    -0.188460147783E+03   -0.36414E-02   -0.60616E-01  2049   0.132E+00    0.342E-01
RMM:   2    -0.188473996685E+03   -0.13849E-01   -0.37782E-02  2015   0.409E-01    0.227E+00
RMM:   3    -0.188464572097E+03    0.94246E-02   -0.80081E-03  2011   0.274E-01    0.122E+00
RMM:   4    -0.188463242390E+03    0.13297E-02   -0.19829E-03  2020   0.127E-01    0.845E-01
RMM:   5    -0.188462992227E+03    0.25016E-03   -0.19099E-03  1992   0.127E-01    0.743E-01
RMM:   6    -0.188461870592E+03    0.11216E-02   -0.11927E-03  1982   0.105E-01    0.305E-01
RMM:   7    -0.188462016670E+03   -0.14608E-03   -0.71212E-04  1878   0.798E-02    0.341E-01
RMM:   8    -0.188462117745E+03   -0.10107E-03   -0.50981E-04  1708   0.706E-02    0.376E-01
RMM:   9    -0.188461787325E+03    0.33042E-03   -0.31628E-04  1424   0.593E-02    0.114E-01
RMM:  10    -0.188461890092E+03   -0.10277E-03   -0.16050E-04  1106   0.393E-02    0.202E-01
RMM:  11    -0.188461822684E+03    0.67408E-04   -0.10727E-04  1081   0.374E-02
  40 F= -.18846182E+03 E0= -.18847870E+03  d E =-.528002E-02  mag=    26.3604
quench:  g(F)=  0.000E+00 g(S)=  0.000E+00 dE (1.order)= 0.000E+00
 bond charge predicted
       N       E                     dE             d eps       ncg     rms          rms(c)
DAV:   1    -0.188464245828E+03   -0.23557E-02   -0.16286E-01  2025   0.723E-01    0.132E-01
RMM:   2    -0.188465082928E+03   -0.83710E-03   -0.70434E-03  2422   0.142E-01    0.358E-01
RMM:   3    -0.188465203256E+03   -0.12033E-03   -0.79062E-04  1846   0.803E-02    0.478E-01
RMM:   4    -0.188465753501E+03   -0.55024E-03   -0.39965E-04  1538   0.587E-02    0.694E-01
RMM:   5    -0.188464781462E+03    0.97204E-03   -0.37696E-04  1556   0.634E-02    0.198E-01
RMM:   6    -0.188464766675E+03    0.14787E-04   -0.18911E-04  1139   0.450E-02
  41 F= -.18846477E+03 E0= -.18848163E+03  d E =-.294399E-02  mag=    26.3567
quench:  g(F)=  0.000E+00 g(S)=  0.000E+00 dE (1.order)= 0.000E+00
 bond charge predicted
       N       E                     dE             d eps       ncg     rms          rms(c)
DAV:   1    -0.188467312304E+03   -0.25308E-02   -0.21806E-01  1992   0.887E-01    0.234E-01
RMM:   2    -0.188476978787E+03   -0.96665E-02   -0.13732E-02  2022   0.299E-01    0.202E+00
RMM:   3    -0.188468685207E+03    0.82936E-02   -0.52145E-03  2004   0.225E-01    0.749E-01
RMM:   4    -0.188468082272E+03    0.60293E-03   -0.66119E-04  1809   0.743E-02    0.431E-01
RMM:   5    -0.188468191583E+03   -0.10931E-03   -0.70591E-04  1857   0.792E-02    0.391E-01
RMM:   6    -0.188468005581E+03    0.18600E-03   -0.37898E-04  1541   0.628E-02    0.286E-01
RMM:   7    -0.188467838052E+03    0.16753E-03   -0.16324E-04  1088   0.426E-02    0.873E-02
RMM:   8    -0.188467927958E+03   -0.89907E-04   -0.10066E-04  1072   0.308E-02
  42 F= -.18846793E+03 E0= -.18848466E+03  d E =-.316128E-02  mag=    26.3513
quench:  g(F)=  0.000E+00 g(S)=  0.000E+00 dE (1.order)= 0.000E+00
 bond charge predicted
       N       E                     dE             d eps       ncg     rms          rms(c)
DAV:   1    -0.188470654534E+03   -0.28165E-02   -0.32022E-01  1992   0.106E+00    0.195E-01
RMM:   2    -0.188478681625E+03   -0.80271E-02   -0.13762E-02  2054   0.247E-01    0.174E+00
RMM:   3    -0.188471945701E+03    0.67359E-02   -0.20276E-03  1990   0.134E-01    0.622E-01
RMM:   4    -0.188471710249E+03    0.23545E-03   -0.10817E-03  1951   0.990E-02    0.365E-01
RMM:   5    -0.188472088383E+03   -0.37813E-03   -0.69979E-04  1825   0.801E-02    0.493E-01
RMM:   6    -0.188471530359E+03    0.55802E-03   -0.43422E-04  1600   0.690E-02    0.162E-01
RMM:   7    -0.188471558855E+03   -0.28497E-04   -0.13318E-04  1079   0.363E-02
  43 F= -.18847156E+03 E0= -.18848835E+03  d E =-.363090E-02  mag=    26.3464
quench:  g(F)=  0.000E+00 g(S)=  0.000E+00 dE (1.order)= 0.000E+00
 bond charge predicted
       N       E                     dE             d eps       ncg     rms          rms(c)
DAV:   1    -0.188474431675E+03   -0.29013E-02   -0.44835E-01  1992   0.126E+00    0.272E-01
RMM:   2    -0.188483782286E+03   -0.93506E-02   -0.22185E-02  2034   0.347E-01    0.177E+00
RMM:   3    -0.188477395101E+03    0.63872E-02   -0.57207E-03  2010   0.234E-01    0.999E-01
RMM:   4    -0.188475903006E+03    0.14921E-02   -0.11060E-03  1990   0.951E-02    0.541E-01
RMM:   5    -0.188476436010E+03   -0.53300E-03   -0.12198E-03  1959   0.104E-01    0.626E-01
RMM:   6    -0.188475706025E+03    0.72998E-03   -0.70810E-04  1818   0.846E-02    0.288E-01
RMM:   7    -0.188475586228E+03    0.11980E-03   -0.24167E-04  1232   0.502E-02    0.146E-01
RMM:   8    -0.188475734621E+03   -0.14839E-03   -0.19617E-04  1109   0.430E-02    0.243E-01
RMM:   9    -0.188475642730E+03    0.91891E-04   -0.15576E-04  1082   0.450E-02
  44 F= -.18847564E+03 E0= -.18849230E+03  d E =-.408387E-02  mag=    26.3394
quench:  g(F)=  0.000E+00 g(S)=  0.000E+00 dE (1.order)= 0.000E+00
 bond charge predicted
       N       E                     dE             d eps       ncg     rms          rms(c)
DAV:   1    -0.188478379601E+03   -0.26450E-02   -0.59075E-01  1992   0.143E+00    0.249E-01
RMM:   2    -0.188485490785E+03   -0.71112E-02   -0.22885E-02  2158   0.292E-01    0.153E+00
RMM:   3    -0.188481382988E+03    0.41078E-02   -0.28963E-03  2002   0.154E-01    0.914E-01
RMM:   4    -0.188480708566E+03    0.67442E-03   -0.14907E-03  1986   0.114E-01    0.662E-01
RMM:   5    -0.188480368351E+03    0.34021E-03   -0.86728E-04  1866   0.911E-02    0.420E-01
RMM:   6    -0.188479987267E+03    0.38108E-03   -0.42120E-04  1607   0.668E-02    0.172E-01
RMM:   7    -0.188480133846E+03   -0.14658E-03   -0.23930E-04  1220   0.475E-02    0.248E-01
RMM:   8    -0.188480125167E+03    0.86792E-05   -0.16708E-04  1110   0.455E-02
  45 F= -.18848013E+03 E0= -.18849682E+03  d E =-.448244E-02  mag=    26.3322
quench:  g(F)=  0.000E+00 g(S)=  0.000E+00 dE (1.order)= 0.000E+00
 bond charge predicted
       N       E                     dE             d eps       ncg     rms          rms(c)
DAV:   1    -0.188482518878E+03   -0.23850E-02   -0.74841E-01  1992   0.161E+00    0.266E-01
RMM:   2    -0.188488326770E+03   -0.58079E-02   -0.27801E-02  2240   0.313E-01    0.126E+00
RMM:   3    -0.188486214261E+03    0.21125E-02   -0.27756E-03  2006   0.146E-01    0.956E-01
RMM:   4    -0.188485691277E+03    0.52298E-03   -0.20430E-03  2002   0.133E-01    0.738E-01
RMM:   5    -0.188485279002E+03    0.41227E-03   -0.13333E-03  1951   0.113E-01    0.555E-01
RMM:   6    -0.188484549038E+03    0.72996E-03   -0.69348E-04  1774   0.828E-02    0.155E-01
RMM:   7    -0.188484841294E+03   -0.29226E-03   -0.28793E-04  1351   0.516E-02    0.330E-01
RMM:   8    -0.188484730472E+03    0.11082E-03   -0.22138E-04  1190   0.510E-02    0.209E-01
RMM:   9    -0.188484682403E+03    0.48069E-04   -0.13081E-04  1080   0.392E-02
  46 F= -.18848468E+03 E0= -.18850130E+03  d E =-.455724E-02  mag=    26.3229
quench:  g(F)=  0.000E+00 g(S)=  0.000E+00 dE (1.order)= 0.000E+00
 bond charge predicted
       N       E                     dE             d eps       ncg     rms          rms(c)
DAV:   1    -0.188486754220E+03   -0.20237E-02   -0.89854E-01  1992   0.176E+00    0.316E-01
RMM:   2    -0.188495666648E+03   -0.89124E-02   -0.36818E-02  2054   0.399E-01    0.161E+00
RMM:   3    -0.188489585416E+03    0.60812E-02   -0.60892E-03  2008   0.235E-01    0.656E-01
RMM:   4    -0.188493216418E+03   -0.36310E-02   -0.20381E-03  2017   0.130E-01    0.139E+00
RMM:   5    -0.188490496720E+03    0.27197E-02   -0.17684E-03  1977   0.124E-01    0.805E-01
RMM:   6    -0.188489260988E+03    0.12357E-02   -0.13119E-03  1960   0.114E-01    0.319E-01
RMM:   7    -0.188489194417E+03    0.66571E-04   -0.35104E-04  1492   0.573E-02
  47 F= -.18848919E+03 E0= -.18850576E+03  d E =-.451201E-02  mag=    26.3155
quench:  g(F)=  0.000E+00 g(S)=  0.000E+00 dE (1.order)= 0.000E+00
 bond charge predicted
       N       E                     dE             d eps       ncg     rms          rms(c)
DAV:   1    -0.188490579713E+03   -0.13187E-02   -0.10510E+00  1992   0.190E+00    0.428E-01
RMM:   2    -0.188517346678E+03   -0.26767E-01   -0.52583E-02  2034   0.545E-01    0.319E+00
RMM:   3    -0.188493111888E+03    0.24235E-01   -0.15688E-02  2009   0.392E-01    0.706E-01
RMM:   4    -0.188496990031E+03   -0.38781E-02   -0.25080E-03  2020   0.143E-01    0.133E+00
RMM:   5    -0.188496060958E+03    0.92907E-03   -0.22477E-03  1978   0.140E-01    0.116E+00
RMM:   6    -0.188493529296E+03    0.25317E-02   -0.16961E-03  1973   0.130E-01    0.408E-01
RMM:   7    -0.188493354779E+03    0.17452E-03   -0.62292E-04  1777   0.760E-02    0.227E-01
RMM:   8    -0.188493771571E+03   -0.41679E-03   -0.50174E-04  1690   0.664E-02    0.406E-01
RMM:   9    -0.188493443041E+03    0.32853E-03   -0.36552E-04  1501   0.647E-02    0.148E-01
RMM:  10    -0.188493490300E+03   -0.47259E-04   -0.15506E-04  1085   0.400E-02
  48 F= -.18849349E+03 E0= -.18850992E+03  d E =-.429588E-02  mag=    26.3028
quench:  g(F)=  0.000E+00 g(S)=  0.000E+00 dE (1.order)= 0.000E+00
 bond charge predicted
       N       E                     dE             d eps       ncg     rms          rms(c)
DAV:   1    -0.188493803971E+03   -0.36093E-03   -0.97288E-01  1992   0.177E+00    0.322E-01
RMM:   2    -0.188504851652E+03   -0.11048E-01   -0.41111E-02  2035   0.391E-01    0.187E+00
RMM:   3    -0.188498806182E+03    0.60455E-02   -0.47615E-03  2018   0.199E-01    0.117E+00
RMM:   4    -0.188497756086E+03    0.10501E-02   -0.26344E-03  2020   0.150E-01    0.848E-01
RMM:   5    -0.188497673596E+03    0.82490E-04   -0.18549E-03  1984   0.127E-01    0.754E-01
RMM:   6    -0.188496433439E+03    0.12402E-02   -0.11878E-03  1967   0.108E-01    0.232E-01
RMM:   7    -0.188496960147E+03   -0.52671E-03   -0.63083E-04  1800   0.756E-02    0.444E-01
RMM:   8    -0.188496574431E+03    0.38572E-03   -0.37650E-04  1511   0.641E-02    0.176E-01
RMM:   9    -0.188496582874E+03   -0.84433E-05   -0.19066E-04  1117   0.452E-02
  49 F= -.18849658E+03 E0= -.18851306E+03  d E =-.309257E-02  mag=    26.2917
quench:  g(F)=  0.000E+00 g(S)=  0.000E+00 dE (1.order)= 0.000E+00
 bond charge predicted
       N       E                     dE             d eps       ncg     rms          rms(c)
DAV:   1    -0.188497603281E+03   -0.10288E-02   -0.34530E-01  2049   0.994E-01    0.294E-01
RMM:   2    -0.188509758740E+03   -0.12155E-01   -0.25051E-02  2020   0.371E-01    0.213E+00
RMM:   3    -0.188498956988E+03    0.10802E-01   -0.76201E-03  2014   0.274E-01    0.634E-01
RMM:   4    -0.188500379842E+03   -0.14229E-02   -0.15001E-03  2005   0.112E-01    0.921E-01
RMM:   5    -0.188499048950E+03    0.13309E-02   -0.85203E-04  1936   0.836E-02    0.504E-01
RMM:   6    -0.188498674826E+03    0.37412E-03   -0.73784E-04  1895   0.818E-02    0.292E-01
RMM:   7    -0.188498595956E+03    0.78870E-04   -0.34358E-04  1468   0.581E-02
  50 F= -.18849860E+03 E0= -.18851502E+03  d E =-.201308E-02  mag=    26.2856
quench:  g(F)=  0.000E+00 g(S)=  0.000E+00 dE (1.order)= 0.000E+00
 bond charge predicted
       N       E                     dE             d eps       ncg     rms          rms(c)
DAV:   1    -0.188499633243E+03   -0.95842E-03   -0.66754E-02  2052   0.542E-01    0.330E-01
RMM:   2    -0.188525417791E+03   -0.25785E-01   -0.21995E-02  2008   0.447E-01    0.325E+00
RMM:   3    -0.188502422293E+03    0.22995E-01   -0.13795E-02  2003   0.369E-01    0.128E+00
RMM:   4    -0.188499806696E+03    0.26156E-02   -0.14082E-03  1970   0.108E-01    0.441E-01
RMM:   5    -0.188499653618E+03    0.15308E-03   -0.45786E-04  1680   0.639E-02    0.170E-01
RMM:   6    -0.188499792587E+03   -0.13897E-03   -0.22081E-04  1152   0.469E-02    0.265E-01
RMM:   7    -0.188499647028E+03    0.14556E-03   -0.15751E-04  1077   0.454E-02    0.106E-01
RMM:   8    -0.188499651235E+03   -0.42067E-05   -0.49087E-05  1057   0.229E-02
  51 F= -.18849965E+03 E0= -.18851602E+03  d E =-.105528E-02  mag=    26.2804
quench:  g(F)=  0.000E+00 g(S)=  0.000E+00 dE (1.order)= 0.000E+00
 bond charge predicted
       N       E                     dE             d eps       ncg     rms          rms(c)
DAV:   1    -0.188500478737E+03   -0.83171E-03   -0.98664E-02  2010   0.576E-01    0.133E-01
RMM:   2    -0.188503010357E+03   -0.25316E-02   -0.50955E-03  2021   0.173E-01    0.953E-01
RMM:   3    -0.188500708458E+03    0.23019E-02   -0.14951E-03  1985   0.122E-01    0.192E-01
RMM:   4    -0.188500896660E+03   -0.18820E-03   -0.30489E-04  1393   0.524E-02    0.282E-01
RMM:   5    -0.188501200403E+03   -0.30374E-03   -0.18123E-04  1139   0.439E-02    0.454E-01
RMM:   6    -0.188500790396E+03    0.41001E-03   -0.11872E-04  1128   0.380E-02    0.164E-01
RMM:   7    -0.188500762111E+03    0.28285E-04   -0.66528E-05  1085   0.274E-02
  52 F= -.18850076E+03 E0= -.18851716E+03  d E =-.111088E-02  mag=    26.2760
quench:  g(F)=  0.000E+00 g(S)=  0.000E+00 dE (1.order)= 0.000E+00
 bond charge predicted
       N       E                     dE             d eps       ncg     rms          rms(c)
DAV:   1    -0.188501667801E+03   -0.87740E-03   -0.14759E-01  1992   0.707E-01    0.180E-01
RMM:   2    -0.188507061512E+03   -0.53937E-02   -0.85874E-03  2017   0.235E-01    0.145E+00
RMM:   3    -0.188502541634E+03    0.45199E-02   -0.30222E-03  2009   0.172E-01    0.583E-01
RMM:   4    -0.188502182172E+03    0.35946E-03   -0.38499E-04  1572   0.578E-02    0.336E-01
RMM:   5    -0.188502239248E+03   -0.57076E-04   -0.41579E-04  1635   0.613E-02
  53 F= -.18850224E+03 E0= -.18851858E+03  d E =-.147714E-02  mag=    26.2729
quench:  g(F)=  0.000E+00 g(S)=  0.000E+00 dE (1.order)= 0.000E+00
 bond charge predicted
       N       E                     dE             d eps       ncg     rms          rms(c)
DAV:   1    -0.188503005115E+03   -0.82294E-03   -0.20359E-01  1992   0.867E-01    0.264E-01
RMM:   2    -0.188517458569E+03   -0.14453E-01   -0.16321E-02  2016   0.351E-01    0.250E+00
RMM:   3    -0.188503981571E+03    0.13477E-01   -0.72215E-03  2016   0.268E-01    0.756E-01
RMM:   4    -0.188503999526E+03   -0.17956E-04   -0.91117E-04  1942   0.883E-02
  54 F= -.18850400E+03 E0= -.18851992E+03  d E =-.176028E-02  mag=    26.2706
quench:  g(F)=  0.000E+00 g(S)=  0.000E+00 dE (1.order)= 0.000E+00
 bond charge predicted
       N       E                     dE             d eps       ncg     rms          rms(c)
DAV:   1    -0.188504418055E+03   -0.43648E-03   -0.26799E-01  1992   0.106E+00    0.359E-01
RMM:   2    -0.188553043127E+03   -0.48625E-01   -0.27524E-02  2016   0.474E-01    0.448E+00
RMM:   3    -0.188510325013E+03    0.42718E-01   -0.12449E-02  2015   0.346E-01    0.186E+00
RMM:   4    -0.188505075803E+03    0.52492E-02   -0.41498E-03  1992   0.195E-01    0.499E-01
RMM:   5    -0.188505226311E+03   -0.15051E-03   -0.11449E-03  1949   0.980E-02    0.391E-01
RMM:   6    -0.188505581799E+03   -0.35549E-03   -0.75467E-04  1839   0.836E-02    0.458E-01
RMM:   7    -0.188505031405E+03    0.55039E-03   -0.53997E-04  1726   0.761E-02    0.110E-01
RMM:   8    -0.188505250269E+03   -0.21886E-03   -0.20243E-04  1147   0.439E-02    0.271E-01
RMM:   9    -0.188505183526E+03    0.66743E-04   -0.16932E-04  1105   0.466E-02
  55 F= -.18850518E+03 E0= -.18852150E+03  d E =-.118400E-02  mag=    26.2622
quench:  g(F)=  0.000E+00 g(S)=  0.000E+00 dE (1.order)= 0.000E+00
 bond charge predicted
       N       E                     dE             d eps       ncg     rms          rms(c)
DAV:   1    -0.188506033932E+03   -0.78366E-03   -0.33537E-01  1992   0.105E+00    0.180E-01
RMM:   2    -0.188513297004E+03   -0.72631E-02   -0.13055E-02  2113   0.226E-01    0.167E+00
RMM:   3    -0.188506930641E+03    0.63664E-02   -0.17235E-03  1989   0.121E-01    0.412E-01
RMM:   4    -0.188507384616E+03   -0.45397E-03   -0.85938E-04  1862   0.873E-02    0.487E-01
RMM:   5    -0.188507285729E+03    0.98887E-04   -0.52338E-04  1659   0.712E-02
  56 F= -.18850729E+03 E0= -.18852363E+03  d E =-.210220E-02  mag=    26.2585
quench:  g(F)=  0.000E+00 g(S)=  0.000E+00 dE (1.order)= 0.000E+00
 bond charge predicted
       N       E                     dE             d eps       ncg     rms          rms(c)
DAV:   1    -0.188507735471E+03   -0.35085E-03   -0.41165E-01  1992   0.119E+00    0.220E-01
RMM:   2    -0.188512429334E+03   -0.46939E-02   -0.16304E-02  2119   0.259E-01    0.119E+00
RMM:   3    -0.188510171619E+03    0.22577E-02   -0.22340E-03  2001   0.138E-01    0.836E-01
RMM:   4    -0.188509335827E+03    0.83579E-03   -0.10173E-03  1957   0.935E-02    0.533E-01
RMM:   5    -0.188509607634E+03   -0.27181E-03   -0.89877E-04  1904   0.914E-02    0.532E-01
RMM:   6    -0.188508982439E+03    0.62519E-03   -0.56285E-04  1733   0.764E-02    0.194E-01
RMM:   7    -0.188509047701E+03   -0.65261E-04   -0.23137E-04  1186   0.469E-02
  57 F= -.18850905E+03 E0= -.18852524E+03  d E =-.176197E-02  mag=    26.2518
quench:  g(F)=  0.000E+00 g(S)=  0.000E+00 dE (1.order)= 0.000E+00
 bond charge predicted
       N       E                     dE             d eps       ncg     rms          rms(c)
DAV:   1    -0.188509822923E+03   -0.84048E-03   -0.48021E-01  1992   0.125E+00    0.290E-01
RMM:   2    -0.188524573143E+03   -0.14750E-01   -0.24820E-02  2019   0.385E-01    0.239E+00
RMM:   3    -0.188514416039E+03    0.10157E-01   -0.68567E-03  2021   0.256E-01    0.136E+00
RMM:   4    -0.188511049156E+03    0.33669E-02   -0.17863E-03  2001   0.124E-01    0.437E-01
RMM:   5    -0.188511787735E+03   -0.73858E-03   -0.11938E-03  1953   0.103E-01    0.591E-01
RMM:   6    -0.188511265152E+03    0.52258E-03   -0.66677E-04  1794   0.816E-02    0.338E-01
RMM:   7    -0.188511047992E+03    0.21716E-03   -0.30480E-04  1394   0.564E-02    0.132E-01
RMM:   8    -0.188511225929E+03   -0.17794E-03   -0.20294E-04  1104   0.438E-02    0.252E-01
RMM:   9    -0.188511125348E+03    0.10058E-03   -0.15527E-04  1090   0.453E-02    0.946E-02
RMM:  10    -0.188511137468E+03   -0.12121E-04   -0.57160E-05  1071   0.251E-02
  58 F= -.18851114E+03 E0= -.18852739E+03  d E =-.208977E-02  mag=    26.2429
quench:  g(F)=  0.000E+00 g(S)=  0.000E+00 dE (1.order)= 0.000E+00
 bond charge predicted
       N       E                     dE             d eps       ncg     rms          rms(c)
DAV:   1    -0.188511681945E+03   -0.55660E-03   -0.55522E-01  1992   0.132E+00    0.227E-01
RMM:   2    -0.188516138252E+03   -0.44563E-02   -0.21013E-02  2203   0.281E-01    0.114E+00
RMM:   3    -0.188513319022E+03    0.28192E-02   -0.28753E-03  2010   0.157E-01    0.414E-01
RMM:   4    -0.188516538582E+03   -0.32196E-02   -0.12152E-03  1962   0.101E-01    0.123E+00
RMM:   5    -0.188513817005E+03    0.27216E-02   -0.89454E-04  1902   0.904E-02    0.558E-01
RMM:   6    -0.188513242523E+03    0.57448E-03   -0.62130E-04  1777   0.785E-02    0.122E-01
RMM:   7    -0.188513403821E+03   -0.16130E-03   -0.22610E-04  1177   0.462E-02    0.233E-01
RMM:   8    -0.188513374424E+03    0.29397E-04   -0.15993E-04  1095   0.452E-02
  59 F= -.18851337E+03 E0= -.18852958E+03  d E =-.223696E-02  mag=    26.2367
quench:  g(F)=  0.000E+00 g(S)=  0.000E+00 dE (1.order)= 0.000E+00
 bond charge predicted
       N       E                     dE             d eps       ncg     rms          rms(c)
DAV:   1    -0.188513629202E+03   -0.22538E-03   -0.44991E-01  1992   0.115E+00    0.219E-01
RMM:   2    -0.188520825905E+03   -0.71967E-02   -0.18940E-02  2054   0.257E-01    0.161E+00
RMM:   3    -0.188515244886E+03    0.55810E-02   -0.21448E-03  2006   0.134E-01    0.604E-01
RMM:   4    -0.188515593635E+03   -0.34875E-03   -0.12904E-03  1990   0.105E-01    0.642E-01
RMM:   5    -0.188515188544E+03    0.40509E-03   -0.84779E-04  1891   0.851E-02    0.415E-01
RMM:   6    -0.188514832177E+03    0.35637E-03   -0.54921E-04  1706   0.737E-02    0.167E-01
RMM:   7    -0.188515137057E+03   -0.30488E-03   -0.39181E-04  1546   0.602E-02    0.333E-01
RMM:   8    -0.188514899112E+03    0.23794E-03   -0.25338E-04  1247   0.557E-02    0.162E-01
RMM:   9    -0.188514887513E+03    0.11599E-04   -0.94908E-05  1083   0.316E-02
  60 F= -.18851489E+03 E0= -.18853109E+03  d E =-.151309E-02  mag=    26.2305
quench:  g(F)=  0.000E+00 g(S)=  0.000E+00 dE (1.order)= 0.000E+00
 bond charge predicted
       N       E                     dE             d eps       ncg     rms          rms(c)
DAV:   1    -0.188515815013E+03   -0.91590E-03   -0.81580E-02  2076   0.475E-01    0.175E-01
RMM:   2    -0.188521718198E+03   -0.59032E-02   -0.78908E-03  2013   0.231E-01    0.155E+00
RMM:   3    -0.188516438696E+03    0.52795E-02   -0.31279E-03  1996   0.177E-01    0.538E-01
RMM:   4    -0.188516233427E+03    0.20527E-03   -0.35840E-04  1497   0.562E-02    0.335E-01
RMM:   5    -0.188516179485E+03    0.53942E-04   -0.31007E-04  1392   0.535E-02
  61 F= -.18851618E+03 E0= -.18853233E+03  d E =-.129197E-02  mag=    26.2286
quench:  g(F)=  0.000E+00 g(S)=  0.000E+00 dE (1.order)= 0.000E+00
 bond charge predicted
       N       E                     dE             d eps       ncg     rms          rms(c)
DAV:   1    -0.188516658380E+03   -0.42495E-03   -0.59304E-02  2031   0.489E-01    0.181E-01
RMM:   2    -0.188523663039E+03   -0.70047E-02   -0.69883E-03  2011   0.242E-01    0.171E+00
RMM:   3    -0.188516746985E+03    0.69161E-02   -0.38178E-03  1989   0.196E-01    0.359E-01
RMM:   4    -0.188516969327E+03   -0.22234E-03   -0.34466E-04  1484   0.554E-02    0.328E-01
RMM:   5    -0.188516844921E+03    0.12441E-03   -0.15114E-04  1127   0.374E-02    0.212E-01
RMM:   6    -0.188516914574E+03   -0.69652E-04   -0.16427E-04  1124   0.417E-02
  62 F= -.18851691E+03 E0= -.18853322E+03  d E =-.735088E-03  mag=    26.2263
quench:  g(F)=  0.000E+00 g(S)=  0.000E+00 dE (1.order)= 0.000E+00
 bond charge predicted
       N       E                     dE             d eps       ncg     rms          rms(c)
DAV:   1    -0.188517457868E+03   -0.61295E-03   -0.86162E-02  1992   0.556E-01    0.956E-02
RMM:   2    -0.188518381828E+03   -0.92396E-03   -0.32697E-03  2101   0.115E-01    0.540E-01
RMM:   3    -0.188517852790E+03    0.52904E-03   -0.34454E-04  1343   0.554E-02    0.305E-01
RMM:   4    -0.188517867950E+03   -0.15160E-04   -0.23263E-04  1188   0.481E-02
  63 F= -.18851787E+03 E0= -.18853401E+03  d E =-.953376E-03  mag=    26.2247
quench:  g(F)=  0.000E+00 g(S)=  0.000E+00 dE (1.order)= 0.000E+00
 bond charge predicted
       N       E                     dE             d eps       ncg     rms          rms(c)
DAV:   1    -0.188518577128E+03   -0.72434E-03   -0.11866E-01  1992   0.667E-01    0.274E-01
RMM:   2    -0.188536513911E+03   -0.17937E-01   -0.15596E-02  2010   0.361E-01    0.290E+00
RMM:   3    -0.188519705767E+03    0.16808E-01   -0.87793E-03  2012   0.293E-01    0.885E-01
RMM:   4    -0.188519197529E+03    0.50824E-03   -0.10279E-03  1953   0.942E-02    0.516E-01
RMM:   5    -0.188518786765E+03    0.41076E-03   -0.44309E-04  1657   0.627E-02    0.177E-01
RMM:   6    -0.188518970603E+03   -0.18384E-03   -0.24650E-04  1224   0.505E-02    0.264E-01
RMM:   7    -0.188518790323E+03    0.18028E-03   -0.18377E-04  1084   0.492E-02    0.819E-02
RMM:   8    -0.188518838365E+03   -0.48042E-04   -0.58837E-05  1057   0.241E-02
  64 F= -.18851884E+03 E0= -.18853499E+03  d E =-.970416E-03  mag=    26.2212
quench:  g(F)=  0.000E+00 g(S)=  0.000E+00 dE (1.order)= 0.000E+00
 bond charge predicted
       N       E                     dE             d eps       ncg     rms          rms(c)
DAV:   1    -0.188519706264E+03   -0.91594E-03   -0.15418E-01  1998   0.707E-01    0.172E-01
RMM:   2    -0.188526493940E+03   -0.67877E-02   -0.84030E-03  2022   0.230E-01    0.166E+00
RMM:   3    -0.188521267182E+03    0.52268E-02   -0.25663E-03  1999   0.159E-01    0.807E-01
RMM:   4    -0.188520114282E+03    0.11529E-02   -0.68882E-04  1807   0.784E-02    0.277E-01
RMM:   5    -0.188520266016E+03   -0.15173E-03   -0.37167E-04  1529   0.583E-02    0.295E-01
RMM:   6    -0.188520145035E+03    0.12098E-03   -0.19306E-04  1117   0.486E-02    0.158E-01
RMM:   7    -0.188520091287E+03    0.53748E-04   -0.78883E-05  1055   0.313E-02
  65 F= -.18852009E+03 E0= -.18853621E+03  d E =-.125292E-02  mag=    26.2188
quench:  g(F)=  0.000E+00 g(S)=  0.000E+00 dE (1.order)= 0.000E+00
 bond charge predicted
       N       E                     dE             d eps       ncg     rms          rms(c)
DAV:   1    -0.188521068382E+03   -0.92335E-03   -0.19532E-01  1992   0.789E-01    0.194E-01
RMM:   2    -0.188527354621E+03   -0.62862E-02   -0.10304E-02  2016   0.253E-01    0.158E+00
RMM:   3    -0.188521652255E+03    0.57024E-02   -0.34765E-03  2005   0.185E-01    0.441E-01
RMM:   4    -0.188522018121E+03   -0.36587E-03   -0.54365E-04  1754   0.683E-02    0.508E-01
RMM:   5    -0.188521775698E+03    0.24242E-03   -0.36823E-04  1549   0.573E-02    0.335E-01
RMM:   6    -0.188521616263E+03    0.15943E-03   -0.25199E-04  1227   0.547E-02    0.181E-01
RMM:   7    -0.188521555292E+03    0.60971E-04   -0.10023E-04  1063   0.349E-02
  66 F= -.18852156E+03 E0= -.18853771E+03  d E =-.146401E-02  mag=    26.2165
quench:  g(F)=  0.000E+00 g(S)=  0.000E+00 dE (1.order)= 0.000E+00
 bond charge predicted
       N       E                     dE             d eps       ncg     rms          rms(c)
DAV:   1    -0.188522612429E+03   -0.99617E-03   -0.24153E-01  1992   0.874E-01    0.217E-01
RMM:   2    -0.188530510956E+03   -0.78985E-02   -0.12747E-02  2020   0.281E-01    0.177E+00
RMM:   3    -0.188523407989E+03    0.71030E-02   -0.44065E-03  2007   0.209E-01    0.524E-01
RMM:   4    -0.188523712420E+03   -0.30443E-03   -0.60405E-04  1778   0.714E-02    0.539E-01
RMM:   5    -0.188523535420E+03    0.17700E-03   -0.52324E-04  1775   0.682E-02    0.390E-01
RMM:   6    -0.188523320297E+03    0.21512E-03   -0.32969E-04  1422   0.607E-02    0.241E-01
RMM:   7    -0.188523223143E+03    0.97155E-04   -0.12903E-04  1076   0.382E-02
  67 F= -.18852322E+03 E0= -.18853936E+03  d E =-.166785E-02  mag=    26.2145
quench:  g(F)=  0.000E+00 g(S)=  0.000E+00 dE (1.order)= 0.000E+00
 bond charge predicted
       N       E                     dE             d eps       ncg     rms          rms(c)
DAV:   1    -0.188524352365E+03   -0.10321E-02   -0.29098E-01  1992   0.958E-01    0.216E-01
RMM:   2    -0.188529635423E+03   -0.52831E-02   -0.13657E-02  2025   0.281E-01    0.127E+00
RMM:   3    -0.188525531907E+03    0.41035E-02   -0.39670E-03  2017   0.197E-01    0.589E-01
RMM:   4    -0.188525568743E+03   -0.36835E-04   -0.66590E-04  1839   0.740E-02
  68 F= -.18852557E+03 E0= -.18854212E+03  d E =-.234560E-02  mag=    26.2134
quench:  g(F)=  0.000E+00 g(S)=  0.000E+00 dE (1.order)= 0.000E+00
 bond charge predicted
       N       E                     dE             d eps       ncg     rms          rms(c)
DAV:   1    -0.188526593583E+03   -0.10617E-02   -0.34453E-01  1992   0.116E+00    0.513E-01
RMM:   2    -0.188645764014E+03   -0.11917E+00   -0.52685E-02  2006   0.671E-01    0.706E+00
RMM:   3    -0.188538724501E+03    0.10704E+00   -0.29505E-02  2014   0.533E-01    0.266E+00
RMM:   4    -0.188526777000E+03    0.11948E-01   -0.71088E-03  2002   0.254E-01    0.559E-01
RMM:   5    -0.188527337081E+03   -0.56008E-03   -0.21111E-03  1974   0.134E-01    0.410E-01
RMM:   6    -0.188527808950E+03   -0.47187E-03   -0.92692E-04  1869   0.935E-02    0.572E-01
RMM:   7    -0.188527070880E+03    0.73807E-03   -0.53454E-04  1709   0.749E-02    0.136E-01
[...]
RMM:   2    -0.188935687212E+03   -0.17979E-02   -0.17714E-03  1997   0.123E-01    0.882E-01
RMM:   3    -0.188933872589E+03    0.18146E-02   -0.98416E-04  1862   0.992E-02    0.195E-01
RMM:   4    -0.188933903082E+03   -0.30494E-04   -0.13177E-04  1092   0.353E-02
 582 F= -.18893390E+03 E0= -.18895135E+03  d E =-.731695E-04  mag=    26.7149
quench:  g(F)=  0.000E+00 g(S)=  0.000E+00 dE (1.order)= 0.000E+00
 bond charge predicted
       N       E                     dE             d eps       ncg     rms          rms(c)
DAV:   1    -0.188934001673E+03   -0.12908E-03   -0.15287E-02  2064   0.250E-01    0.158E-01
RMM:   2    -0.188962081962E+03   -0.28080E-01   -0.50317E-03  1998   0.204E-01    0.357E+00
RMM:   3    -0.188932497019E+03    0.29585E-01   -0.40511E-03  1965   0.196E-01    0.188E-01
RMM:   4    -0.188933982329E+03   -0.14853E-02   -0.55162E-04  1749   0.731E-02    0.160E-01
RMM:   5    -0.188934149420E+03   -0.16709E-03   -0.16282E-04  1150   0.412E-02    0.264E-01
RMM:   6    -0.188933993784E+03    0.15564E-03   -0.11349E-04  1089   0.391E-02    0.643E-02
RMM:   7    -0.188933998423E+03   -0.46385E-05   -0.14028E-05  1054   0.121E-02
 583 F= -.18893400E+03 E0= -.18895137E+03  d E =-.953404E-04  mag=    26.7148
quench:  g(F)=  0.000E+00 g(S)=  0.000E+00 dE (1.order)= 0.000E+00
 bond charge predicted
       N       E                     dE             d eps       ncg     rms          rms(c)
DAV:   1    -0.188934066821E+03   -0.73036E-04   -0.17947E-02  1992   0.238E-01    0.674E-02
RMM:   2    -0.188935618882E+03   -0.15521E-02   -0.11181E-03  1943   0.869E-02    0.808E-01
RMM:   3    -0.188934270327E+03    0.13486E-02   -0.40209E-04  1574   0.635E-02    0.345E-01
RMM:   4    -0.188934090155E+03    0.18017E-03   -0.13735E-04  1143   0.367E-02    0.789E-02
RMM:   5    -0.188934124370E+03   -0.34215E-04   -0.61268E-05  1059   0.244E-02
 584 F= -.18893412E+03 E0= -.18895151E+03  d E =-.125947E-03  mag=    26.7149
quench:  g(F)=  0.000E+00 g(S)=  0.000E+00 dE (1.order)= 0.000E+00
 bond charge predicted
       N       E                     dE             d eps       ncg     rms          rms(c)
DAV:   1    -0.188934174416E+03   -0.84261E-04   -0.20723E-02  2001   0.274E-01    0.922E-02
RMM:   2    -0.188936206492E+03   -0.20321E-02   -0.18998E-03  1996   0.123E-01    0.944E-01
RMM:   3    -0.188934398759E+03    0.18077E-02   -0.91627E-04  1870   0.955E-02    0.369E-01
RMM:   4    -0.188934238869E+03    0.15989E-03   -0.12281E-04  1143   0.345E-02    0.151E-01
RMM:   5    -0.188934224304E+03    0.14566E-04   -0.71312E-05  1077   0.258E-02
 585 F= -.18893422E+03 E0= -.18895166E+03  d E =-.999332E-04  mag=    26.7149
quench:  g(F)=  0.000E+00 g(S)=  0.000E+00 dE (1.order)= 0.000E+00
 bond charge predicted
       N       E                     dE             d eps       ncg     rms          rms(c)
DAV:   1    -0.188934296315E+03   -0.57446E-04   -0.21242E-02  1992   0.279E-01    0.122E-01
RMM:   2    -0.188937518162E+03   -0.32218E-02   -0.31476E-03  1999   0.164E-01    0.113E+00
RMM:   3    -0.188934436670E+03    0.30815E-02   -0.17949E-03  1950   0.135E-01    0.338E-01
RMM:   4    -0.188934379089E+03    0.57581E-04   -0.14262E-04  1143   0.359E-02
 586 F= -.18893438E+03 E0= -.18895159E+03  d E =-.154785E-03  mag=    26.7150
quench:  g(F)=  0.000E+00 g(S)=  0.000E+00 dE (1.order)= 0.000E+00
 bond charge predicted
       N       E                     dE             d eps       ncg     rms          rms(c)
DAV:   1    -0.188934377457E+03    0.59213E-04   -0.18453E-02  2262   0.294E-01    0.114E-01
RMM:   2    -0.188941428382E+03   -0.70509E-02   -0.26483E-03  2001   0.150E-01    0.177E+00
RMM:   3    -0.188934551691E+03    0.68767E-02   -0.14744E-03  1939   0.119E-01    0.538E-01
RMM:   4    -0.188934400846E+03    0.15084E-03   -0.41417E-04  1570   0.618E-02    0.143E-01
RMM:   5    -0.188934440385E+03   -0.39539E-04   -0.11553E-04  1094   0.331E-02
 587 F= -.18893444E+03 E0= -.18895177E+03  d E =-.612963E-04  mag=    26.7150
quench:  g(F)=  0.000E+00 g(S)=  0.000E+00 dE (1.order)= 0.000E+00
 bond charge predicted
       N       E                     dE             d eps       ncg     rms          rms(c)
DAV:   1    -0.188934494464E+03   -0.93618E-04   -0.11223E-02  2316   0.229E-01    0.115E-01
RMM:   2    -0.188937355584E+03   -0.28611E-02   -0.28068E-03  1998   0.159E-01    0.102E+00
RMM:   3    -0.188934855254E+03    0.25003E-02   -0.16064E-03  1955   0.128E-01    0.470E-01
RMM:   4    -0.188934516834E+03    0.33842E-03   -0.15551E-04  1148   0.380E-02    0.145E-01
RMM:   5    -0.188934508593E+03    0.82409E-05   -0.74020E-05  1086   0.263E-02
 588 F= -.18893451E+03 E0= -.18895192E+03  d E =-.682076E-04  mag=    26.7150
quench:  g(F)=  0.000E+00 g(S)=  0.000E+00 dE (1.order)= 0.000E+00
 bond charge predicted
       N       E                     dE             d eps       ncg     rms          rms(c)
DAV:   1    -0.188934585048E+03   -0.68215E-04   -0.82026E-03  2148   0.194E-01    0.125E-01
RMM:   2    -0.188938720521E+03   -0.41355E-02   -0.29828E-03  1992   0.165E-01    0.137E+00
RMM:   3    -0.188934687391E+03    0.40331E-02   -0.19597E-03  1943   0.140E-01    0.388E-01
RMM:   4    -0.188934650537E+03    0.36854E-04   -0.17879E-04  1162   0.408E-02
 589 F= -.18893465E+03 E0= -.18895191E+03  d E =-.141944E-03  mag=    26.7150
quench:  g(F)=  0.000E+00 g(S)=  0.000E+00 dE (1.order)= 0.000E+00
 bond charge predicted
       N       E                     dE             d eps       ncg     rms          rms(c)
DAV:   1    -0.188934623432E+03    0.63959E-04   -0.82092E-03  2445   0.225E-01    0.677E-02
RMM:   2    -0.188935986536E+03   -0.13631E-02   -0.91965E-04  1951   0.901E-02    0.736E-01
RMM:   3    -0.188934899199E+03    0.10873E-02   -0.42826E-04  1620   0.654E-02    0.390E-01
RMM:   4    -0.188934638393E+03    0.26081E-03   -0.12462E-04  1146   0.351E-02    0.689E-02
RMM:   5    -0.188934672691E+03   -0.34298E-04   -0.46516E-05  1065   0.211E-02
 590 F= -.18893467E+03 E0= -.18895204E+03  d E =-.221541E-04  mag=    26.7151
quench:  g(F)=  0.000E+00 g(S)=  0.000E+00 dE (1.order)= 0.000E+00
 bond charge predicted
       N       E                     dE             d eps       ncg     rms          rms(c)
DAV:   1    -0.188934710867E+03   -0.72474E-04   -0.91625E-03  2019   0.195E-01    0.709E-02
RMM:   2    -0.188935711416E+03   -0.10005E-02   -0.10950E-03  1986   0.967E-02    0.617E-01
RMM:   3    -0.188934955631E+03    0.75578E-03   -0.51025E-04  1713   0.721E-02    0.357E-01
RMM:   4    -0.188934739455E+03    0.21618E-03   -0.10021E-04  1119   0.310E-02    0.122E-01
RMM:   5    -0.188934728060E+03    0.11395E-04   -0.41449E-05  1073   0.195E-02
 591 F= -.18893473E+03 E0= -.18895214E+03  d E =-.553695E-04  mag=    26.7151
quench:  g(F)=  0.000E+00 g(S)=  0.000E+00 dE (1.order)= 0.000E+00
 bond charge predicted
       N       E                     dE             d eps       ncg     rms          rms(c)
DAV:   1    -0.188934805310E+03   -0.65855E-04   -0.10462E-02  1992   0.201E-01    0.969E-02
RMM:   2    -0.188936928867E+03   -0.21236E-02   -0.18856E-03  1992   0.129E-01    0.901E-01
RMM:   3    -0.188934938347E+03    0.19905E-02   -0.11418E-03  1925   0.108E-01    0.318E-01
RMM:   4    -0.188934827250E+03    0.11110E-03   -0.88836E-05  1131   0.285E-02    0.123E-01
RMM:   5    -0.188934823336E+03    0.39146E-05   -0.46774E-05  1081   0.211E-02
 592 F= -.18893482E+03 E0= -.18895221E+03  d E =-.952752E-04  mag=    26.7152
quench:  g(F)=  0.000E+00 g(S)=  0.000E+00 dE (1.order)= 0.000E+00
 bond charge predicted
       N       E                     dE             d eps       ncg     rms          rms(c)
DAV:   1    -0.188934886977E+03   -0.59727E-04   -0.12114E-02  2001   0.221E-01    0.953E-02
RMM:   2    -0.188936844678E+03   -0.19577E-02   -0.19009E-03  1993   0.129E-01    0.879E-01
RMM:   3    -0.188935251712E+03    0.15930E-02   -0.99260E-04  1896   0.100E-01    0.453E-01
RMM:   4    -0.188934935626E+03    0.31609E-03   -0.16799E-04  1150   0.399E-02    0.177E-01
RMM:   5    -0.188934898168E+03    0.37458E-04   -0.71320E-05  1084   0.255E-02
 593 F= -.18893490E+03 E0= -.18895233E+03  d E =-.748326E-04  mag=    26.7151
quench:  g(F)=  0.000E+00 g(S)=  0.000E+00 dE (1.order)= 0.000E+00
 bond charge predicted
       N       E                     dE             d eps       ncg     rms          rms(c)
DAV:   1    -0.188934982637E+03   -0.47011E-04   -0.12738E-02  2010   0.227E-01    0.117E-01
RMM:   2    -0.188938167381E+03   -0.31847E-02   -0.27164E-03  1998   0.155E-01    0.111E+00
RMM:   3    -0.188935230444E+03    0.29369E-02   -0.16725E-03  1946   0.130E-01    0.418E-01
RMM:   4    -0.188935004231E+03    0.22621E-03   -0.13776E-04  1144   0.356E-02    0.143E-01
RMM:   5    -0.188935000699E+03    0.35316E-05   -0.67806E-05  1082   0.254E-02
 594 F= -.18893500E+03 E0= -.18895239E+03  d E =-.102531E-03  mag=    26.7152
quench:  g(F)=  0.000E+00 g(S)=  0.000E+00 dE (1.order)= 0.000E+00
 bond charge predicted
       N       E                     dE             d eps       ncg     rms          rms(c)
DAV:   1    -0.188935061421E+03   -0.57190E-04   -0.12258E-02  2037   0.230E-01    0.108E-01
RMM:   2    -0.188937539725E+03   -0.24783E-02   -0.24209E-03  1994   0.147E-01    0.989E-01
RMM:   3    -0.188935461510E+03    0.20782E-02   -0.13178E-03  1943   0.115E-01    0.481E-01
RMM:   4    -0.188935125847E+03    0.33566E-03   -0.19758E-04  1160   0.431E-02    0.204E-01
RMM:   5    -0.188935068555E+03    0.57292E-04   -0.83567E-05  1088   0.275E-02
 595 F= -.18893507E+03 E0= -.18895250E+03  d E =-.678564E-04  mag=    26.7152
quench:  g(F)=  0.000E+00 g(S)=  0.000E+00 dE (1.order)= 0.000E+00
 bond charge predicted
       N       E                     dE             d eps       ncg     rms          rms(c)
DAV:   1    -0.188935147728E+03   -0.21881E-04   -0.94168E-03  2163   0.204E-01    0.120E-01
RMM:   2    -0.188938618929E+03   -0.34712E-02   -0.28564E-03  1993   0.161E-01    0.116E+00
RMM:   3    -0.188935399760E+03    0.32192E-02   -0.18044E-03  1943   0.136E-01    0.431E-01
RMM:   4    -0.188935163597E+03    0.23616E-03   -0.14648E-04  1147   0.367E-02    0.146E-01
RMM:   5    -0.188935156731E+03    0.68657E-05   -0.67532E-05  1088   0.253E-02
 596 F= -.18893516E+03 E0= -.18895254E+03  d E =-.881755E-04  mag=    26.7152
quench:  g(F)=  0.000E+00 g(S)=  0.000E+00 dE (1.order)= 0.000E+00
 bond charge predicted
       N       E                     dE             d eps       ncg     rms          rms(c)
DAV:   1    -0.188935210375E+03   -0.46778E-04   -0.70488E-03  2223   0.187E-01    0.992E-02
RMM:   2    -0.188937315900E+03   -0.21055E-02   -0.20254E-03  1992   0.137E-01    0.911E-01
RMM:   3    -0.188935515757E+03    0.18001E-02   -0.11441E-03  1924   0.108E-01    0.428E-01
RMM:   4    -0.188935261557E+03    0.25420E-03   -0.16266E-04  1143   0.390E-02    0.190E-01
RMM:   5    -0.188935207529E+03    0.54028E-04   -0.66137E-05  1084   0.244E-02
 597 F= -.18893521E+03 E0= -.18895264E+03  d E =-.507983E-04  mag=    26.7152
quench:  g(F)=  0.000E+00 g(S)=  0.000E+00 dE (1.order)= 0.000E+00
 bond charge predicted
       N       E                     dE             d eps       ncg     rms          rms(c)
DAV:   1    -0.188935275756E+03   -0.14199E-04   -0.60605E-03  2151   0.168E-01    0.998E-02
RMM:   2    -0.188937703943E+03   -0.24282E-02   -0.19383E-03  1990   0.133E-01    0.980E-01
RMM:   3    -0.188935439626E+03    0.22643E-02   -0.12465E-03  1924   0.113E-01    0.356E-01
RMM:   4    -0.188935286398E+03    0.15323E-03   -0.10272E-04  1139   0.308E-02    0.123E-01
RMM:   5    -0.188935279340E+03    0.70578E-05   -0.46319E-05  1081   0.209E-02
 598 F= -.18893528E+03 E0= -.18895267E+03  d E =-.718110E-04  mag=    26.7152
quench:  g(F)=  0.000E+00 g(S)=  0.000E+00 dE (1.order)= 0.000E+00
 bond charge predicted
       N       E                     dE             d eps       ncg     rms          rms(c)
DAV:   1    -0.188935333818E+03   -0.47419E-04   -0.66755E-03  2049   0.174E-01    0.841E-02
RMM:   2    -0.188936806993E+03   -0.14732E-02   -0.14440E-03  1992   0.115E-01    0.761E-01
RMM:   3    -0.188935556793E+03    0.12502E-02   -0.80060E-04  1847   0.904E-02    0.363E-01
RMM:   4    -0.188935373214E+03    0.18358E-03   -0.11901E-04  1129   0.334E-02    0.162E-01
RMM:   5    -0.188935334521E+03    0.38693E-04   -0.49126E-05  1076   0.211E-02
 599 F= -.18893533E+03 E0= -.18895277E+03  d E =-.551808E-04  mag=    26.7152
quench:  g(F)=  0.000E+00 g(S)=  0.000E+00 dE (1.order)= 0.000E+00
 bond charge predicted
       N       E                     dE             d eps       ncg     rms          rms(c)
DAV:   1    -0.188935405135E+03   -0.31921E-04   -0.75672E-03  2001   0.178E-01    0.959E-02
RMM:   2    -0.188937619925E+03   -0.22148E-02   -0.17884E-03  1988   0.127E-01    0.941E-01
RMM:   3    -0.188935540240E+03    0.20797E-02   -0.11386E-03  1921   0.108E-01    0.329E-01
RMM:   4    -0.188935420629E+03    0.11961E-03   -0.92300E-05  1134   0.293E-02    0.121E-01
RMM:   5    -0.188935414008E+03    0.66205E-05   -0.44106E-05  1080   0.205E-02
 600 F= -.18893541E+03 E0= -.18895281E+03  d E =-.794870E-04  mag=    26.7153
quench:  g(F)=  0.000E+00 g(S)=  0.000E+00 dE (1.order)= 0.000E+00
 bond charge predicted
       N       E                     dE             d eps       ncg     rms          rms(c)
DAV:   1    -0.188935473563E+03   -0.52935E-04   -0.87613E-03  2019   0.194E-01    0.880E-02
RMM:   2    -0.188937062514E+03   -0.15890E-02   -0.15963E-03  1992   0.120E-01    0.792E-01
RMM:   3    -0.188935702454E+03    0.13601E-02   -0.86983E-04  1867   0.942E-02    0.368E-01
RMM:   4    -0.188935522352E+03    0.18010E-03   -0.12678E-04  1133   0.345E-02    0.171E-01
RMM:   5    -0.188935478117E+03    0.44235E-04   -0.54402E-05  1077   0.222E-02
 601 F= -.18893548E+03 E0= -.18895291E+03  d E =-.641087E-04  mag=    26.7152
quench:  g(F)=  0.000E+00 g(S)=  0.000E+00 dE (1.order)= 0.000E+00
 bond charge predicted
       N       E                     dE             d eps       ncg     rms          rms(c)
DAV:   1    -0.188935554528E+03   -0.32177E-04   -0.93748E-03  2010   0.198E-01    0.107E-01
RMM:   2    -0.188938328252E+03   -0.27737E-02   -0.22384E-03  1992   0.142E-01    0.106E+00
RMM:   3    -0.188935678658E+03    0.26496E-02   -0.14353E-03  1935   0.121E-01    0.337E-01
RMM:   4    -0.188935577846E+03    0.10081E-03   -0.10670E-04  1140   0.314E-02    0.137E-01
RMM:   5    -0.188935566739E+03    0.11107E-04   -0.53096E-05  1084   0.224E-02
 602 F= -.18893557E+03 E0= -.18895296E+03  d E =-.886220E-04  mag=    26.7153
quench:  g(F)=  0.000E+00 g(S)=  0.000E+00 dE (1.order)= 0.000E+00
 bond charge predicted
       N       E                     dE             d eps       ncg     rms          rms(c)
DAV:   1    -0.188935623996E+03   -0.46150E-04   -0.95550E-03  2037   0.206E-01    0.976E-02
RMM:   2    -0.188937599465E+03   -0.19755E-02   -0.19567E-03  1993   0.133E-01    0.890E-01
RMM:   3    -0.188935865757E+03    0.17337E-02   -0.10898E-03  1919   0.105E-01    0.386E-01
RMM:   4    -0.188935686338E+03    0.17942E-03   -0.14778E-04  1141   0.371E-02    0.192E-01
RMM:   5    -0.188935627367E+03    0.58971E-04   -0.63758E-05  1083   0.240E-02
 603 F= -.18893563E+03 E0= -.18895306E+03  d E =-.606283E-04  mag=    26.7152
quench:  g(F)=  0.000E+00 g(S)=  0.000E+00 dE (1.order)= 0.000E+00
 bond charge predicted
       N       E                     dE             d eps       ncg     rms          rms(c)
DAV:   1    -0.188935703725E+03   -0.17388E-04   -0.81924E-03  2088   0.190E-01    0.115E-01
RMM:   2    -0.188938935466E+03   -0.32317E-02   -0.25392E-03  1992   0.152E-01    0.116E+00
RMM:   3    -0.188935777155E+03    0.31583E-02   -0.16756E-03  1940   0.131E-01    0.318E-01
RMM:   4    -0.188935729796E+03    0.47359E-04   -0.11156E-04  1141   0.319E-02
 604 F= -.18893573E+03 E0= -.18895304E+03  d E =-.102429E-03  mag=    26.7153
quench:  g(F)=  0.000E+00 g(S)=  0.000E+00 dE (1.order)= 0.000E+00
 bond charge predicted
       N       E                     dE             d eps       ncg     rms          rms(c)
DAV:   1    -0.188935751533E+03    0.25622E-04   -0.69360E-03  2418   0.202E-01    0.958E-02
RMM:   2    -0.188940792264E+03   -0.50407E-02   -0.17433E-03  1984   0.125E-01    0.150E+00
RMM:   3    -0.188935898433E+03    0.48938E-02   -0.11064E-03  1902   0.104E-01    0.481E-01
RMM:   4    -0.188935734250E+03    0.16418E-03   -0.26390E-04  1318   0.504E-02    0.911E-02
RMM:   5    -0.188935780959E+03   -0.46709E-04   -0.70553E-05  1086   0.260E-02
 605 F= -.18893578E+03 E0= -.18895310E+03  d E =-.511636E-04  mag=    26.7153
quench:  g(F)=  0.000E+00 g(S)=  0.000E+00 dE (1.order)= 0.000E+00
 bond charge predicted
       N       E                     dE             d eps       ncg     rms          rms(c)
DAV:   1    -0.188935807564E+03   -0.73314E-04   -0.55081E-03  2301   0.170E-01    0.712E-02
RMM:   2    -0.188936605283E+03   -0.79772E-03   -0.11213E-03  1987   0.100E-01    0.516E-01
RMM:   3    -0.188935850400E+03    0.75488E-03   -0.59598E-04  1793   0.789E-02    0.180E-01
RMM:   4    -0.188935832615E+03    0.17785E-04   -0.62807E-05  1082   0.239E-02
 606 F= -.18893583E+03 E0= -.18895339E+03  d E =-.516558E-04  mag=    26.7153
quench:  g(F)=  0.000E+00 g(S)=  0.000E+00 dE (1.order)= 0.000E+00
 bond charge predicted
       N       E                     dE             d eps       ncg     rms          rms(c)
DAV:   1    -0.188935866287E+03   -0.15887E-04   -0.56152E-03  2271   0.166E-01    0.725E-02
RMM:   2    -0.188940417801E+03   -0.45515E-02   -0.10158E-03  1955   0.934E-02    0.143E+00
RMM:   3    -0.188935694351E+03    0.47235E-02   -0.72767E-04  1816   0.841E-02    0.205E-01
RMM:   4    -0.188935871944E+03   -0.17759E-03   -0.12372E-04  1154   0.357E-02    0.896E-02
RMM:   5    -0.188935896406E+03   -0.24462E-04   -0.61356E-05  1077   0.246E-02
 607 F= -.18893590E+03 E0= -.18895330E+03  d E =-.637909E-04  mag=    26.7153
quench:  g(F)=  0.000E+00 g(S)=  0.000E+00 dE (1.order)= 0.000E+00
 bond charge predicted
       N       E                     dE             d eps       ncg     rms          rms(c)
DAV:   1    -0.188935922605E+03   -0.50661E-04   -0.57127E-03  2058   0.163E-01    0.570E-02
RMM:   2    -0.188936650463E+03   -0.72786E-03   -0.67258E-04  1817   0.746E-02    0.566E-01
RMM:   3    -0.188935953036E+03    0.69743E-03   -0.35981E-04  1491   0.627E-02    0.177E-01
RMM:   4    -0.188935939773E+03    0.13263E-04   -0.38275E-05  1092   0.189E-02
 608 F= -.18893594E+03 E0= -.18895344E+03  d E =-.433665E-04  mag=    26.7152
quench:  g(F)=  0.000E+00 g(S)=  0.000E+00 dE (1.order)= 0.000E+00
 bond charge predicted
       N       E                     dE             d eps       ncg     rms          rms(c)
DAV:   1    -0.188935988500E+03   -0.35463E-04   -0.62148E-03  2031   0.167E-01    0.814E-02
RMM:   2    -0.188937531369E+03   -0.15429E-02   -0.12645E-03  1981   0.106E-01    0.847E-01
RMM:   3    -0.188935960489E+03    0.15709E-02   -0.79381E-04  1806   0.891E-02    0.172E-01
RMM:   4    -0.188936029104E+03   -0.68615E-04   -0.79681E-05  1100   0.274E-02
 609 F= -.18893603E+03 E0= -.18895355E+03  d E =-.893316E-04  mag=    26.7153
quench:  g(F)=  0.000E+00 g(S)=  0.000E+00 dE (1.order)= 0.000E+00
 bond charge predicted
       N       E                     dE             d eps       ncg     rms          rms(c)
DAV:   1    -0.188936039160E+03   -0.78671E-04   -0.63766E-03  2397   0.184E-01    0.740E-02
RMM:   2    -0.188939796908E+03   -0.37577E-02   -0.10744E-03  1975   0.969E-02    0.131E+00
RMM:   3    -0.188935991068E+03    0.38058E-02   -0.65891E-04  1788   0.802E-02    0.254E-01
RMM:   4    -0.188936045584E+03   -0.54516E-04   -0.15769E-04  1159   0.401E-02
 610 F= -.18893605E+03 E0= -.18895347E+03  d E =-.164796E-04  mag=    26.7153
quench:  g(F)=  0.000E+00 g(S)=  0.000E+00 dE (1.order)= 0.000E+00
 reached required accuracy - stopping structural energy minimisation
