 vasp.5.4.4.18Apr17-6-g9f103f2a35 (build Feb 06 2024 13:54:16) complex          
  
 POSCAR found type information on POSCAR  Cu Rh Cu N  O 
 05/POSCAR found :  5 types and      40 ions
 scaLAPACK will be used

 ----------------------------------------------------------------------------- 
|                                                                             |
|  ADVICE TO THIS USER RUNNING 'VASP/VAMP'   (HEAR YOUR MASTER'S VOICE ...):  |
|                                                                             |
|      You enforced a specific xc-type in the INCAR file,                     |
|      a different type was found on the POTCAR file                          |
|          I HOPE YOU KNOW, WHAT YOU ARE  DOING                               |
|                                                                             |
 ----------------------------------------------------------------------------- 

 LDA part: xc-table for Pade appr. of Perdew
 POSCAR found type information on POSCAR  Cu Rh Cu N  O 
 00/POSCAR found :  5 types and      40 ions
 POSCAR found type information on POSCAR  Cu Rh Cu N  O 
 06/POSCAR found :  5 types and      40 ions
 Jacobian:    20.5888137679208     
 POSCAR, INCAR and KPOINTS ok, starting setup
 FFT: planning ...
 WAVECAR not read
 entering main loop
       N       E                     dE             d eps       ncg     rms          rms(c)
  Solvation turned off during non-self-consistent phase (first NELMDL steps)
DAV:   1     0.437431916319E+04    0.43743E+04   -0.18129E+05  4080   0.203E+03
DAV:   2     0.632581764159E+03   -0.37417E+04   -0.36134E+04  4098   0.474E+02
DAV:   3    -0.290039944775E+02   -0.66159E+03   -0.61064E+03  4857   0.235E+02
DAV:   4    -0.151398514508E+03   -0.12239E+03   -0.10827E+03  7053   0.947E+01
DAV:   5    -0.164501730866E+03   -0.13103E+02   -0.12491E+02  6378   0.322E+01    0.446E+01
 Begin Solvation calculations
  rms_SCF =    7.31003494376010      tol =   0.731003494376010     
 Begin minimization
 Creating dielectric and ionic cavities
  area:      157.588463917670     
  volume:    675.553757033222     
  Acav:     8.273394355677696E-002
  Solving linear dielectric/ionic screening model
        iter                  A_solv                     rms
   LPB:       -0.366678028464694E+03   0.235501697126948E+03
   LPB:    0  -0.121000968205377E+02   0.473262553385587E+02  -0.463404E+01   0.000000E+00   0.330234E+02  -0.153032E+03
   LPB:    1  -0.212431231384062E+01   0.743079813564792E+01   0.101549E-01   0.000000E+00   0.842411E+02   0.552133E-14
   LPB:    2  -0.774774924322060E+00   0.111895749274868E+01   0.140929E-01   0.974793E-01   0.349428E+03  -0.761029E-14
   LPB:    3  -0.481583003021797E+00   0.138499843001092E+01   0.270935E-01   0.113007E+00   0.599673E+03  -0.202408E-13
   LPB:    4  -0.388791150564430E+00   0.113652025793903E+01   0.247584E-01   0.346338E+00   0.888902E+02  -0.225979E-13
   LPB:    5  -0.343058325655363E+00   0.708962926991495E+00   0.228700E-01   0.533549E+00   0.451017E+03  -0.102617E-13
  Finished solving LPB equations
  A_corr:   -0.260324382098586     
 End minimization
 Ecorr=   1830.25837663577     
 A_corr= -0.260324382098586     
 Ecorr_band=  -1830.51870101786     
 End Solvation calculations
RMM:   6    -0.170855320297E+03   -0.63536E+01   -0.36428E+02  4155   0.940E+01    0.434E+01
 Begin Solvation calculations
  rms_SCF =    7.31003494376010      tol =   0.731003494376010     
 Begin minimization
 Creating dielectric and ionic cavities
  area:      170.106833698946     
  volume:    689.707617332810     
  Acav:     8.930608769194658E-002
  Solving linear dielectric/ionic screening model
        iter                  A_solv                     rms
   LPB:       -0.209965960203381E+02   0.797750347981271E+02
   LPB:    0  -0.200776491161680E+02   0.781497798209089E+02   0.238318E+00   0.000000E+00   0.323598E+02   0.771193E+01
   LPB:    1  -0.190051998753633E+01   0.714733542320989E+01   0.896200E-02   0.000000E+00   0.738822E+02  -0.158554E-15
   LPB:    2  -0.523105142008927E+00   0.148913955075359E+01   0.155421E-01   0.436953E-01   0.150591E+03   0.337718E-13
   LPB:    3  -0.331861404803810E+00   0.945056107667193E+00   0.237158E-01   0.909900E-01   0.178921E+03   0.355445E-13
   LPB:    4  -0.276606282238138E+00   0.908161513231654E+00   0.228988E-01   0.299234E+00   0.274155E+03   0.354873E-13
   LPB:    5  -0.250044971005480E+00   0.411402549949152E+00   0.241647E-01   0.455520E+00   0.109933E+03   0.423290E-13
  Finished solving LPB equations
  A_corr:   -0.160738883313533     
 End minimization
 Ecorr=   1745.98118390507     
 A_corr= -0.160738883313533     
 Ecorr_band=  -1746.14192278839     
 End Solvation calculations
RMM:   7    -0.157058728780E+03    0.13797E+02   -0.11820E+02  4225   0.463E+01    0.306E+01
 Begin Solvation calculations
  rms_SCF =    7.31003494376010      tol =   0.731003494376010     
 Begin minimization
 Creating dielectric and ionic cavities
  area:      151.800594573018     
  volume:    691.036056394058     
  Acav:     7.969531215083425E-002
  Solving linear dielectric/ionic screening model
        iter                  A_solv                     rms
   LPB:       -0.511361714066159E+01   0.387267666362148E+02
   LPB:    0  -0.510589682567270E+01   0.387263341352316E+02   0.218649E-01   0.000000E+00   0.322975E+02   0.706183E+00
   LPB:    1  -0.646329955702358E+00   0.366005737804423E+01   0.901842E-02   0.000000E+00   0.731113E+02  -0.339350E-16
   LPB:    2  -0.281161051963326E+00   0.538337988232628E+00   0.157406E-01   0.469149E-01   0.145896E+03   0.139497E-14
   LPB:    3  -0.228176065070488E+00   0.236767543280658E+00   0.240129E-01   0.951118E-01   0.330923E+03   0.350704E-15
   LPB:    4  -0.214829678286254E+00   0.177758068183827E+00   0.270791E-01   0.223368E+00   0.325656E+03   0.215960E-15
  Finished solving LPB equations
  A_corr:   -0.135134366135420     
 End minimization
 Ecorr=   1720.71212406427     
 A_corr= -0.135134366135420     
 Ecorr_band=  -1720.84725843041     
 End Solvation calculations
RMM:   8    -0.143317803645E+03    0.13741E+02   -0.74955E+00  4167   0.113E+01    0.207E+01
 Begin Solvation calculations
  rms_SCF =    5.51811819675753      tol =   0.551811819675753     
 Begin minimization
 Creating dielectric and ionic cavities
  area:      158.565611534835     
  volume:    691.402880870475     
  Acav:     8.324694605578840E-002
  Solving linear dielectric/ionic screening model
        iter                  A_solv                     rms
   LPB:       -0.872423524502935E+00   0.138747213523627E+02
   LPB:    0  -0.870699154914904E+00   0.139104289367326E+02   0.103362E-01   0.000000E+00   0.322803E+02   0.333656E+00
   LPB:    1  -0.294675946498875E+00   0.141389223410034E+01   0.899997E-02   0.000000E+00   0.729815E+02  -0.133048E-16
   LPB:    2  -0.237657642293129E+00   0.279075104744503E+00   0.176827E-01   0.503809E-01   0.113694E+03   0.198861E-14
   LPB:    3  -0.226433048199637E+00   0.208833621330372E+00   0.246592E-01   0.141165E+00   0.265086E+03   0.112894E-14
   LPB:    4  -0.220923198952221E+00   0.147857006124011E+00   0.356862E-01   0.339193E+00   0.749647E+02   0.752207E-15
  Finished solving LPB equations
  A_corr:   -0.137676252896432     
 End minimization
 Ecorr=   1688.28709578385     
 A_corr= -0.137676252896432     
 Ecorr_band=  -1688.42477203675     
 End Solvation calculations
RMM:   9    -0.140076499779E+03    0.32413E+01   -0.72407E+00  4177   0.106E+01    0.126E+01
 Begin Solvation calculations
  rms_SCF =    5.51811819675753      tol =   0.551811819675753     
 Begin minimization
 Creating dielectric and ionic cavities
  area:      151.132618805311     
  volume:    691.682522152219     
  Acav:     7.934462487278834E-002
  Solving linear dielectric/ionic screening model
        iter                  A_solv                     rms
   LPB:       -0.209869363054053E+01   0.233906623328703E+02
   LPB:    0  -0.204860237526394E+01   0.232739394202567E+02   0.557205E-01   0.000000E+00   0.322672E+02   0.179795E+01
   LPB:    1  -0.429060800820578E+00   0.219874115266391E+01   0.900752E-02   0.000000E+00   0.736860E+02   0.426825E-16
   LPB:    2  -0.292177828758893E+00   0.371290428439572E+00   0.162948E-01   0.467213E-01   0.141353E+03   0.926909E-15
   LPB:    3  -0.268547054381511E+00   0.170965667491416E+00   0.245866E-01   0.114414E+00   0.321729E+03  -0.303640E-14
   LPB:    4  -0.260518607367810E+00   0.181401595316303E+00   0.306547E-01   0.272493E+00   0.310917E+03  -0.226079E-14
  Finished solving LPB equations
  A_corr:   -0.181173982495022     
 End minimization
 Ecorr=   1652.08105626006     
 A_corr= -0.181173982495022     
 Ecorr_band=  -1652.26223024255     
 End Solvation calculations
RMM:  10    -0.137206828930E+03    0.28697E+01   -0.59604E+00  4188   0.756E+00    0.103E+01
 Begin Solvation calculations
  rms_SCF =    2.19301368619695      tol =   0.219301368619695     
 Begin minimization
 Creating dielectric and ionic cavities
  area:      146.308588355550     
  volume:    688.127473856641     
  Acav:     7.681200888666383E-002
  Solving linear dielectric/ionic screening model
        iter                  A_solv                     rms
   LPB:       -0.421118691354044E+00   0.494085697531552E+01
   LPB:    0  -0.415994174700902E+00   0.460648440736500E+01  -0.177763E-01   0.000000E+00   0.324339E+02  -0.576555E+00
   LPB:    1  -0.312603138343718E+00   0.897809256876258E+00   0.109652E-01   0.000000E+00   0.758299E+02  -0.513246E-16
   LPB:    2  -0.296812282065345E+00   0.188598271592438E+00   0.144407E-01   0.115972E+00   0.254481E+03   0.102833E-13
   LPB:    3  -0.289711189975946E+00   0.350163777191793E+00   0.363191E-01   0.178802E+00   0.237610E+03   0.104467E-13
   LPB:    4  -0.284895110552289E+00   0.316100604997005E+00   0.276893E-01   0.889594E+00   0.469897E+02   0.106413E-13
   LPB:    5  -0.280714281728486E+00   0.176551460205811E+00   0.295860E-01   0.812445E+00   0.192868E+03   0.128345E-13
  Finished solving LPB equations
  A_corr:   -0.203902272841822     
 End minimization
 Ecorr=   1629.62869264480     
 A_corr= -0.203902272841822     
 Ecorr_band=  -1629.83259491765     
 End Solvation calculations
RMM:  11    -0.136320174035E+03    0.88665E+00   -0.79482E-01  4227   0.293E+00    0.551E+00
 Begin Solvation calculations
  rms_SCF =   0.723568890950043      tol =   7.235688909500433E-002
 Begin minimization
 Creating dielectric and ionic cavities
  area:      144.210888874167     
  volume:    685.309440516077     
  Acav:     7.571071665893787E-002
  Solving linear dielectric/ionic screening model
        iter                  A_solv                     rms
   LPB:       -0.316467252618881E+00   0.101871555594850E+01
   LPB:    0  -0.316327420091574E+00   0.904351714947651E+00  -0.293047E-02   0.000000E+00   0.325660E+02  -0.954336E-01
   LPB:    1  -0.296092320009399E+00   0.338658475071784E+00   0.154287E-01   0.000000E+00   0.149329E+03   0.108068E-17
   LPB:    2  -0.293591010204793E+00   0.209799251990835E+00   0.154399E-01   0.123523E+00   0.237519E+03  -0.872044E-15
   LPB:    3  -0.291951454779233E+00   0.230085268376784E+00   0.343175E-01   0.294909E+00   0.738342E+02  -0.217204E-14
   LPB:    4  -0.290246720607735E+00   0.261097240779163E+00   0.338301E-01   0.105473E+01   0.737056E+02  -0.494127E-14
   LPB:    5  -0.288435118891893E+00   0.135709602400373E+00   0.254445E-01   0.141291E+01   0.122140E+03  -0.833503E-14
   LPB:    6  -0.287068773483939E+00   0.463173067461507E-01   0.335725E-01   0.571619E+00   0.508839E+02  -0.117045E-13
  Finished solving LPB equations
  A_corr:   -0.211358056825001     
 End minimization
 Ecorr=   1610.79131893926     
 A_corr= -0.211358056825001     
 Ecorr_band=  -1611.00267699608     
 End Solvation calculations
RMM:  12    -0.136299473856E+03    0.20700E-01   -0.50379E-01  4181   0.198E+00    0.330E+00
 Begin Solvation calculations
  rms_SCF =   0.723568890950043      tol =   7.235688909500433E-002
 Begin minimization
 Creating dielectric and ionic cavities
  area:      143.332343579551     
  volume:    680.977442372929     
  Acav:     7.524948037926422E-002
  Solving linear dielectric/ionic screening model
        iter                  A_solv                     rms
   LPB:       -0.361933683923998E+00   0.172262059723613E+01
   LPB:    0  -0.361359683490836E+00   0.150045526357765E+01  -0.591887E-02   0.000000E+00   0.327691E+02  -0.193956E+00
   LPB:    1  -0.319604422725106E+00   0.593854783276097E+00   0.145904E-01   0.000000E+00   0.129287E+03   0.434646E-17
   LPB:    2  -0.314046001999533E+00   0.202511025195316E+00   0.156362E-01   0.124216E+00   0.173889E+03   0.770926E-15
   LPB:    3  -0.312456302419680E+00   0.116712448608894E+00   0.209573E-01   0.213383E+00   0.223321E+03   0.817795E-15
   LPB:    4  -0.311794605124671E+00   0.165067721962153E+00   0.239163E-01   0.364742E+00   0.133627E+03   0.194324E-15
   LPB:    5  -0.311208358617593E+00   0.113105589784943E+00   0.255493E-01   0.829347E+00   0.172178E+03  -0.802615E-17
   LPB:    6  -0.310589387481384E+00   0.424900213364534E-01   0.384911E-01   0.700823E+00   0.706513E+02  -0.413500E-15
  Finished solving LPB equations
  A_corr:   -0.235339907102119     
 End minimization
 Ecorr=   1598.03282682858     
 A_corr= -0.235339907102119     
 Ecorr_band=  -1598.26816673568     
 End Solvation calculations
RMM:  13    -0.136365447744E+03   -0.65974E-01   -0.23287E-01  4176   0.179E+00    0.328E+00
 Begin Solvation calculations
  rms_SCF =   0.723568890950043      tol =   7.235688909500433E-002
 Begin minimization
 Creating dielectric and ionic cavities
  area:      141.202597183557     
  volume:    676.385929070914     
  Acav:     7.413136352136764E-002
  Solving linear dielectric/ionic screening model
        iter                  A_solv                     rms
   LPB:       -0.469331645321123E+00   0.257512580404705E+01
   LPB:    0  -0.466598111452207E+00   0.278389406755584E+01   0.128743E-01   0.000000E+00   0.329843E+02   0.424650E+00
   LPB:    1  -0.377668958354595E+00   0.125501976427551E+01   0.132268E-01   0.000000E+00   0.117604E+03  -0.931379E-17
   LPB:    2  -0.363994577967845E+00   0.255031837251459E+00   0.133736E-01   0.152079E+00   0.156596E+03   0.187262E-14
   LPB:    3  -0.359776672551364E+00   0.171882148850987E+00   0.221409E-01   0.186312E+00   0.331308E+03   0.210643E-14
   LPB:    4  -0.358087640670538E+00   0.175266508807695E+00   0.263577E-01   0.336380E+00   0.106399E+03   0.215321E-14
   LPB:    5  -0.356778218912229E+00   0.150305274078136E+00   0.283382E-01   0.721067E+00   0.276801E+03   0.119459E-14
   LPB:    6  -0.355669335784490E+00   0.617118260977460E-01   0.340720E-01   0.704338E+00   0.703062E+02   0.395142E-15
  Finished solving LPB equations
  A_corr:   -0.281537972263122     
 End minimization
 Ecorr=   1573.02639602647     
 A_corr= -0.281537972263122     
 Ecorr_band=  -1573.30793399874     
 End Solvation calculations
RMM:  14    -0.136212510702E+03    0.15294E+00   -0.15187E-01  4167   0.170E+00    0.220E+00
 Begin Solvation calculations
  rms_SCF =   0.470198641543466      tol =   4.701986415434656E-002
 Begin minimization
 Creating dielectric and ionic cavities
  area:      140.114798990527     
  volume:    673.752338779741     
  Acav:     7.356026947002660E-002
  Solving linear dielectric/ionic screening model
        iter                  A_solv                     rms
   LPB:       -0.427836550533340E+00   0.132764821375392E+01
   LPB:    0  -0.425733370774827E+00   0.151090255271148E+01   0.112717E-01   0.000000E+00   0.331078E+02   0.373180E+00
   LPB:    1  -0.394700495069829E+00   0.777280376441066E+00   0.135735E-01   0.000000E+00   0.128202E+03   0.241576E-17
   LPB:    2  -0.389651208945102E+00   0.174535426973292E+00   0.137192E-01   0.160979E+00   0.131861E+03   0.138346E-14
   LPB:    3  -0.387983289958986E+00   0.116088812895808E+00   0.219360E-01   0.206594E+00   0.303499E+03   0.160849E-14
   LPB:    4  -0.386938872310801E+00   0.148279573209707E+00   0.331643E-01   0.414178E+00   0.851565E+02   0.165567E-14
   LPB:    5  -0.385822490132524E+00   0.149533789815010E+00   0.325333E-01   0.108964E+01   0.213696E+03   0.634477E-15
   LPB:    6  -0.384822554965927E+00   0.629180461264277E-01   0.322663E-01   0.903103E+00   0.547382E+02  -0.935877E-15
   LPB:    7  -0.384192970152103E+00   0.326064093329910E-01   0.318575E-01   0.637706E+00   0.204080E+03  -0.195131E-14
  Finished solving LPB equations
  A_corr:   -0.310632700682076     
 End minimization
 Ecorr=   1551.44016287260     
 A_corr= -0.310632700682076     
 Ecorr_band=  -1551.75079557328     
 End Solvation calculations
RMM:  15    -0.136160966387E+03    0.51544E-01   -0.87430E-02  4226   0.998E-01    0.119E+00
 Begin Solvation calculations
  rms_SCF =   0.334684498744728      tol =   3.346844987447284E-002
 Begin minimization
 Creating dielectric and ionic cavities
  area:      139.803121940007     
  volume:    673.053224538780     
  Acav:     7.339663901850374E-002
  Solving linear dielectric/ionic screening model
        iter                  A_solv                     rms
   LPB:       -0.393638530801666E+00   0.234946979243526E+00
   LPB:    0  -0.393424919872981E+00   0.306744943156851E+00   0.359043E-02   0.000000E+00   0.331406E+02   0.118989E+00
   LPB:    1  -0.390885104178823E+00   0.118605173079654E+00   0.162187E-01   0.000000E+00   0.166615E+03  -0.204684E-17
   LPB:    2  -0.390515067649613E+00   0.668077902882240E-01   0.176779E-01   0.133668E+00   0.172565E+03   0.772612E-15
   LPB:    3  -0.390368018016252E+00   0.286340873794743E-01   0.238286E-01   0.294815E+00   0.123333E+03   0.104272E-14
   LPB:    4  -0.390184556738199E+00   0.351670040873109E-01   0.554552E-01   0.536090E+00   0.506907E+03   0.130035E-14
   LPB:    5  -0.389900398688217E+00   0.483164476489935E-01   0.500553E-01   0.171596E+01   0.788385E+02   0.166446E-14
   LPB:    6  -0.389727392418722E+00   0.771062192563079E-01   0.281162E-01   0.108391E+01   0.779870E+02   0.167963E-14
   LPB:    7  -0.389653094502543E+00   0.365977564389310E-01   0.181416E-01   0.665574E+00   0.118277E+03   0.171041E-14
   LPB:    8  -0.389601816836063E+00   0.121460624178179E-01   0.252847E-01   0.495186E+00   0.147907E+03   0.172118E-14
  Finished solving LPB equations
  A_corr:   -0.316205177817560     
 End minimization
 Ecorr=   1543.69215445309     
 A_corr= -0.316205177817560     
 Ecorr_band=  -1544.00835963091     
 End Solvation calculations
RMM:  16    -0.136157416218E+03    0.35502E-02   -0.17087E-02  4490   0.431E-01    0.878E-01
 Begin Solvation calculations
  rms_SCF =   0.334684498744728      tol =   3.346844987447284E-002
 Begin minimization
 Creating dielectric and ionic cavities
  area:      139.725607604472     
  volume:    672.663242438811     
  Acav:     7.335594399234778E-002
  Solving linear dielectric/ionic screening model
        iter                  A_solv                     rms
   LPB:       -0.394438179329534E+00   0.622725088418876E+00
   LPB:    0  -0.394412451807186E+00   0.630031834562306E+00   0.124570E-02   0.000000E+00   0.331589E+02   0.413061E-01
   LPB:    1  -0.391657722028909E+00   0.172218263422053E+00   0.133198E-01   0.000000E+00   0.773114E+02   0.199853E-17
   LPB:    2  -0.391208281517421E+00   0.541402634794038E-01   0.132550E-01   0.163949E+00   0.253976E+03  -0.425182E-15
   LPB:    3  -0.391091585309234E+00   0.265682991187346E-01   0.210110E-01   0.163801E+00   0.189042E+03  -0.453623E-15
   LPB:    4  -0.391046888871869E+00   0.247826562164045E-01   0.244707E-01   0.328865E+00   0.215437E+03  -0.252870E-15
  Finished solving LPB equations
  A_corr:   -0.317690944879521     
 End minimization
 Ecorr=   1541.97571391569     
 A_corr= -0.317690944879521     
 Ecorr_band=  -1542.29340486057     
 End Solvation calculations
RMM:  17    -0.136156764512E+03    0.65171E-03   -0.46320E-03  5340   0.158E-01    0.544E-01
 Begin Solvation calculations
  rms_SCF =   0.258124479388174      tol =   2.581244793881736E-002
 Begin minimization
 Creating dielectric and ionic cavities
  area:      140.010872030669     
  volume:    671.274579942004     
  Acav:     7.350570781610111E-002
  Solving linear dielectric/ionic screening model
        iter                  A_solv                     rms
   LPB:       -0.426554940098967E+00   0.128063951147100E+01
   LPB:    0  -0.426426738667602E+00   0.131565977111153E+01   0.277802E-02   0.000000E+00   0.332240E+02   0.922969E-01
   LPB:    1  -0.404985776351086E+00   0.372047812923472E+00   0.149060E-01   0.000000E+00   0.107004E+03   0.540147E-17
   LPB:    2  -0.402314638229713E+00   0.197835353823775E+00   0.140133E-01   0.132517E+00   0.233696E+03  -0.106747E-14
   LPB:    3  -0.401554609583878E+00   0.976089602157931E-01   0.188101E-01   0.211974E+00   0.119398E+03  -0.630425E-15
   LPB:    4  -0.401219686055947E+00   0.823555734999717E-01   0.230067E-01   0.360291E+00   0.211603E+03  -0.286958E-15
   LPB:    5  -0.401038680582839E+00   0.529327675974263E-01   0.239925E-01   0.518231E+00   0.127078E+03  -0.178833E-15
   LPB:    6  -0.400912825455310E+00   0.202832980491921E-01   0.295988E-01   0.563614E+00   0.132684E+03  -0.740535E-15
  Finished solving LPB equations
  A_corr:   -0.327407117639209     
 End minimization
 Ecorr=   1536.49369881733     
 A_corr= -0.327407117639209     
 Ecorr_band=  -1536.82110593496     
 End Solvation calculations
RMM:  18    -0.136158524561E+03   -0.17600E-02   -0.65232E-03  4159   0.255E-01    0.231E-01
 Begin Solvation calculations
  rms_SCF =   0.155762966209299      tol =   1.557629662092988E-002
 Begin minimization
 Creating dielectric and ionic cavities
  area:      140.265299051628     
  volume:    670.422623460774     
  Acav:     7.363928200210491E-002
  Solving linear dielectric/ionic screening model
        iter                  A_solv                     rms
   LPB:       -0.418486672744801E+00   0.546877283453455E+00
   LPB:    0  -0.418447689437580E+00   0.579926084773840E+00   0.153097E-02   0.000000E+00   0.332639E+02   0.509262E-01
   LPB:    1  -0.411221887146852E+00   0.196445194827876E+00   0.153639E-01   0.000000E+00   0.162958E+03  -0.756013E-18
   LPB:    2  -0.410353391293251E+00   0.870561734006582E-01   0.161250E-01   0.114521E+00   0.150303E+03   0.265184E-15
   LPB:    3  -0.410116488356540E+00   0.452553727577324E-01   0.224187E-01   0.196197E+00   0.108316E+03   0.364302E-15
   LPB:    4  -0.409943035703563E+00   0.308651026112483E-01   0.346624E-01   0.473546E+00   0.207895E+03   0.756852E-15
   LPB:    5  -0.409788991351732E+00   0.441477853108883E-01   0.392251E-01   0.784800E+00   0.136666E+03   0.145920E-14
   LPB:    6  -0.409699077195554E+00   0.631040885885024E-01   0.261280E-01   0.876274E+00   0.838915E+02   0.207582E-14
   LPB:    7  -0.409636042649064E+00   0.293177508488280E-01   0.213067E-01   0.859688E+00   0.199703E+03   0.242766E-14
   LPB:    8  -0.409583293655832E+00   0.114746075932816E-01   0.309008E-01   0.577009E+00   0.206196E+03   0.263667E-14
  Finished solving LPB equations
  A_corr:   -0.335944011653727     
 End minimization
 Ecorr=   1531.45379750673     
 A_corr= -0.335944011653727     
 Ecorr_band=  -1531.78974151839     
 End Solvation calculations
RMM:  19    -0.136159120706E+03   -0.59614E-03   -0.24357E-03  4218   0.171E-01    0.229E-01
 Begin Solvation calculations
  rms_SCF =   0.155762966209299      tol =   1.557629662092988E-002
 Begin minimization
 Creating dielectric and ionic cavities
  area:      140.478436309988     
  volume:    669.879297778501     
  Acav:     7.375117906274382E-002
  Solving linear dielectric/ionic screening model
        iter                  A_solv                     rms
   LPB:       -0.421869099010688E+00   0.542558295441593E+00
   LPB:    0  -0.421868793327152E+00   0.545468149164119E+00   0.135518E-03   0.000000E+00   0.332894E+02   0.451132E-02
   LPB:    1  -0.417079038962339E+00   0.152384537237229E+00   0.151683E-01   0.000000E+00   0.127420E+03   0.282014E-18
   LPB:    2  -0.416506749940116E+00   0.728161356423256E-01   0.154459E-01   0.117335E+00   0.189440E+03  -0.337299E-15
   LPB:    3  -0.416368993874885E+00   0.406012425171505E-01   0.199361E-01   0.186495E+00   0.115248E+03  -0.949839E-15
   LPB:    4  -0.416317332788712E+00   0.376579358449921E-01   0.217904E-01   0.343106E+00   0.272330E+03  -0.664227E-15
   LPB:    5  -0.416286716097342E+00   0.311232182140523E-01   0.237583E-01   0.543556E+00   0.118562E+03  -0.543377E-15
   LPB:    6  -0.416250308291338E+00   0.152991788619118E-01   0.333923E-01   0.846068E+00   0.101355E+03  -0.496425E-15
  Finished solving LPB equations
  A_corr:   -0.342499129228594     
 End minimization
 Ecorr=   1528.58570336128     
 A_corr= -0.342499129228594     
 Ecorr_band=  -1528.92820249051     
 End Solvation calculations
RMM:  20    -0.136159863774E+03   -0.74307E-03   -0.10827E-03  4334   0.772E-02    0.194E-01
 Begin Solvation calculations
  rms_SCF =   0.155762966209299      tol =   1.557629662092988E-002
 Begin minimization
 Creating dielectric and ionic cavities
  area:      140.781898846084     
  volume:    669.300130853164     
  Acav:     7.391049689419411E-002
  Solving linear dielectric/ionic screening model
        iter                  A_solv                     rms
   LPB:       -0.438842463774428E+00   0.899139063116282E+00
   LPB:    0  -0.438805825637839E+00   0.866584951847510E+00  -0.148304E-02   0.000000E+00   0.333165E+02  -0.494096E-01
   LPB:    1  -0.427590678089853E+00   0.226790280562272E+00   0.148856E-01   0.000000E+00   0.124201E+03   0.285268E-17
   LPB:    2  -0.426307873714997E+00   0.104820015001802E+00   0.154516E-01   0.110191E+00   0.179960E+03   0.603073E-15
   LPB:    3  -0.426023171569525E+00   0.558760465484219E-01   0.200439E-01   0.171090E+00   0.107184E+03   0.103651E-14
   LPB:    4  -0.425884488219101E+00   0.626358219502272E-01   0.257679E-01   0.378910E+00   0.270332E+03   0.126743E-14
   LPB:    5  -0.425797970092162E+00   0.566413931419845E-01   0.240624E-01   0.668073E+00   0.973203E+02   0.175200E-14
   LPB:    6  -0.425715627801017E+00   0.219896735323686E-01   0.269620E-01   0.849379E+00   0.119230E+03   0.206024E-14
   LPB:    7  -0.425646440897107E+00   0.111269254444598E-01   0.360823E-01   0.627854E+00   0.190703E+03   0.237543E-14
  Finished solving LPB equations
  A_corr:   -0.351735944002913     
 End minimization
 Ecorr=   1524.86953287254     
 A_corr= -0.351735944002913     
 Ecorr_band=  -1525.22126881654     
 End Solvation calculations
RMM:  21    -0.136161243069E+03   -0.13793E-02   -0.11751E-03  4145   0.807E-02    0.123E-01
 Begin Solvation calculations
  rms_SCF =   0.155762966209299      tol =   1.557629662092988E-002
 Begin minimization
 Creating dielectric and ionic cavities
  area:      141.135271054700     
  volume:    668.828922658801     
  Acav:     7.409601730371727E-002
  Solving linear dielectric/ionic screening model
        iter                  A_solv                     rms
   LPB:       -0.456114240855554E+00   0.125343486701037E+01
   LPB:    0  -0.456059085307280E+00   0.122045823048201E+01  -0.181901E-02   0.000000E+00   0.333386E+02  -0.606434E-01
   LPB:    1  -0.438953472242573E+00   0.288373217688309E+00   0.146769E-01   0.000000E+00   0.100918E+03   0.303596E-18
   LPB:    2  -0.437038051540042E+00   0.149143300580888E+00   0.144568E-01   0.113681E+00   0.223509E+03   0.244301E-14
   LPB:    3  -0.436613826323572E+00   0.760654331104986E-01   0.175733E-01   0.182201E+00   0.118133E+03   0.363495E-14
   LPB:    4  -0.436440485554025E+00   0.691986035562968E-01   0.217627E-01   0.329948E+00   0.212880E+03   0.413979E-14
   LPB:    5  -0.436328078338908E+00   0.474544032920678E-01   0.253815E-01   0.556017E+00   0.107966E+03   0.434557E-14
   LPB:    6  -0.436218472250610E+00   0.197964116605519E-01   0.340533E-01   0.726774E+00   0.106869E+03   0.474497E-14
   LPB:    7  -0.436127005315504E+00   0.117433582825404E-01   0.377820E-01   0.752149E+00   0.181558E+03   0.530543E-14
  Finished solving LPB equations
  A_corr:   -0.362030988011787     
 End minimization
 Ecorr=   1520.81703695268     
 A_corr= -0.362030988011787     
 Ecorr_band=  -1521.17906794069     
 End Solvation calculations
RMM:  22    -0.136162900362E+03   -0.16573E-02   -0.12874E-03  4135   0.789E-02    0.955E-02
 Begin Solvation calculations
  rms_SCF =   0.153808193122126      tol =   1.538081931221263E-002
 Begin minimization
 Creating dielectric and ionic cavities
  area:      141.414537421650     
  volume:    668.639604357705     
  Acav:     7.424263214636644E-002
  Solving linear dielectric/ionic screening model
        iter                  A_solv                     rms
   LPB:       -0.460991123612686E+00   0.126553418367202E+01
   LPB:    0  -0.460934619691669E+00   0.123784918449903E+01  -0.184087E-02   0.000000E+00   0.333475E+02  -0.613883E-01
   LPB:    1  -0.446990895399871E+00   0.285548970229009E+00   0.143039E-01   0.000000E+00   0.857326E+02  -0.844640E-18
   LPB:    2  -0.445428751407352E+00   0.137360432953749E+00   0.135402E-01   0.118351E+00   0.249593E+03   0.740107E-15
   LPB:    3  -0.445078422590912E+00   0.595499229343717E-01   0.170421E-01   0.178179E+00   0.132860E+03   0.755446E-15
   LPB:    4  -0.444941496600493E+00   0.564251589306155E-01   0.229294E-01   0.290497E+00   0.189335E+03   0.637267E-15
   LPB:    5  -0.444848608228829E+00   0.436678810947180E-01   0.277878E-01   0.559775E+00   0.105623E+03   0.408171E-15
   LPB:    6  -0.444752407993265E+00   0.198086987605627E-01   0.354751E-01   0.811233E+00   0.946041E+02   0.568156E-16
   LPB:    7  -0.444670070810191E+00   0.110102037515934E-01   0.373291E-01   0.813385E+00   0.172266E+03  -0.151426E-14
  Finished solving LPB equations
  A_corr:   -0.370427438663825     
 End minimization
 Ecorr=   1517.40730555454     
 A_corr= -0.370427438663825     
 Ecorr_band=  -1517.77773299321     
 End Solvation calculations
RMM:  23    -0.136164017547E+03   -0.11172E-02   -0.87245E-04  4089   0.578E-02    0.640E-02
 Begin Solvation calculations
  rms_SCF =   9.845995399639285E-002 tol =   9.845995399639285E-003
 Begin minimization
 Creating dielectric and ionic cavities
  area:      141.519560548489     
  volume:    668.759959186395     
  Acav:     7.429776928795651E-002
  Solving linear dielectric/ionic screening model
        iter                  A_solv                     rms
   LPB:       -0.455503206830486E+00   0.984994135296825E+00
   LPB:    0  -0.455420677956595E+00   0.957098438344952E+00  -0.222496E-02   0.000000E+00   0.333419E+02  -0.741844E-01
   LPB:    1  -0.449354716484861E+00   0.204071730320033E+00   0.134062E-01   0.000000E+00   0.720158E+02  -0.364823E-17
   LPB:    2  -0.448692963980779E+00   0.798575704151192E-01   0.125972E-01   0.116099E+00   0.264938E+03  -0.147540E-14
   LPB:    3  -0.448552231593308E+00   0.285799453255617E-01   0.172849E-01   0.154991E+00   0.155162E+03  -0.169015E-14
   LPB:    4  -0.448505659112337E+00   0.302131811409119E-01   0.244168E-01   0.234268E+00   0.171118E+03  -0.176708E-14
   LPB:    5  -0.448469586355351E+00   0.297460263671139E-01   0.317901E-01   0.594904E+00   0.105067E+03  -0.187931E-14
   LPB:    6  -0.448422781751103E+00   0.167374201285248E-01   0.389298E-01   0.105954E+01   0.753249E+02  -0.183344E-14
   LPB:    7  -0.448377481357897E+00   0.804341562106621E-02   0.368912E-01   0.102135E+01   0.127750E+03  -0.223819E-14
  Finished solving LPB equations
  A_corr:   -0.374079712069941     
 End minimization
 Ecorr=   1515.61287208873     
 A_corr= -0.374079712069941     
 Ecorr_band=  -1515.98695180080     
 End Solvation calculations
RMM:  24    -0.136164494401E+03   -0.47685E-03   -0.36738E-04  4122   0.472E-02    0.617E-02
 Begin Solvation calculations
  rms_SCF =   8.180820883883715E-002 tol =   8.180820883883715E-003
 Begin minimization
 Creating dielectric and ionic cavities
  area:      141.545161401344     
  volume:    668.868272277426     
  Acav:     7.431120973570575E-002
  Solving linear dielectric/ionic screening model
        iter                  A_solv                     rms
   LPB:       -0.451767973529055E+00   0.586517040327896E+00
   LPB:    0  -0.451713736731260E+00   0.564446829452837E+00  -0.180385E-02   0.000000E+00   0.333368E+02  -0.601345E-01
   LPB:    1  -0.449935053006941E+00   0.111010656665894E+00   0.126422E-01   0.000000E+00   0.684719E+02  -0.277715E-17
   LPB:    2  -0.449748079201646E+00   0.370582848515936E-01   0.121452E-01   0.109421E+00   0.272126E+03   0.158600E-15
   LPB:    3  -0.449713146353660E+00   0.119856558062855E-01   0.173681E-01   0.130649E+00   0.172828E+03   0.168840E-15
   LPB:    4  -0.449703926917578E+00   0.127224869747120E-01   0.243197E-01   0.188480E+00   0.168477E+03   0.186168E-15
   LPB:    5  -0.449695598954107E+00   0.153391688287199E-01   0.365291E-01   0.601388E+00   0.111957E+03   0.177350E-15
   LPB:    6  -0.449680931782447E+00   0.107297285396533E-01   0.454334E-01   0.141603E+01   0.633227E+02   0.992196E-16
   LPB:    7  -0.449664442137229E+00   0.485845105676417E-02   0.373963E-01   0.136587E+01   0.904343E+02  -0.983276E-17
  Finished solving LPB equations
  A_corr:   -0.375353232401523     
 End minimization
 Ecorr=   1514.87953079567     
 A_corr= -0.375353232401523     
 Ecorr_band=  -1515.25488402808     
 End Solvation calculations
RMM:  25    -0.136164669990E+03   -0.17559E-03   -0.12300E-04  3761   0.295E-02    0.379E-02
 Begin Solvation calculations
  rms_SCF =   6.398922124392178E-002 tol =   6.398922124392178E-003
 Begin minimization
 Creating dielectric and ionic cavities
  area:      141.557349938076     
  volume:    669.027777754071     
  Acav:     7.431760871749001E-002
  Solving linear dielectric/ionic screening model
        iter                  A_solv                     rms
   LPB:       -0.454875539550021E+00   0.869627011753717E+00
   LPB:    0  -0.454722677878377E+00   0.833811673522184E+00  -0.302866E-02   0.000000E+00   0.333293E+02  -0.100943E+00
   LPB:    1  -0.451248502255548E+00   0.152471591701941E+00   0.120519E-01   0.000000E+00   0.675736E+02  -0.414051E-17
   LPB:    2  -0.450895333780093E+00   0.464937528763955E-01   0.119010E-01   0.102945E+00   0.270388E+03   0.110945E-14
   LPB:    3  -0.450837747417656E+00   0.131975431837499E-01   0.174361E-01   0.111294E+00   0.170568E+03   0.122270E-14
   LPB:    4  -0.450825932254379E+00   0.119576164370271E-01   0.223986E-01   0.159716E+00   0.184201E+03   0.122436E-14
   LPB:    5  -0.450820952170129E+00   0.947230848926201E-02   0.250911E-01   0.376269E+00   0.135910E+03   0.120517E-14
   LPB:    6  -0.450817298210650E+00   0.494490885958998E-02   0.291816E-01   0.630866E+00   0.112929E+03   0.115497E-14
  Finished solving LPB equations
  A_corr:   -0.376499689493160     
 End minimization
 Ecorr=   1514.47232203331     
 A_corr= -0.376499689493160     
 Ecorr_band=  -1514.84882172280     
 End Solvation calculations
RMM:  26    -0.136164886293E+03   -0.21630E-03   -0.22224E-04  4064   0.301E-02    0.432E-02
 Begin Solvation calculations
  rms_SCF =   6.337624670285208E-003 tol =   6.337624670285207E-004
 Begin minimization
 Creating dielectric and ionic cavities
  area:      141.515638140256     
  volume:    669.061952932686     
  Acav:     7.429571002363436E-002
  Solving linear dielectric/ionic screening model
        iter                  A_solv                     rms
   LPB:       -0.449670202724253E+00   0.204192368827742E+00
   LPB:    0  -0.449668103266441E+00   0.198916759904172E+00   0.354949E-03   0.000000E+00   0.333277E+02   0.118296E-01
   LPB:    1  -0.449301001685753E+00   0.502785788344167E-01   0.139382E-01   0.000000E+00   0.926497E+02   0.130196E-18
   LPB:    2  -0.449254012065024E+00   0.226484484376415E-01   0.136574E-01   0.130634E+00   0.244804E+03  -0.250916E-15
   LPB:    3  -0.449242746891106E+00   0.112977648312690E-01   0.177991E-01   0.183953E+00   0.150475E+03  -0.312248E-15
   LPB:    4  -0.449238789621339E+00   0.846983894351060E-02   0.210013E-01   0.297721E+00   0.266417E+03  -0.345691E-15
   LPB:    5  -0.449237098988545E+00   0.464377822100913E-02   0.224247E-01   0.400104E+00   0.128670E+03  -0.342637E-15
   LPB:    6  -0.449235945712719E+00   0.218242894480687E-02   0.310002E-01   0.493453E+00   0.384721E+03  -0.388432E-15
   LPB:    7  -0.449234971283883E+00   0.138126187005518E-02   0.405387E-01   0.646118E+00   0.826112E+03  -0.459188E-15
   LPB:    8  -0.449234006589423E+00   0.141239956585645E-02   0.442555E-01   0.906863E+00   0.679541E+03  -0.533981E-15
   LPB:    9  -0.449233081412354E+00   0.137767082397792E-02   0.420773E-01   0.100868E+01   0.335380E+03  -0.612801E-15
   LPB:   10  -0.449232317232786E+00   0.104115761718892E-02   0.387674E-01   0.896502E+00   0.199677E+03  -0.688630E-15
   LPB:   11  -0.449231785115722E+00   0.872155630566318E-03   0.365556E-01   0.738457E+00   0.222765E+03  -0.751376E-15
   LPB:   12  -0.449231446453318E+00   0.702448371063492E-03   0.355326E-01   0.654766E+00   0.217650E+03  -0.795167E-15
   LPB:   13  -0.449231224299579E+00   0.555618202614852E-03   0.354607E-01   0.657303E+00   0.232701E+03  -0.822892E-15
  Finished solving LPB equations
  A_corr:   -0.374935514275945     
 End minimization
 Ecorr=   1514.71660029118     
 A_corr= -0.374935514275945     
 Ecorr_band=  -1515.09153580546     
 End Solvation calculations
RMM:  27    -0.136165012751E+03   -0.12646E-03   -0.61109E-05  3140   0.197E-02    0.313E-02
 Begin Solvation calculations
  rms_SCF =   6.337624670285208E-003 tol =   6.337624670285207E-004
 Begin minimization
 Creating dielectric and ionic cavities
  area:      141.526057065497     
  volume:    669.148517946376     
  Acav:     7.430117995938602E-002
  Solving linear dielectric/ionic screening model
        iter                  A_solv                     rms
   LPB:       -0.451353786872964E+00   0.548085746531343E+00
   LPB:    0  -0.451312755822940E+00   0.531515862562808E+00  -0.156926E-02   0.000000E+00   0.333236E+02  -0.522935E-01
   LPB:    1  -0.450011409969900E+00   0.928166061859729E-01   0.116352E-01   0.000000E+00   0.668797E+02   0.236775E-17
   LPB:    2  -0.449877421126936E+00   0.268181356301390E-01   0.119168E-01   0.100529E+00   0.259552E+03   0.981831E-15
   LPB:    3  -0.449855682504619E+00   0.733168868001759E-02   0.183941E-01   0.105110E+00   0.163256E+03   0.108964E-14
   LPB:    4  -0.449850355406521E+00   0.673248644293955E-02   0.248342E-01   0.181505E+00   0.186864E+03   0.107571E-14
   LPB:    5  -0.449848316045398E+00   0.584267188240231E-02   0.248401E-01   0.382736E+00   0.174293E+03   0.104376E-14
   LPB:    6  -0.449847241147275E+00   0.292250411154677E-02   0.244341E-01   0.535834E+00   0.121222E+03   0.103215E-14
   LPB:    7  -0.449846487143023E+00   0.123226281657407E-02   0.310668E-01   0.551703E+00   0.302474E+03   0.103575E-14
   LPB:    8  -0.449845988556048E+00   0.654945306579546E-03   0.371092E-01   0.553582E+00   0.242433E+03   0.105118E-14
   LPB:    9  -0.449845685705766E+00   0.533188479589177E-03   0.373987E-01   0.602716E+00   0.367371E+03   0.106815E-14
  Finished solving LPB equations
  A_corr:   -0.375544505746380     
 End minimization
 Ecorr=   1514.24620236773     
 A_corr= -0.375544505746380     
 Ecorr_band=  -1514.62174687347     
 End Solvation calculations
RMM:  28    -0.136165132435E+03   -0.11968E-03   -0.31512E-05  2589   0.144E-02    0.232E-02
 Begin Solvation calculations
  rms_SCF =   6.337624670285208E-003 tol =   6.337624670285207E-004
 Begin minimization
 Creating dielectric and ionic cavities
  area:      141.532217138327     
  volume:    669.197537402947     
  Acav:     7.430441399762187E-002
  Solving linear dielectric/ionic screening model
        iter                  A_solv                     rms
   LPB:       -0.450926814756870E+00   0.380219168174570E+00
   LPB:    0  -0.450910349996993E+00   0.370530919985041E+00  -0.994103E-03   0.000000E+00   0.333213E+02  -0.331249E-01
   LPB:    1  -0.450328119962665E+00   0.623806379745312E-01   0.112767E-01   0.000000E+00   0.657031E+02   0.107232E-17
   LPB:    2  -0.450263691147270E+00   0.164977665923591E-01   0.121595E-01   0.102625E+00   0.248247E+03  -0.106806E-15
   LPB:    3  -0.450253944965960E+00   0.473371279899370E-02   0.188049E-01   0.978132E-01   0.174269E+03  -0.122371E-15
   LPB:    4  -0.450251555882640E+00   0.444374364285216E-02   0.249783E-01   0.184546E+00   0.189968E+03  -0.118244E-15
   LPB:    5  -0.450250638504024E+00   0.398823365744447E-02   0.252050E-01   0.380533E+00   0.164997E+03  -0.127113E-15
   LPB:    6  -0.450250094122570E+00   0.229550507417504E-02   0.262959E-01   0.568792E+00   0.111432E+03  -0.129371E-15
   LPB:    7  -0.450249619382609E+00   0.105519217274164E-02   0.339612E-01   0.675240E+00   0.211067E+03  -0.811700E-16
   LPB:    8  -0.450249233377566E+00   0.594685760357904E-03   0.403543E-01   0.684273E+00   0.162669E+03  -0.154557E-16
  Finished solving LPB equations
  A_corr:   -0.375944819379944     
 End minimization
 Ecorr=   1513.92340525026     
 A_corr= -0.375944819379944     
 Ecorr_band=  -1514.29935006964     
 End Solvation calculations
RMM:  29    -0.136165090208E+03    0.42227E-04   -0.27026E-05  2514   0.139E-02    0.122E-02
 Begin Solvation calculations
  rms_SCF =   6.337624670285208E-003 tol =   6.337624670285207E-004
 Begin minimization
 Creating dielectric and ionic cavities
  area:      141.509681868461     
  volume:    669.192570619782     
  Acav:     7.429258298094192E-002
  Solving linear dielectric/ionic screening model
        iter                  A_solv                     rms
   LPB:       -0.449605566555783E+00   0.951694864188551E-01
   LPB:    0  -0.449605472638695E+00   0.954225262970747E-01  -0.750800E-04   0.000000E+00   0.333216E+02  -0.250179E-02
   LPB:    1  -0.449489455819393E+00   0.424654701962664E-01   0.108487E-01   0.000000E+00   0.216476E+03  -0.139770E-18
   LPB:    2  -0.449476924162132E+00   0.731943860684962E-02   0.131153E-01   0.893486E-01   0.105373E+03  -0.163434E-16
   LPB:    3  -0.449473991229275E+00   0.274756786513944E-02   0.194419E-01   0.157882E+00   0.279676E+03   0.530081E-17
   LPB:    4  -0.449473097900615E+00   0.415697974034032E-02   0.263799E-01   0.224479E+00   0.277973E+03   0.170820E-16
   LPB:    5  -0.449472699521473E+00   0.234244747785845E-02   0.217915E-01   0.539846E+00   0.102097E+03   0.224239E-16
   LPB:    6  -0.449472462944299E+00   0.884282490563228E-03   0.285134E-01   0.453853E+00   0.327106E+03   0.337719E-16
   LPB:    7  -0.449472326761128E+00   0.530610661441874E-03   0.330879E-01   0.496055E+00   0.486780E+03   0.367688E-16
  Finished solving LPB equations
  A_corr:   -0.375179743780186     
 End minimization
 Ecorr=   1513.91029865231     
 A_corr= -0.375179743780186     
 Ecorr_band=  -1514.28547839609     
 End Solvation calculations
RMM:  30    -0.136165194332E+03   -0.10412E-03   -0.25775E-05  2523   0.145E-02    0.675E-03
 Begin Solvation calculations
  rms_SCF =   2.441860015842083E-003 tol =   2.441860015842083E-004
 Begin minimization
 Creating dielectric and ionic cavities
  area:      141.513208190216     
  volume:    669.174302547148     
  Acav:     7.429443429986322E-002
  Solving linear dielectric/ionic screening model
        iter                  A_solv                     rms
   LPB:       -0.449623501072131E+00   0.314487291259273E-01
   LPB:    0  -0.449623122091285E+00   0.276356059257235E-01  -0.150819E-03   0.000000E+00   0.333224E+02  -0.502565E-02
   LPB:    1  -0.449618923285768E+00   0.502479963967486E-02   0.100772E-01   0.000000E+00   0.932200E+02   0.369151E-18
   LPB:    2  -0.449618640529300E+00   0.109523226443225E-02   0.118953E-01   0.570497E-01   0.151513E+03   0.627714E-16
   LPB:    3  -0.449618544019856E+00   0.707471877841173E-03   0.294492E-01   0.137866E+00   0.161116E+03   0.534591E-16
   LPB:    4  -0.449618466453125E+00   0.126670610006802E-02   0.421840E-01   0.561089E+00   0.988194E+02   0.539873E-16
   LPB:    5  -0.449618399342954E+00   0.118312366098475E-02   0.292005E-01   0.124989E+01   0.323017E+03   0.540722E-16
   LPB:    6  -0.449618311183834E+00   0.755237223742242E-03   0.403828E-01   0.949887E+00   0.843099E+02   0.494971E-16
   LPB:    7  -0.449618224995787E+00   0.506323073165691E-03   0.399241E-01   0.988876E+00   0.425249E+03   0.446237E-16
   LPB:    8  -0.449618145511674E+00   0.393049942873327E-03   0.401779E-01   0.916392E+00   0.194117E+03   0.262538E-16
   LPB:    9  -0.449618074523775E+00   0.396940125057852E-03   0.426030E-01   0.842269E+00   0.514788E+03   0.930347E-17
   LPB:   10  -0.449617997770024E+00   0.443937406883509E-03   0.463828E-01   0.993112E+00   0.629871E+03  -0.533926E-17
   LPB:   11  -0.449617906759589E+00   0.420682351540024E-03   0.460142E-01   0.119525E+01   0.458889E+03  -0.241163E-16
   LPB:   12  -0.449617807575411E+00   0.379420105123787E-03   0.447424E-01   0.112079E+01   0.565923E+03  -0.472174E-16
   LPB:   13  -0.449617707707701E+00   0.332622265672612E-03   0.448032E-01   0.100552E+01   0.983283E+03  -0.730977E-16
   LPB:   14  -0.449617611246220E+00   0.362454492876093E-03   0.447698E-01   0.966614E+00   0.961292E+03  -0.995528E-16
   LPB:   15  -0.449617516734610E+00   0.303264264636467E-03   0.456811E-01   0.960239E+00   0.218319E+04  -0.124723E-15
   LPB:   16  -0.449617427911333E+00   0.303614171971584E-03   0.443126E-01   0.968837E+00   0.233352E+04  -0.151051E-15
   LPB:   17  -0.449617349590245E+00   0.280847509824142E-03   0.420143E-01   0.929999E+00   0.149115E+04  -0.175945E-15
   LPB:   18  -0.449617285190065E+00   0.238425625849318E-03   0.414163E-01   0.834131E+00   0.794478E+03  -0.198488E-15
  Finished solving LPB equations
  A_corr:   -0.375322850890202     
 End minimization
 Ecorr=   1513.74665259673     
 A_corr= -0.375322850890202     
 Ecorr_band=  -1514.12197544762     
 End Solvation calculations
RMM:  31    -0.136165207844E+03   -0.13513E-04   -0.60368E-06  2365   0.102E-02    0.488E-03
 Begin Solvation calculations
  rms_SCF =   1.842345815590726E-003 tol =   1.842345815590726E-004
 Begin minimization
 Creating dielectric and ionic cavities
  area:      141.517422741850     
  volume:    669.162113192490     
  Acav:     7.429664693947141E-002
  Solving linear dielectric/ionic screening model
        iter                  A_solv                     rms
   LPB:       -0.449766468549392E+00   0.423883742136228E-01
   LPB:    0  -0.449765912532628E+00   0.385443528060438E-01  -0.182678E-03   0.000000E+00   0.333230E+02  -0.608739E-02
   LPB:    1  -0.449759814792324E+00   0.538198082010462E-02   0.993931E-02   0.000000E+00   0.757578E+02  -0.817885E-19
   LPB:    2  -0.449759338184710E+00   0.145645822301837E-02   0.123091E-01   0.631133E-01   0.184716E+03   0.100654E-16
   LPB:    3  -0.449759258644771E+00   0.708985396031651E-03   0.201522E-01   0.101937E+00   0.160569E+03   0.140763E-16
   LPB:    4  -0.449759228897762E+00   0.792910091112753E-03   0.305757E-01   0.246492E+00   0.920449E+02   0.147939E-16
   LPB:    5  -0.449759206790967E+00   0.522013102757906E-03   0.271824E-01   0.835934E+00   0.373675E+03   0.987879E-17
   LPB:    6  -0.449759184193896E+00   0.286782264229335E-03   0.366341E-01   0.758453E+00   0.188504E+03   0.615566E-17
   LPB:    7  -0.449759164523536E+00   0.160623532600988E-03   0.402953E-01   0.791390E+00   0.934562E+03  -0.527649E-17
  Finished solving LPB equations
  A_corr:   -0.375462517584065     
 End minimization
 Ecorr=   1513.65735049634     
 A_corr= -0.375462517584065     
 Ecorr_band=  -1514.03281301392     
 End Solvation calculations
RMM:  32    -0.136165217674E+03   -0.98292E-05   -0.32323E-06  2351   0.573E-03
 Begin Solvation calculations
  rms_SCF =   1.842345815590726E-003 tol =   1.842345815590726E-004
 Begin minimization
 Creating dielectric and ionic cavities
  area:      141.519003177814     
  volume:    669.143697237720     
  Acav:     7.429747666835232E-002
  Solving linear dielectric/ionic screening model
        iter                  A_solv                     rms
   LPB:       -0.449745235750993E+00   0.252246058512685E-01
   LPB:    0  -0.449745143704162E+00   0.239600887840197E-01  -0.743262E-04   0.000000E+00   0.333239E+02  -0.247684E-02
   LPB:    1  -0.449734484246940E+00   0.816185592227471E-02   0.141904E-01   0.000000E+00   0.168660E+03   0.138464E-18
   LPB:    2  -0.449733631303303E+00   0.411261983205146E-02   0.164380E-01   0.690767E-01   0.745467E+02  -0.855898E-17
   LPB:    3  -0.449733430202483E+00   0.165977924962037E-02   0.154275E-01   0.251215E+00   0.226889E+03  -0.176854E-16
   LPB:    4  -0.449733324579516E+00   0.459988637410336E-03   0.237462E-01   0.341230E+00   0.267601E+03  -0.199582E-16
   LPB:    5  -0.449733273421264E+00   0.263540219023712E-03   0.310900E-01   0.369939E+00   0.299742E+03  -0.225103E-16
   LPB:    6  -0.449733244650382E+00   0.235024583136733E-03   0.354534E-01   0.493175E+00   0.355513E+03  -0.239232E-16
   LPB:    7  -0.449733226648600E+00   0.354432505986906E-03   0.344856E-01   0.643254E+00   0.355686E+03  -0.246884E-16
   LPB:    8  -0.449733213673804E+00   0.427345505877194E-03   0.324200E-01   0.766672E+00   0.139336E+03  -0.248437E-16
   LPB:    9  -0.449733203675333E+00   0.413173706591834E-03   0.304785E-01   0.819696E+00   0.224276E+03  -0.258956E-16
   LPB:   10  -0.449733194961550E+00   0.263702331344698E-03   0.315356E-01   0.842296E+00   0.132632E+03  -0.284773E-16
   LPB:   11  -0.449733186855450E+00   0.142826545443242E-03   0.378739E-01   0.774582E+00   0.358226E+03  -0.246637E-16
  Finished solving LPB equations
  A_corr:   -0.375435710187097     
 End minimization
 Ecorr=   1513.60825355196     
 A_corr= -0.375435710187097     
 Ecorr_band=  -1513.98368926215     
 End Solvation calculations
   1 F= -.13616522E+03 E0= -.13616264E+03  d E =-.136165E+03
quench:  g(F)=  0.000E+00 g(S)=  0.000E+00 dE (1.order)= 0.000E+00
 bond charge predicted
       N       E                     dE             d eps       ncg     rms          rms(c)
 Begin Solvation calculations
  rms_SCF =   1.842345815590726E-003 tol =   1.842345815590726E-004
 Begin minimization
 Creating dielectric and ionic cavities
  area:      141.546008569588     
  volume:    669.146940059469     
  Acav:     7.431165449903369E-002
  Solving linear dielectric/ionic screening model
        iter                  A_solv                     rms
   LPB:       -0.450353769124944E+00   0.225933067392521E-02
   LPB:    0  -0.450353769124931E+00   0.225937525028876E-02   0.280056E-07   0.000000E+00   0.333237E+02   0.933251E-06
   LPB:    1  -0.449930702661745E+00   0.738665276767587E-03   0.152029E-01   0.000000E+00   0.714979E+06  -0.252961E-23
   LPB:    2  -0.449900892466753E+00   0.591147985517456E-03   0.251496E-01   0.425942E-01   0.155621E+06  -0.266155E-19
   LPB:    3  -0.449892727003955E+00   0.810572035014373E-03   0.314223E-01   0.219235E+00   0.394554E+05  -0.672188E-17
   LPB:    4  -0.449889365689257E+00   0.216854775483290E-02   0.352904E-01   0.366530E+00   0.990846E+04  -0.395510E-17
   LPB:    5  -0.449887782583424E+00   0.492121902502761E-02   0.344452E-01   0.482535E+00   0.592595E+03  -0.186424E-18
   LPB:    6  -0.449887062632012E+00   0.526070021423461E-02   0.225385E-01   0.695021E+00   0.187652E+03  -0.845143E-18
   LPB:    7  -0.449886467870308E+00   0.257647736938726E-02   0.241611E-01   0.770633E+00   0.300027E+03   0.337342E-17
   LPB:    8  -0.449886078171715E+00   0.319842385143297E-02   0.294994E-01   0.536648E+00   0.265518E+03   0.988900E-18
   LPB:    9  -0.449885826654066E+00   0.191561733485379E-02   0.234076E-01   0.813384E+00   0.197677E+03  -0.160359E-16
   LPB:   10  -0.449885612597222E+00   0.556977042430136E-03   0.321773E-01   0.619110E+00   0.465963E+03  -0.399107E-16
   LPB:   11  -0.449885470605457E+00   0.312854404342941E-03   0.389228E-01   0.548378E+00   0.397361E+04  -0.786694E-16
   LPB:   12  -0.449885379543013E+00   0.379467685166262E-03   0.385159E-01   0.648097E+00   0.203485E+04  -0.113294E-15
   LPB:   13  -0.449885321138121E+00   0.385722939380475E-03   0.349410E-01   0.706993E+00   0.135404E+04  -0.136785E-15
   LPB:   14  -0.449885279417064E+00   0.257325811406670E-03   0.342101E-01   0.729602E+00   0.129328E+04  -0.151664E-15
   LPB:   15  -0.449885247425022E+00   0.141575130331556E-03   0.378422E-01   0.693210E+00   0.259722E+04  -0.162193E-15
  Finished solving LPB equations
  A_corr:   -0.375573592925988     
 End minimization
 Ecorr=   1513.57276558125     
 A_corr= -0.375573592925988     
 Ecorr_band=  -1513.94833917418     
 End Solvation calculations
DAV:   1    -0.136167139976E+03   -0.19321E-02   -0.29344E-02  4209   0.312E-01    0.544E-02
 Begin Solvation calculations
  rms_SCF =   1.842345815590726E-003 tol =   1.842345815590726E-004
 Begin minimization
 Creating dielectric and ionic cavities
  area:      141.529846822689     
  volume:    669.108492703665     
  Acav:     7.430316958191155E-002
  Solving linear dielectric/ionic screening model
        iter                  A_solv                     rms
   LPB:       -0.450615698264363E+00   0.931008522132927E-01
   LPB:    0  -0.450608755398357E+00   0.783227382689254E-01  -0.645499E-03   0.000000E+00   0.333255E+02  -0.215116E-01
   LPB:    1  -0.450570071273060E+00   0.213800421285442E-01   0.118627E-01   0.000000E+00   0.842019E+02   0.399552E-18
   LPB:    2  -0.450563860062740E+00   0.392854053262985E-02   0.133812E-01   0.142342E+00   0.304620E+03  -0.178575E-15
   LPB:    3  -0.450562136820291E+00   0.382612932151860E-02   0.248797E-01   0.149218E+00   0.563086E+03  -0.205248E-15
   LPB:    4  -0.450561600407273E+00   0.322418819096196E-02   0.215373E-01   0.359590E+00   0.143980E+03  -0.223991E-15
   LPB:    5  -0.450561287910242E+00   0.133968791962413E-02   0.243684E-01   0.514886E+00   0.240773E+03  -0.220955E-15
   LPB:    6  -0.450561112492341E+00   0.519517684559328E-03   0.327983E-01   0.417065E+00   0.345954E+03  -0.232193E-15
   LPB:    7  -0.450561016464246E+00   0.337378975208241E-03   0.342678E-01   0.523950E+00   0.761612E+03  -0.246581E-15
   LPB:    8  -0.450560958910960E+00   0.265801495243248E-03   0.345217E-01   0.594929E+00   0.754832E+03  -0.255465E-15
   LPB:    9  -0.450560921988585E+00   0.193214102566223E-03   0.359380E-01   0.616252E+00   0.577992E+03  -0.259807E-15
   LPB:   10  -0.450560897266679E+00   0.154478168955158E-03   0.377547E-01   0.637346E+00   0.911747E+03  -0.262189E-15
  Finished solving LPB equations
  A_corr:   -0.376257727684767     
 End minimization
 Ecorr=   1513.54642631018     
 A_corr= -0.376257727684767     
 Ecorr_band=  -1513.92268403787     
 End Solvation calculations
RMM:   2    -0.136167344063E+03   -0.20409E-03   -0.23322E-03  6043   0.940E-02    0.470E-02
 Begin Solvation calculations
  rms_SCF =   1.842345815590726E-003 tol =   1.842345815590726E-004
 Begin minimization
 Creating dielectric and ionic cavities
  area:      141.530837663618     
  volume:    669.110094942760     
  Acav:     7.430368977339966E-002
  Solving linear dielectric/ionic screening model
        iter                  A_solv                     rms
   LPB:       -0.450796596316792E+00   0.174692276502950E-01
   LPB:    0  -0.450796136109244E+00   0.104236284181080E-01  -0.166190E-03   0.000000E+00   0.333254E+02  -0.553834E-02
   LPB:    1  -0.450793730809314E+00   0.428870036200470E-02   0.155468E-01   0.000000E+00   0.127761E+03   0.630880E-19
   LPB:    2  -0.450793441246587E+00   0.250256148207276E-02   0.138977E-01   0.134670E+00   0.209275E+03  -0.120949E-17
   LPB:    3  -0.450793332062063E+00   0.132596507962569E-02   0.203471E-01   0.257548E+00   0.146644E+03  -0.571937E-17
   LPB:    4  -0.450793292696696E+00   0.871109181333901E-03   0.225866E-01   0.324793E+00   0.117318E+03  -0.817957E-17
   LPB:    5  -0.450793270733581E+00   0.393501320530126E-03   0.224064E-01   0.562416E+00   0.343802E+03  -0.556914E-17
   LPB:    6  -0.450793254913510E+00   0.154008119475163E-03   0.355274E-01   0.454279E+00   0.225869E+03  -0.647352E-18
  Finished solving LPB equations
  A_corr:   -0.376489565140110     
 End minimization
 Ecorr=   1513.50060510097     
 A_corr= -0.376489565140110     
 Ecorr_band=  -1513.87709466611     
 End Solvation calculations
RMM:   3    -0.136167288578E+03    0.55485E-04   -0.11919E-04  3678   0.260E-02    0.300E-02
 Begin Solvation calculations
  rms_SCF =   1.842345815590726E-003 tol =   1.842345815590726E-004
 Begin minimization
 Creating dielectric and ionic cavities
  area:      141.530811786882     
  volume:    669.105985077981     
  Acav:     7.430367618811316E-002
  Solving linear dielectric/ionic screening model
        iter                  A_solv                     rms
   LPB:       -0.451089205302858E+00   0.217895460785337E-01
   LPB:    0  -0.451088353326116E+00   0.123455903682321E-01  -0.226120E-03   0.000000E+00   0.333256E+02  -0.753560E-02
   LPB:    1  -0.451083831593484E+00   0.451560309618770E-02   0.159942E-01   0.000000E+00   0.168349E+03  -0.212193E-18
   LPB:    2  -0.451083400508506E+00   0.342220232588560E-02   0.144472E-01   0.105544E+00   0.237482E+03   0.152177E-15
   LPB:    3  -0.451083235437343E+00   0.157266302953133E-02   0.189502E-01   0.291930E+00   0.123036E+03   0.149496E-15
   LPB:    4  -0.451083169409721E+00   0.115608016374033E-02   0.248530E-01   0.304993E+00   0.128058E+03   0.152376E-15
   LPB:    5  -0.451083132235437E+00   0.675658277149944E-03   0.224506E-01   0.623258E+00   0.291717E+03   0.156932E-15
   LPB:    6  -0.451083103697063E+00   0.218604705128976E-03   0.326268E-01   0.528251E+00   0.143908E+03   0.154451E-15
   LPB:    7  -0.451083084649112E+00   0.151549380038574E-03   0.375603E-01   0.579781E+00   0.376013E+03   0.153835E-15
  Finished solving LPB equations
  A_corr:   -0.376779408460999     
 End minimization
 Ecorr=   1513.44957300191     
 A_corr= -0.376779408460999     
 Ecorr_band=  -1513.82635241037     
 End Solvation calculations
RMM:   4    -0.136167290643E+03   -0.20651E-05   -0.44520E-05  2744   0.226E-02
 Begin Solvation calculations
  rms_SCF =   1.842345815590726E-003 tol =   1.842345815590726E-004
 Begin minimization
 Creating dielectric and ionic cavities
  area:      141.532663185342     
  volume:    669.099558779057     
  Acav:     7.430464817230445E-002
  Solving linear dielectric/ionic screening model
        iter                  A_solv                     rms
   LPB:       -0.451711821656242E+00   0.769224211764160E-01
   LPB:    0  -0.451708387777810E+00   0.672945481122144E-01  -0.453959E-03   0.000000E+00   0.333259E+02  -0.151286E-01
   LPB:    1  -0.451682966564369E+00   0.167195744264855E-01   0.113124E-01   0.000000E+00   0.824875E+02  -0.610757E-18
   LPB:    2  -0.451679208808299E+00   0.253062645445142E-02   0.131140E-01   0.127511E+00   0.257550E+03   0.696882E-16
   LPB:    3  -0.451678390260030E+00   0.238784918702151E-02   0.242730E-01   0.117687E+00   0.582004E+03   0.747464E-16
   LPB:    4  -0.451678159474534E+00   0.199835771300735E-02   0.223055E-01   0.306814E+00   0.119176E+03   0.739358E-16
   LPB:    5  -0.451678032230476E+00   0.106992644121877E-02   0.240145E-01   0.512114E+00   0.271819E+03   0.684034E-16
   LPB:    6  -0.451677952672186E+00   0.394632103959985E-03   0.318767E-01   0.471030E+00   0.177443E+03   0.636914E-16
   LPB:    7  -0.451677904021516E+00   0.250251148411473E-03   0.341159E-01   0.571373E+00   0.350604E+03   0.547634E-16
   LPB:    8  -0.451677872167761E+00   0.177306332411513E-03   0.357330E-01   0.625114E+00   0.321206E+03   0.500503E-16
  Finished solving LPB equations
  A_corr:   -0.377373223995457     
 End minimization
 Ecorr=   1513.35287919554     
 A_corr= -0.377373223995457     
 Ecorr_band=  -1513.73025241953     
 End Solvation calculations
   2 F= -.13616729E+03 E0= -.13616473E+03  d E =-.207297E-02
quench:  g(F)=  0.000E+00 g(S)=  0.000E+00 dE (1.order)= 0.000E+00
 bond charge predicted
       N       E                     dE             d eps       ncg     rms          rms(c)
 Begin Solvation calculations
  rms_SCF =   1.842345815590726E-003 tol =   1.842345815590726E-004
 Begin minimization
 Creating dielectric and ionic cavities
  area:      141.594689640545     
  volume:    669.099101954221     
  Acav:     7.433721206128609E-002
  Solving linear dielectric/ionic screening model
        iter                  A_solv                     rms
   LPB:       -0.453530956585568E+00   0.395659406438487E-02
   LPB:    0  -0.453530956578637E+00   0.395863326938947E-02  -0.644938E-06   0.000000E+00   0.333260E+02  -0.214932E-04
   LPB:    1  -0.452205343015968E+00   0.124410276466527E-02   0.152188E-01   0.000000E+00   0.729325E+06  -0.112524E-20
   LPB:    2  -0.452112301488572E+00   0.102186265346815E-02   0.251092E-01   0.425410E-01   0.178661E+06   0.100832E-17
   LPB:    3  -0.452087110172290E+00   0.152212422256644E-02   0.313192E-01   0.217069E+00   0.431818E+05  -0.582136E-17
   LPB:    4  -0.452076765427003E+00   0.459176543245372E-02   0.352317E-01   0.365044E+00   0.940446E+04  -0.194513E-16
   LPB:    5  -0.452072012795727E+00   0.109824231509284E-01   0.330623E-01   0.489570E+00   0.490580E+03  -0.232021E-16
   LPB:    6  -0.452069825297813E+00   0.868068313153830E-02   0.194934E-01   0.780654E+00   0.181007E+03  -0.350185E-16
   LPB:    7  -0.452067761959341E+00   0.294797462659087E-02   0.272304E-01   0.675238E+00   0.468960E+03  -0.327089E-16
   LPB:    8  -0.452066405441185E+00   0.403478352570041E-02   0.352705E-01   0.507572E+00   0.414390E+03  -0.288877E-16
   LPB:    9  -0.452065645741287E+00   0.428589728185502E-02   0.266529E-01   0.741112E+00   0.219521E+03  -0.372753E-16
   LPB:   10  -0.452065049251841E+00   0.155068000286587E-02   0.270407E-01   0.773903E+00   0.206682E+03   0.113103E-16
   LPB:   11  -0.452064610702280E+00   0.592703421572164E-03   0.372883E-01   0.533165E+00   0.242613E+04   0.508997E-16
   LPB:   12  -0.452064323445108E+00   0.536345683527703E-03   0.393619E-01   0.620509E+00   0.139162E+04   0.585571E-16
   LPB:   13  -0.452064139514242E+00   0.630819662528623E-03   0.369395E-01   0.682291E+00   0.143492E+04   0.629600E-16
   LPB:   14  -0.452064014621671E+00   0.509071738017695E-03   0.341697E-01   0.734059E+00   0.990174E+03   0.638040E-16
   LPB:   15  -0.452063921986447E+00   0.298168387180440E-03   0.357594E-01   0.708745E+00   0.156123E+04   0.642103E-16
   LPB:   16  -0.452063856044352E+00   0.212454861269353E-03   0.390753E-01   0.651441E+00   0.177501E+04   0.644324E-16
   LPB:   17  -0.452063810430880E+00   0.223139635849253E-03   0.389931E-01   0.693179E+00   0.254338E+04   0.638671E-16
   LPB:   18  -0.452063777783505E+00   0.239057421015160E-03   0.387849E-01   0.719582E+00   0.127829E+04   0.635337E-16
   LPB:   19  -0.452063753389092E+00   0.184854625764586E-03   0.365417E-01   0.793079E+00   0.179076E+04   0.633245E-16
   LPB:   20  -0.452063734036836E+00   0.116607338371605E-03   0.391496E-01   0.740461E+00   0.190982E+04   0.630457E-16
  Finished solving LPB equations
  A_corr:   -0.377726521975549     
 End minimization
 Ecorr=   1513.24092558087     
 A_corr= -0.377726521975549     
 Ecorr_band=  -1513.61865210284     
 End Solvation calculations
DAV:   1    -0.136169302398E+03   -0.20138E-02   -0.90285E-02  4272   0.593E-01    0.949E-02
 Begin Solvation calculations
  rms_SCF =   1.842345815590726E-003 tol =   1.842345815590726E-004
 Begin minimization
 Creating dielectric and ionic cavities
  area:      141.549451057433     
  volume:    669.045015024766     
  Acav:     7.431346180515254E-002
  Solving linear dielectric/ionic screening model
        iter                  A_solv                     rms
   LPB:       -0.453578543901860E+00   0.117599056954390E+00
   LPB:    0  -0.453552971477395E+00   0.703356960355774E-01  -0.123878E-02   0.000000E+00   0.333285E+02  -0.412866E-01
   LPB:    1  -0.453449358623328E+00   0.316239134606816E-01   0.156993E-01   0.000000E+00   0.136113E+03  -0.596950E-18
   LPB:    2  -0.453437389454684E+00   0.123644092093703E-01   0.148044E-01   0.122501E+00   0.154901E+03  -0.162139E-16
   LPB:    3  -0.453432623594066E+00   0.596968535289159E-02   0.203759E-01   0.289303E+00   0.359013E+03  -0.223181E-16
   LPB:    4  -0.453430917716033E+00   0.691857061232303E-02   0.216096E-01   0.337501E+00   0.200863E+03  -0.328301E-16
   LPB:    5  -0.453429965771257E+00   0.327196087977086E-02   0.214797E-01   0.561412E+00   0.173623E+03  -0.358133E-16
   LPB:    6  -0.453429390598760E+00   0.112549736952610E-02   0.320780E-01   0.404584E+00   0.239007E+03  -0.107772E-16
   LPB:    7  -0.453429087832873E+00   0.634573530673992E-03   0.344282E-01   0.490458E+00   0.847569E+03  -0.222366E-18
   LPB:    8  -0.453428915723572E+00   0.423372338193278E-03   0.341922E-01   0.572381E+00   0.575754E+03   0.456475E-18
   LPB:    9  -0.453428811124054E+00   0.329514487403976E-03   0.352007E-01   0.590338E+00   0.810394E+03   0.172129E-17
   LPB:   10  -0.453428744915527E+00   0.257895231700889E-03   0.365263E-01   0.610000E+00   0.762370E+03   0.266674E-17
   LPB:   11  -0.453428702885825E+00   0.191367903623768E-03   0.368668E-01   0.628946E+00   0.692480E+03   0.327547E-17
   LPB:   12  -0.453428675642427E+00   0.167436020431014E-03   0.373396E-01   0.639986E+00   0.973915E+03   0.387769E-17
  Finished solving LPB equations
  A_corr:   -0.379115213837275     
 End minimization
 Ecorr=   1513.17069155334     
 A_corr= -0.379115213837275     
 Ecorr_band=  -1513.54980676717     
 End Solvation calculations
RMM:   2    -0.136169917873E+03   -0.61547E-03   -0.72264E-03  6274   0.174E-01    0.873E-02
 Begin Solvation calculations
  rms_SCF =   1.842345815590726E-003 tol =   1.842345815590726E-004
 Begin minimization
 Creating dielectric and ionic cavities
  area:      141.552556706079     
  volume:    669.053405554826     
  Acav:     7.431509227069151E-002
  Solving linear dielectric/ionic screening model
        iter                  A_solv                     rms
   LPB:       -0.453986367312820E+00   0.111597400715092E+00
   LPB:    0  -0.453985078789343E+00   0.109240676914608E+00  -0.278071E-03   0.000000E+00   0.333281E+02  -0.926758E-02
   LPB:    1  -0.453944342989222E+00   0.123136154668639E-01   0.938692E-02   0.000000E+00   0.768018E+02   0.666226E-19
   LPB:    2  -0.453939903353007E+00   0.191112567305644E-02   0.144950E-01   0.705791E-01   0.241580E+03  -0.457170E-16
   LPB:    3  -0.453939185501637E+00   0.149517621301077E-02   0.255955E-01   0.915675E-01   0.571598E+03  -0.513235E-16
   LPB:    4  -0.453938978392376E+00   0.136499942535654E-02   0.254622E-01   0.290023E+00   0.194995E+03  -0.523639E-16
   LPB:    5  -0.453938882823761E+00   0.122001765016609E-02   0.245414E-01   0.478754E+00   0.311125E+03  -0.634917E-16
   LPB:    6  -0.453938827673752E+00   0.607666204108667E-03   0.262587E-01   0.539333E+00   0.121769E+03  -0.730001E-16
   LPB:    7  -0.453938791239078E+00   0.317654385047566E-03   0.312002E-01   0.556013E+00   0.514796E+03  -0.708456E-16
   LPB:    8  -0.453938764102119E+00   0.152704576389868E-03   0.379715E-01   0.611992E+00   0.268932E+03  -0.684649E-16
  Finished solving LPB equations
  A_corr:   -0.379623671831428     
 End minimization
 Ecorr=   1513.09865980389     
 A_corr= -0.379623671831428     
 Ecorr_band=  -1513.47828347572     
 End Solvation calculations
RMM:   3    -0.136169754899E+03    0.16297E-03   -0.45380E-04  5341   0.429E-02    0.671E-02
 Begin Solvation calculations
  rms_SCF =   1.842345815590726E-003 tol =   1.842345815590726E-004
 Begin minimization
 Creating dielectric and ionic cavities
  area:      141.551102042313     
  volume:    669.054932419515     
  Acav:     7.431432857221419E-002
  Solving linear dielectric/ionic screening model
        iter                  A_solv                     rms
   LPB:       -0.454339476244330E+00   0.653775821055022E-01
   LPB:    0  -0.454338009044655E+00   0.613816946243322E-01  -0.296725E-03   0.000000E+00   0.333280E+02  -0.988927E-02
   LPB:    1  -0.454321184002839E+00   0.124758521100812E-01   0.102144E-01   0.000000E+00   0.839544E+02   0.287278E-18
   LPB:    2  -0.454317472164294E+00   0.169629057088986E-02   0.166063E-01   0.135698E+00   0.193327E+03   0.301672E-16
   LPB:    3  -0.454316938408707E+00   0.909052501206078E-03   0.267908E-01   0.891333E-01   0.366579E+03   0.233585E-16
   LPB:    4  -0.454316774726854E+00   0.886492022111314E-03   0.272183E-01   0.301844E+00   0.324012E+03   0.208904E-16
   LPB:    5  -0.454316700723042E+00   0.108341326293860E-02   0.264098E-01   0.465961E+00   0.377285E+03   0.188880E-16
   LPB:    6  -0.454316656949695E+00   0.743103042122238E-03   0.264280E-01   0.591094E+00   0.968803E+02   0.168828E-16
   LPB:    7  -0.454316626158317E+00   0.465195762123290E-03   0.297516E-01   0.624846E+00   0.321377E+03   0.877145E-17
   LPB:    8  -0.454316603473800E+00   0.211958833749885E-03   0.351502E-01   0.623566E+00   0.162005E+03   0.900350E-17
   LPB:    9  -0.454316586965130E+00   0.138691876248371E-03   0.384800E-01   0.664776E+00   0.313524E+03   0.133651E-16
  Finished solving LPB equations
  A_corr:   -0.380002258392916     
 End minimization
 Ecorr=   1513.01615914513     
 A_corr= -0.380002258392916     
 Ecorr_band=  -1513.39616140352     
 End Solvation calculations
RMM:   4    -0.136169715557E+03    0.39342E-04   -0.13386E-04  3728   0.290E-02    0.473E-02
 Begin Solvation calculations
  rms_SCF =   1.842345815590726E-003 tol =   1.842345815590726E-004
 Begin minimization
 Creating dielectric and ionic cavities
  area:      141.553941557751     
  volume:    669.051960169565     
  Acav:     7.431581931781925E-002
  Solving linear dielectric/ionic screening model
        iter                  A_solv                     rms
   LPB:       -0.455843881503690E+00   0.141861591586659E+00
   LPB:    0  -0.455826586349339E+00   0.116955226040092E+00  -0.101876E-02   0.000000E+00   0.333282E+02  -0.339534E-01
   LPB:    1  -0.455720959963233E+00   0.412219266203324E-01   0.121646E-01   0.000000E+00   0.965445E+02   0.100001E-17
   LPB:    2  -0.455704706263568E+00   0.602037557824108E-02   0.128762E-01   0.145375E+00   0.190170E+03   0.374516E-15
   LPB:    3  -0.455700721549249E+00   0.438684192550411E-02   0.236416E-01   0.133522E+00   0.443539E+03   0.436938E-15
   LPB:    4  -0.455699561882797E+00   0.416688294642933E-02   0.239309E-01   0.287511E+00   0.152144E+03   0.445504E-15
   LPB:    5  -0.455699024273953E+00   0.262423351102879E-02   0.222767E-01   0.498016E+00   0.249448E+03   0.449521E-15
   LPB:    6  -0.455698709315322E+00   0.955822468339920E-03   0.291095E-01   0.448334E+00   0.147759E+03   0.430601E-15
   LPB:    7  -0.455698526808320E+00   0.556677669530031E-03   0.322114E-01   0.523662E+00   0.492879E+03   0.420010E-15
   LPB:    8  -0.455698412549849E+00   0.317486091655163E-03   0.348674E-01   0.578361E+00   0.289237E+03   0.414765E-15
   LPB:    9  -0.455698339781718E+00   0.265326832715554E-03   0.369550E-01   0.600895E+00   0.319613E+03   0.414942E-15
   LPB:   10  -0.455698292915908E+00   0.214994253001562E-03   0.374841E-01   0.634952E+00   0.283719E+03   0.415163E-15
   LPB:   11  -0.455698262449862E+00   0.200102534984058E-03   0.367241E-01   0.663523E+00   0.317074E+03   0.416151E-15
   LPB:   12  -0.455698242301586E+00   0.178042180027104E-03   0.360439E-01   0.673817E+00   0.288578E+03   0.416846E-15
  Finished solving LPB equations
  A_corr:   -0.381382422983767     
 End minimization
 Ecorr=   1512.80072518932     
 A_corr= -0.381382422983767     
 Ecorr_band=  -1513.18210761231     
 End Solvation calculations
RMM:   5    -0.136169674093E+03    0.41464E-04   -0.44654E-05  2735   0.251E-02    0.185E-02
 Begin Solvation calculations
  rms_SCF =   1.842345815590726E-003 tol =   1.842345815590726E-004
 Begin minimization
 Creating dielectric and ionic cavities
  area:      141.560238215436     
  volume:    669.067743177244     
  Acav:     7.431912506310374E-002
  Solving linear dielectric/ionic screening model
        iter                  A_solv                     rms
   LPB:       -0.456745485022625E+00   0.692294623293892E-01
   LPB:    0  -0.456737744104559E+00   0.410104965618179E-01  -0.681570E-03   0.000000E+00   0.333274E+02  -0.227150E-01
   LPB:    1  -0.456694801645293E+00   0.157024889619959E-01   0.164680E-01   0.000000E+00   0.134861E+03  -0.103192E-17
   LPB:    2  -0.456691043055121E+00   0.814342644519218E-02   0.165527E-01   0.870782E-01   0.127221E+03   0.263288E-15
   LPB:    3  -0.456689870559148E+00   0.300417209203857E-02   0.175024E-01   0.295024E+00   0.180150E+03   0.282458E-15
   LPB:    4  -0.456689382598627E+00   0.293878911110568E-02   0.225623E-01   0.322841E+00   0.193338E+03   0.278030E-15
   LPB:    5  -0.456689163304598E+00   0.226991782582991E-02   0.208246E-01   0.486910E+00   0.224881E+03   0.275954E-15
   LPB:    6  -0.456689023962998E+00   0.721635923339345E-03   0.265327E-01   0.498711E+00   0.109155E+03   0.288372E-15
   LPB:    7  -0.456688940407772E+00   0.412294105850118E-03   0.324101E-01   0.490900E+00   0.356412E+03   0.303280E-15
   LPB:    8  -0.456688882802862E+00   0.269052783428820E-03   0.363167E-01   0.615262E+00   0.199555E+03   0.311804E-15
   LPB:    9  -0.456688841566551E+00   0.229374416961042E-03   0.383524E-01   0.677852E+00   0.202705E+03   0.316233E-15
   LPB:   10  -0.456688812996903E+00   0.206901357587359E-03   0.373995E-01   0.710480E+00   0.177654E+03   0.319401E-15
   LPB:   11  -0.456688793484146E+00   0.182622414319483E-03   0.357666E-01   0.714170E+00   0.244393E+03   0.321397E-15
  Finished solving LPB equations
  A_corr:   -0.382369668421042     
 End minimization
 Ecorr=   1512.55819270993     
 A_corr= -0.382369668421042     
 Ecorr_band=  -1512.94056237835     
 End Solvation calculations
RMM:   6    -0.136169669954E+03    0.41386E-05   -0.56160E-05  3493   0.342E-02
 Begin Solvation calculations
  rms_SCF =   1.842345815590726E-003 tol =   1.842345815590726E-004
 Begin minimization
 Creating dielectric and ionic cavities
  area:      141.566567209902     
  volume:    669.078546474969     
  Acav:     7.432244778519868E-002
  Solving linear dielectric/ionic screening model
        iter                  A_solv                     rms
   LPB:       -0.457162989288461E+00   0.429945059940136E-01
   LPB:    0  -0.457161396841933E+00   0.342266612003588E-01  -0.309136E-03   0.000000E+00   0.333269E+02  -0.103026E-01
   LPB:    1  -0.457151570901576E+00   0.135242541675795E-01   0.120486E-01   0.000000E+00   0.101090E+03   0.792450E-18
   LPB:    2  -0.457150121166303E+00   0.186301264863960E-02   0.127436E-01   0.139495E+00   0.129355E+03  -0.311207E-17
   LPB:    3  -0.457149811495651E+00   0.123650052356972E-02   0.221152E-01   0.123087E+00   0.307736E+03   0.119593E-17
   LPB:    4  -0.457149716396425E+00   0.103174215817777E-02   0.252428E-01   0.269048E+00   0.112591E+03   0.182482E-17
   LPB:    5  -0.457149672542544E+00   0.870160599775458E-03   0.236524E-01   0.492146E+00   0.321221E+03  -0.677343E-17
   LPB:    6  -0.457149644523631E+00   0.336403369282757E-03   0.282326E-01   0.535263E+00   0.885689E+02  -0.135061E-16
   LPB:    7  -0.457149622067046E+00   0.226836957647163E-03   0.369479E-01   0.612425E+00   0.179819E+03  -0.125577E-16
   LPB:    8  -0.457149601311340E+00   0.144736717376632E-03   0.421325E-01   0.810526E+00   0.106574E+03  -0.134032E-16
  Finished solving LPB equations
  A_corr:   -0.382827153526141     
 End minimization
 Ecorr=   1512.43183637809     
 A_corr= -0.382827153526141     
 Ecorr_band=  -1512.81466353161     
 End Solvation calculations
   3 F= -.13616967E+03 E0= -.13616711E+03  d E =-.237931E-02
quench:  g(F)=  0.000E+00 g(S)=  0.000E+00 dE (1.order)= 0.000E+00
 bond charge predicted
       N       E                     dE             d eps       ncg     rms          rms(c)
 Begin Solvation calculations
  rms_SCF =   1.842345815590726E-003 tol =   1.842345815590726E-004
 Begin minimization
 Creating dielectric and ionic cavities
  area:      141.665978083237     
  volume:    669.052162264995     
  Acav:     7.437463849369917E-002
  Solving linear dielectric/ionic screening model
        iter                  A_solv                     rms
   LPB:       -0.460123074924873E+00   0.496664779552181E-02
   LPB:    0  -0.460123074717331E+00   0.501807525425492E-02  -0.352908E-05   0.000000E+00   0.333282E+02  -0.117618E-03
   LPB:    1  -0.458213927375084E+00   0.173089578424649E-02   0.152802E-01   0.000000E+00   0.598943E+06  -0.710528E-21
   LPB:    2  -0.458080375900457E+00   0.190446589253684E-02   0.252186E-01   0.423853E-01   0.136391E+06  -0.682238E-17
   LPB:    3  -0.458044197907024E+00   0.395587813296958E-02   0.313412E-01   0.217973E+00   0.243445E+05  -0.701399E-17
   LPB:    4  -0.458029293143727E+00   0.111433392962493E-01   0.345249E-01   0.373993E+00   0.204655E+04  -0.593161E-17
   LPB:    5  -0.458023148614604E+00   0.176842581781710E-01   0.253155E-01   0.562224E+00   0.220029E+03  -0.508232E-18
   LPB:    6  -0.458018791145848E+00   0.610675493932896E-02   0.198867E-01   0.902755E+00   0.248565E+03   0.508895E-18
   LPB:    7  -0.458015194891590E+00   0.125455986956999E-02   0.354773E-01   0.462624E+00   0.117195E+04   0.164195E-17
   LPB:    8  -0.458012952886927E+00   0.141407228742774E-02   0.394249E-01   0.561004E+00   0.458894E+04  -0.433091E-17
   LPB:    9  -0.458011608575285E+00   0.261348874824551E-02   0.382347E-01   0.618268E+00   0.546656E+03  -0.797125E-17
   LPB:   10  -0.458010872864757E+00   0.392032205672103E-02   0.309302E-01   0.676521E+00   0.364374E+03   0.484151E-17
   LPB:   11  -0.458010389054907E+00   0.233406316885135E-02   0.255065E-01   0.797442E+00   0.140474E+03   0.407786E-16
   LPB:   12  -0.458010006871577E+00   0.117491871938762E-02   0.323137E-01   0.623538E+00   0.800381E+03   0.360486E-16
   LPB:   13  -0.458009746998641E+00   0.864235856116472E-03   0.348869E-01   0.629815E+00   0.530023E+03   0.474815E-16
   LPB:   14  -0.458009569215830E+00   0.562946928046537E-03   0.328403E-01   0.726748E+00   0.990292E+03   0.538505E-16
   LPB:   15  -0.458009444086465E+00   0.318356301433037E-03   0.362003E-01   0.638506E+00   0.113076E+04   0.579240E-16
   LPB:   16  -0.458009356118224E+00   0.243054863327490E-03   0.387862E-01   0.656148E+00   0.155415E+04   0.590815E-16
   LPB:   17  -0.458009301453858E+00   0.273844679683557E-03   0.376299E-01   0.640504E+00   0.130388E+04   0.599202E-16
   LPB:   18  -0.458009263379856E+00   0.277654447971758E-03   0.371172E-01   0.706127E+00   0.112066E+04   0.605980E-16
   LPB:   19  -0.458009236025447E+00   0.195998586500591E-03   0.355062E-01   0.751051E+00   0.106035E+04   0.611001E-16
   LPB:   20  -0.458009215641198E+00   0.109223395550432E-03   0.379758E-01   0.696730E+00   0.160144E+04   0.611008E-16
  Finished solving LPB equations
  A_corr:   -0.383634577147499     
 End minimization
 Ecorr=   1512.26918861378     
 A_corr= -0.383634577147499     
 Ecorr_band=  -1512.65282319093     
 End Solvation calculations
DAV:   1    -0.136170998676E+03   -0.13246E-02   -0.12193E-01  4194   0.802E-01    0.820E-02
 Begin Solvation calculations
  rms_SCF =   1.842345815590726E-003 tol =   1.842345815590726E-004
 Begin minimization
 Creating dielectric and ionic cavities
  area:      141.592455892765     
  volume:    669.009866323127     
  Acav:     7.433603934370155E-002
  Solving linear dielectric/ionic screening model
        iter                  A_solv                     rms
   LPB:       -0.459674232893775E+00   0.163366888823488E+00
   LPB:    0  -0.459649451256174E+00   0.133651187843167E+00  -0.121944E-02   0.000000E+00   0.333301E+02  -0.406442E-01
[...]
  Solving linear dielectric/ionic screening model
        iter                  A_solv                     rms
   LPB:       -0.497320822530608E+00   0.231467636452775E-03
   LPB:    0  -0.497320822530608E+00   0.231466618065218E-03   0.343925E-09   0.000000E+00   0.333712E+02   0.114772E-07
   LPB:    1  -0.497315448858222E+00   0.814375465890660E-04   0.158650E-01   0.000000E+00   0.794987E+06  -0.182354E-24
   LPB:    2  -0.497314911969871E+00   0.433949978270183E-04   0.264546E-01   0.599173E-01   0.212611E+06  -0.733758E-19
   LPB:    3  -0.497314745460974E+00   0.448455738188977E-04   0.326919E-01   0.250966E+00   0.105195E+06  -0.763093E-19
   LPB:    4  -0.497314672075857E+00   0.921914142885940E-04   0.361363E-01   0.398718E+00   0.425354E+05  -0.117104E-18
   LPB:    5  -0.497314634553564E+00   0.250475628432086E-03   0.375823E-01   0.491634E+00   0.692516E+04   0.403010E-18
   LPB:    6  -0.497314615268889E+00   0.623433347405136E-03   0.346882E-01   0.556832E+00   0.665689E+03   0.466448E-18
   LPB:    7  -0.497314606388923E+00   0.587189607182104E-03   0.209246E-01   0.763352E+00   0.177888E+03   0.150819E-17
   LPB:    8  -0.497314598591632E+00   0.237555248045880E-03   0.249867E-01   0.735328E+00   0.379495E+03   0.200769E-17
   LPB:    9  -0.497314593599874E+00   0.305577970950595E-03   0.317189E-01   0.504312E+00   0.386529E+03   0.225287E-17
   LPB:   10  -0.497314590745519E+00   0.224655257237649E-03   0.240925E-01   0.752819E+00   0.166550E+03   0.395916E-18
   LPB:   11  -0.497314588371734E+00   0.818440020592414E-04   0.303519E-01   0.660130E+00   0.423160E+03   0.232593E-17
   LPB:   12  -0.497314586709841E+00   0.495386517593305E-04   0.375821E-01   0.565414E+00   0.150940E+04   0.230311E-17
   LPB:   13  -0.497314585669043E+00   0.493274511197178E-04   0.354649E-01   0.663659E+00   0.160283E+04   0.210459E-17
   LPB:   14  -0.497314584993992E+00   0.364525763611466E-04   0.331065E-01   0.694794E+00   0.134632E+04   0.219420E-17
   LPB:   15  -0.497314584519396E+00   0.199211580089696E-04   0.351862E-01   0.661499E+00   0.213114E+04   0.218171E-17
   LPB:   16  -0.497314584188736E+00   0.141840625937752E-04   0.391133E-01   0.626766E+00   0.362972E+04   0.221410E-17
  Finished solving LPB equations
  A_corr:   -0.422835981549143     
 End minimization
 Ecorr=   1506.03051385436     
 A_corr= -0.422835981549143     
 Ecorr_band=  -1506.45334983590     
 End Solvation calculations
DAV:   1    -0.136201450492E+03    0.81509E-04   -0.49137E-04  5094   0.768E-02    0.919E-03
 Begin Solvation calculations
  rms_SCF =   1.550243575555829E-004 tol =   1.550243575555829E-005
 Begin minimization
 Creating dielectric and ionic cavities
  area:      141.863756408617     
  volume:    668.135041443449     
  Acav:     7.447847211452389E-002
  Solving linear dielectric/ionic screening model
        iter                  A_solv                     rms
   LPB:       -0.497281930147734E+00   0.241779988715092E-01
   LPB:    0  -0.497281924166522E+00   0.241285463365058E-01   0.189332E-04   0.000000E+00   0.333712E+02   0.631823E-03
   LPB:    1  -0.497280208504312E+00   0.231948167491510E-02   0.890442E-02   0.000000E+00   0.742821E+02  -0.533250E-19
   LPB:    2  -0.497280038835647E+00   0.434958906121575E-03   0.162464E-01   0.542024E-01   0.161129E+03  -0.449433E-17
   LPB:    3  -0.497280014195837E+00   0.289520117228078E-03   0.239058E-01   0.986940E-01   0.318466E+03  -0.510636E-17
   LPB:    4  -0.497280006786965E+00   0.252414524185793E-03   0.262246E-01   0.274099E+00   0.253077E+03  -0.529884E-17
   LPB:    5  -0.497280003647942E+00   0.200662120466808E-03   0.238785E-01   0.465313E+00   0.232063E+03  -0.516467E-17
   LPB:    6  -0.497280001921396E+00   0.118771291394945E-03   0.257675E-01   0.509705E+00   0.192132E+03  -0.608610E-17
   LPB:    7  -0.497280000873288E+00   0.556248377010645E-04   0.290889E-01   0.537740E+00   0.354352E+03  -0.542215E-17
   LPB:    8  -0.497280000209424E+00   0.221309016977210E-04   0.348554E-01   0.528605E+00   0.487746E+03  -0.543282E-17
   LPB:    9  -0.497279999801497E+00   0.139695994103784E-04   0.375794E-01   0.569933E+00   0.741200E+03  -0.489313E-17
  Finished solving LPB equations
  A_corr:   -0.422801527686973     
 End minimization
 Ecorr=   1506.02773876857     
 A_corr= -0.422801527686973     
 Ecorr_band=  -1506.45054029626     
 End Solvation calculations
RMM:   2    -0.136201456729E+03   -0.62370E-05   -0.44418E-05  2793   0.212E-02
 Begin Solvation calculations
  rms_SCF =   1.550243575555829E-004 tol =   1.550243575555829E-005
 Begin minimization
 Creating dielectric and ionic cavities
  area:      141.864395560530     
  volume:    668.134470715808     
  Acav:     7.447880766927811E-002
  Solving linear dielectric/ionic screening model
        iter                  A_solv                     rms
   LPB:       -0.497301096524428E+00   0.209640918395633E-01
   LPB:    0  -0.497301094519723E+00   0.209433491689070E-01  -0.109611E-04   0.000000E+00   0.333712E+02  -0.365785E-03
   LPB:    1  -0.497299845258186E+00   0.200021121245241E-02   0.876065E-02   0.000000E+00   0.741895E+02  -0.272079E-19
   LPB:    2  -0.497299740375169E+00   0.368283310252400E-03   0.161064E-01   0.456656E-01   0.135213E+03   0.306392E-18
   LPB:    3  -0.497299726984165E+00   0.207920656744707E-03   0.230630E-01   0.891642E-01   0.218170E+03   0.224895E-18
   LPB:    4  -0.497299723113812E+00   0.176328907137318E-03   0.260542E-01   0.255844E+00   0.251363E+03   0.189877E-17
   LPB:    5  -0.497299721478311E+00   0.142899509508674E-03   0.240054E-01   0.458637E+00   0.214631E+03   0.280322E-17
   LPB:    6  -0.497299720657991E+00   0.819660937865644E-04   0.244863E-01   0.491722E+00   0.191977E+03   0.314205E-17
   LPB:    7  -0.497299720206377E+00   0.343269527058903E-04   0.276643E-01   0.487288E+00   0.336398E+03   0.348955E-17
   LPB:    8  -0.497299719947099E+00   0.133701577783006E-04   0.339088E-01   0.468390E+00   0.606368E+03   0.356637E-17
  Finished solving LPB equations
  A_corr:   -0.422820912277821     
 End minimization
 Ecorr=   1506.03168629618     
 A_corr= -0.422820912277821     
 Ecorr_band=  -1506.45450720846     
 End Solvation calculations
 165 F= -.13620146E+03 E0= -.13619937E+03  d E =0.813214E-04
quench:  g(F)=  0.000E+00 g(S)=  0.000E+00 dE (1.order)= 0.000E+00
 bond charge predicted
       N       E                     dE             d eps       ncg     rms          rms(c)
 Begin Solvation calculations
  rms_SCF =   1.550243575555829E-004 tol =   1.550243575555829E-005
 Begin minimization
 Creating dielectric and ionic cavities
  area:      141.865277310210     
  volume:    668.134742541393     
  Acav:     7.447927058786050E-002
  Solving linear dielectric/ionic screening model
        iter                  A_solv                     rms
   LPB:       -0.497300171629069E+00   0.255972101167224E-03
   LPB:    0  -0.497300171629065E+00   0.256023431845504E-03  -0.151458E-07   0.000000E+00   0.333712E+02  -0.505432E-06
   LPB:    1  -0.497294262967943E+00   0.991197653234865E-04   0.154212E-01   0.000000E+00   0.756076E+06   0.478923E-22
   LPB:    2  -0.497293770608540E+00   0.507276926305159E-04   0.258753E-01   0.496620E-01   0.134134E+06   0.272975E-19
   LPB:    3  -0.497293622416001E+00   0.718850158926902E-04   0.324786E-01   0.239791E+00   0.720888E+05   0.627757E-19
   LPB:    4  -0.497293556861551E+00   0.188085508424318E-03   0.362050E-01   0.396831E+00   0.174291E+05   0.157233E-18
   LPB:    5  -0.497293523540283E+00   0.536310322755839E-03   0.366574E-01   0.502026E+00   0.182056E+04   0.192547E-18
   LPB:    6  -0.497293508539085E+00   0.864137966648499E-03   0.258944E-01   0.637323E+00   0.227069E+03  -0.317567E-18
   LPB:    7  -0.497293497873855E+00   0.318265737529019E-03   0.200361E-01   0.918836E+00   0.241508E+03  -0.123400E-17
   LPB:    8  -0.497293489334221E+00   0.195318165837699E-03   0.340978E-01   0.470495E+00   0.101072E+04  -0.276663E-17
   LPB:    9  -0.497293484547588E+00   0.305866644435917E-03   0.322042E-01   0.593478E+00   0.318245E+03  -0.412281E-17
   LPB:   10  -0.497293481715538E+00   0.202870948972754E-03   0.242682E-01   0.785136E+00   0.176906E+03  -0.318826E-17
   LPB:   11  -0.497293479369120E+00   0.758355057031261E-04   0.317934E-01   0.632420E+00   0.483461E+03  -0.249155E-17
   LPB:   12  -0.497293477740880E+00   0.522230450177898E-04   0.378758E-01   0.582491E+00   0.156986E+04  -0.292291E-17
   LPB:   13  -0.497293476706356E+00   0.501994514082981E-04   0.348688E-01   0.690154E+00   0.146895E+04  -0.351414E-17
   LPB:   14  -0.497293476015502E+00   0.349618200758911E-04   0.333432E-01   0.698355E+00   0.139890E+04  -0.384244E-17
   LPB:   15  -0.497293475521845E+00   0.190716181257786E-04   0.360106E-01   0.661631E+00   0.235332E+04  -0.410274E-17
   LPB:   16  -0.497293475178691E+00   0.147829464103481E-04   0.395174E-01   0.633438E+00   0.384889E+04  -0.433041E-17
  Finished solving LPB equations
  A_corr:   -0.422814204590831     
 End minimization
 Ecorr=   1506.03312522732     
 A_corr= -0.422814204590831     
 Ecorr_band=  -1506.45593943192     
 End Solvation calculations
DAV:   1    -0.136201372842E+03    0.77650E-04   -0.45979E-04  5094   0.763E-02    0.859E-03
 Begin Solvation calculations
  rms_SCF =   1.550243575555829E-004 tol =   1.550243575555829E-005
 Begin minimization
 Creating dielectric and ionic cavities
  area:      141.864234038280     
  volume:    668.134025950789     
  Acav:     7.447872287009709E-002
  Solving linear dielectric/ionic screening model
        iter                  A_solv                     rms
   LPB:       -0.497291047484860E+00   0.140448557066075E-01
   LPB:    0  -0.497291045693922E+00   0.140285042542587E-01  -0.103602E-04   0.000000E+00   0.333712E+02  -0.345733E-03
   LPB:    1  -0.497290439650599E+00   0.143336683894840E-02   0.902206E-02   0.000000E+00   0.756541E+02   0.599122E-21
   LPB:    2  -0.497290361527374E+00   0.284310520095552E-03   0.175532E-01   0.662562E-01   0.174509E+03   0.903989E-19
   LPB:    3  -0.497290349849115E+00   0.148362514253663E-03   0.241117E-01   0.108824E+00   0.480764E+03  -0.120106E-18
   LPB:    4  -0.497290345918262E+00   0.727573556398151E-04   0.282908E-01   0.286874E+00   0.520139E+03  -0.107033E-17
   LPB:    5  -0.497290344254109E+00   0.600179718103802E-04   0.302971E-01   0.395322E+00   0.684090E+03  -0.136720E-17
   LPB:    6  -0.497290343400063E+00   0.780631637300751E-04   0.315082E-01   0.493475E+00   0.477893E+03  -0.145719E-17
   LPB:    7  -0.497290342956702E+00   0.963516000942305E-04   0.280936E-01   0.582226E+00   0.221726E+03  -0.160902E-17
   LPB:    8  -0.497290342664038E+00   0.500332195314019E-04   0.255100E-01   0.726960E+00   0.166882E+03  -0.176804E-17
   LPB:    9  -0.497290342439195E+00   0.199277142988009E-04   0.340538E-01   0.575511E+00   0.588200E+03  -0.153251E-17
   LPB:   10  -0.497290342287306E+00   0.112122910354396E-04   0.378316E-01   0.608077E+00   0.857224E+03  -0.945114E-18
  Finished solving LPB equations
  A_corr:   -0.422811619417209     
 End minimization
 Ecorr=   1506.03304141654     
 A_corr= -0.422811619417209     
 Ecorr_band=  -1506.45585303596     
 End Solvation calculations
RMM:   2    -0.136201377531E+03   -0.46883E-05   -0.38459E-05  2708   0.194E-02
 Begin Solvation calculations
  rms_SCF =   1.550243575555829E-004 tol =   1.550243575555829E-005
 Begin minimization
 Creating dielectric and ionic cavities
  area:      141.864842751644     
  volume:    668.134470748614     
  Acav:     7.447904244461301E-002
  Solving linear dielectric/ionic screening model
        iter                  A_solv                     rms
   LPB:       -0.497306352557187E+00   0.169842802139114E-01
   LPB:    0  -0.497306352552741E+00   0.169847125328018E-01   0.516157E-06   0.000000E+00   0.333712E+02   0.172248E-04
   LPB:    1  -0.497305530768834E+00   0.163055261945703E-02   0.876277E-02   0.000000E+00   0.741826E+02  -0.201502E-21
   LPB:    2  -0.497305460886773E+00   0.284828249340558E-03   0.161757E-01   0.460667E-01   0.134284E+03  -0.683891E-18
   LPB:    3  -0.497305451946122E+00   0.147538525336204E-03   0.231191E-01   0.895146E-01   0.241910E+03  -0.478853E-18
   LPB:    4  -0.497305449350396E+00   0.111544871389689E-03   0.270096E-01   0.248510E+00   0.283176E+03  -0.194746E-18
   LPB:    5  -0.497305448296519E+00   0.112938698589727E-03   0.257216E-01   0.426336E+00   0.269156E+03   0.560059E-18
   LPB:    6  -0.497305447764704E+00   0.820720732381294E-04   0.249461E-01   0.520313E+00   0.155272E+03   0.166295E-18
   LPB:    7  -0.497305447452265E+00   0.377195139392512E-04   0.263249E-01   0.556726E+00   0.265907E+03  -0.456469E-18
   LPB:    8  -0.497305447256878E+00   0.133586357878859E-04   0.334349E-01   0.492377E+00   0.385523E+03  -0.457815E-18
  Finished solving LPB equations
  A_corr:   -0.422826404812265     
 End minimization
 Ecorr=   1506.03226079832     
 A_corr= -0.422826404812265     
 Ecorr_band=  -1506.45508720313     
 End Solvation calculations
 166 F= -.13620138E+03 E0= -.13619929E+03  d E =0.791982E-04
quench:  g(F)=  0.000E+00 g(S)=  0.000E+00 dE (1.order)= 0.000E+00
 bond charge predicted
       N       E                     dE             d eps       ncg     rms          rms(c)
 Begin Solvation calculations
  rms_SCF =   1.550243575555829E-004 tol =   1.550243575555829E-005
 Begin minimization
 Creating dielectric and ionic cavities
  area:      141.864544241147     
  volume:    668.134547981495     
  Acav:     7.447888572660208E-002
  Solving linear dielectric/ionic screening model
        iter                  A_solv                     rms
   LPB:       -0.497306753835217E+00   0.224154465308528E-03
   LPB:    0  -0.497306753835217E+00   0.224144307228503E-03   0.394025E-08   0.000000E+00   0.333712E+02   0.131491E-06
   LPB:    1  -0.497301731251751E+00   0.787428829945157E-04   0.158217E-01   0.000000E+00   0.797383E+06  -0.115421E-22
   LPB:    2  -0.497301234804528E+00   0.410977103726699E-04   0.264442E-01   0.591382E-01   0.210444E+06   0.242099E-19
   LPB:    3  -0.497301080693453E+00   0.396897357223623E-04   0.327213E-01   0.250877E+00   0.106526E+06   0.763357E-20
   LPB:    4  -0.497301012524847E+00   0.784856022282469E-04   0.361920E-01   0.399915E+00   0.470322E+05  -0.500979E-19
   LPB:    5  -0.497300977528475E+00   0.213232715636172E-03   0.376875E-01   0.493008E+00   0.866416E+04  -0.416947E-19
   LPB:    6  -0.497300959249188E+00   0.551133902579671E-03   0.355129E-01   0.554304E+00   0.829194E+03   0.238714E-18
   LPB:    7  -0.497300950973399E+00   0.598093509168747E-03   0.219296E-01   0.733173E+00   0.184327E+03  -0.486985E-18
   LPB:    8  -0.497300943907723E+00   0.227560663355512E-03   0.236946E-01   0.790179E+00   0.335944E+03  -0.113683E-17
   LPB:    9  -0.497300939135513E+00   0.272081257024019E-03   0.325192E-01   0.492125E+00   0.470188E+03  -0.136507E-17
   LPB:   10  -0.497300936486761E+00   0.233941362257215E-03   0.249064E-01   0.724687E+00   0.170097E+03   0.545551E-18
   LPB:   11  -0.497300934323261E+00   0.909279382494856E-04   0.288217E-01   0.705840E+00   0.340997E+03   0.277986E-18
   LPB:   12  -0.497300932758937E+00   0.512180717518302E-04   0.370369E-01   0.562672E+00   0.122903E+04   0.107113E-17
   LPB:   13  -0.497300931771261E+00   0.488323930217493E-04   0.353249E-01   0.661974E+00   0.150706E+04   0.157540E-17
   LPB:   14  -0.497300931129499E+00   0.355837486487076E-04   0.330459E-01   0.694581E+00   0.132217E+04   0.182126E-17
   LPB:   15  -0.497300930676898E+00   0.193558311524430E-04   0.352664E-01   0.660842E+00   0.214649E+04   0.202848E-17
   LPB:   16  -0.497300930361367E+00   0.137322799378920E-04   0.391330E-01   0.628268E+00   0.368088E+04   0.222636E-17
  Finished solving LPB equations
  A_corr:   -0.422822044634765     
 End minimization
 Ecorr=   1506.03318071518     
 A_corr= -0.422822044634765     
 Ecorr_band=  -1506.45600275982     
 End Solvation calculations
DAV:   1    -0.136201294258E+03    0.78585E-04   -0.44911E-04  5103   0.720E-02    0.847E-03
 Begin Solvation calculations
  rms_SCF =   1.550243575555829E-004 tol =   1.550243575555829E-005
 Begin minimization
 Creating dielectric and ionic cavities
  area:      141.864301239774     
  volume:    668.135895980094     
  Acav:     7.447875815088136E-002
  Solving linear dielectric/ionic screening model
        iter                  A_solv                     rms
   LPB:       -0.497272693032873E+00   0.215888817416599E-01
   LPB:    0  -0.497272689069772E+00   0.215512236928156E-01   0.154116E-04   0.000000E+00   0.333711E+02   0.514302E-03
   LPB:    1  -0.497271316280364E+00   0.207125756973640E-02   0.890934E-02   0.000000E+00   0.744264E+02  -0.286405E-19
   LPB:    2  -0.497271178805456E+00   0.390120993786380E-03   0.163093E-01   0.547052E-01   0.162932E+03   0.946074E-18
   LPB:    3  -0.497271158701198E+00   0.255747947863555E-03   0.239191E-01   0.997140E-01   0.329803E+03   0.192756E-17
   LPB:    4  -0.497271152631501E+00   0.222451259567176E-03   0.264128E-01   0.273407E+00   0.262921E+03   0.282182E-17
   LPB:    5  -0.497271150074401E+00   0.181981378522468E-03   0.240758E-01   0.462183E+00   0.237095E+03   0.404197E-17
   LPB:    6  -0.497271148671928E+00   0.110250987688957E-03   0.256599E-01   0.514603E+00   0.190006E+03   0.475674E-17
   LPB:    7  -0.497271147815507E+00   0.516775479797921E-04   0.289011E-01   0.542167E+00   0.347140E+03   0.419357E-17
   LPB:    8  -0.497271147268428E+00   0.204317383807147E-04   0.348257E-01   0.530124E+00   0.488767E+03   0.327595E-17
   LPB:    9  -0.497271146930169E+00   0.128532336656420E-04   0.376582E-01   0.571793E+00   0.765482E+03   0.238734E-17
  Finished solving LPB equations
  A_corr:   -0.422792388779288     
 End minimization
 Ecorr=   1506.03100530410     
 A_corr= -0.422792388779288     
 Ecorr_band=  -1506.45379769288     
 End Solvation calculations
RMM:   2    -0.136201299546E+03   -0.52880E-05   -0.38721E-05  2735   0.201E-02
 Begin Solvation calculations
  rms_SCF =   1.550243575555829E-004 tol =   1.550243575555829E-005
 Begin minimization
 Creating dielectric and ionic cavities
  area:      141.864883183567     
  volume:    668.135338659137     
  Acav:     7.447906367137258E-002
  Solving linear dielectric/ionic screening model
        iter                  A_solv                     rms
   LPB:       -0.497290816982993E+00   0.191520582236251E-01
   LPB:    0  -0.497290815059202E+00   0.191311035338872E-01  -0.107376E-04   0.000000E+00   0.333711E+02  -0.358327E-03
   LPB:    1  -0.497289772246711E+00   0.182874051605290E-02   0.876412E-02   0.000000E+00   0.741583E+02  -0.161467E-19
   LPB:    2  -0.497289684401236E+00   0.337432412228334E-03   0.161026E-01   0.458485E-01   0.135511E+03  -0.115256E-17
   LPB:    3  -0.497289673171878E+00   0.191619636822570E-03   0.230654E-01   0.892426E-01   0.217900E+03  -0.232471E-17
   LPB:    4  -0.497289669927772E+00   0.162771406309292E-03   0.260019E-01   0.256268E+00   0.249936E+03  -0.632145E-17
   LPB:    5  -0.497289668555435E+00   0.130822651576390E-03   0.239462E-01   0.459341E+00   0.213165E+03  -0.844655E-17
   LPB:    6  -0.497289667864494E+00   0.745742581291064E-04   0.245492E-01   0.491110E+00   0.192750E+03  -0.911935E-17
   LPB:    7  -0.497289667483804E+00   0.313649674656710E-04   0.277542E-01   0.487348E+00   0.338595E+03  -0.928094E-17
   LPB:    8  -0.497289667265026E+00   0.122527381917418E-04   0.339562E-01   0.469723E+00   0.599011E+03  -0.936131E-17
  Finished solving LPB equations
  A_corr:   -0.422810603593653     
 End minimization
 Ecorr=   1506.03490592025     
 A_corr= -0.422810603593653     
 Ecorr_band=  -1506.45771652384     
 End Solvation calculations
 167 F= -.13620130E+03 E0= -.13619921E+03  d E =0.779848E-04
quench:  g(F)=  0.000E+00 g(S)=  0.000E+00 dE (1.order)= 0.000E+00
 reached required accuracy - stopping structural energy minimisation
