 vasp.5.4.4.18Apr17-6-g9f103f2a35 (build Feb 06 2024 13:54:16) complex          
  
 POSCAR found type information on POSCAR  Cu Pd Cu N  O 
 05/POSCAR found :  5 types and      40 ions
 scaLAPACK will be used

 ----------------------------------------------------------------------------- 
|                                                                             |
|  ADVICE TO THIS USER RUNNING 'VASP/VAMP'   (HEAR YOUR MASTER'S VOICE ...):  |
|                                                                             |
|      You enforced a specific xc-type in the INCAR file,                     |
|      a different type was found on the POTCAR file                          |
|          I HOPE YOU KNOW, WHAT YOU ARE  DOING                               |
|                                                                             |
 ----------------------------------------------------------------------------- 

 LDA part: xc-table for Pade appr. of Perdew
 POSCAR found type information on POSCAR  Cu Pd Cu N  O 
 00/POSCAR found :  5 types and      40 ions
 POSCAR found type information on POSCAR  Cu Pd Cu N  O 
 06/POSCAR found :  5 types and      40 ions
 Jacobian:    20.5888137679208     
 POSCAR, INCAR and KPOINTS ok, starting setup
 FFT: planning ...
 WAVECAR not read
 entering main loop
       N       E                     dE             d eps       ncg     rms          rms(c)
DAV:   1     0.418586861428E+04    0.41859E+04   -0.17846E+05  4032   0.203E+03
DAV:   2     0.610812947350E+03   -0.35751E+04   -0.34474E+04  4041   0.461E+02
DAV:   3    -0.313228899156E+02   -0.64214E+03   -0.58960E+03  4698   0.232E+02
DAV:   4    -0.151544062927E+03   -0.12022E+03   -0.10710E+03  6840   0.943E+01
DAV:   5    -0.163085445849E+03   -0.11541E+02   -0.11089E+02  6300   0.307E+01    0.441E+01
RMM:   6    -0.172795089710E+03   -0.97096E+01   -0.36799E+02  4077   0.958E+01    0.480E+01
RMM:   7    -0.171538387524E+03    0.12567E+01   -0.11727E+02  4166   0.446E+01    0.343E+01
RMM:   8    -0.146462921276E+03    0.25075E+02   -0.18086E+01  4092   0.187E+01    0.237E+01
RMM:   9    -0.139823848430E+03    0.66391E+01   -0.63159E+00  4103   0.119E+01    0.137E+01
RMM:  10    -0.136088276866E+03    0.37356E+01   -0.11564E+01  4118   0.119E+01    0.897E+00
RMM:  11    -0.135069183798E+03    0.10191E+01   -0.27388E+00  4134   0.653E+00    0.478E+00
RMM:  12    -0.134707959898E+03    0.36122E+00   -0.64136E-01  4113   0.327E+00    0.367E+00
RMM:  13    -0.134579458989E+03    0.12850E+00   -0.43918E-01  4111   0.262E+00    0.287E+00
RMM:  14    -0.134456109389E+03    0.12335E+00   -0.31019E-01  4177   0.159E+00    0.239E+00
RMM:  15    -0.134368767631E+03    0.87342E-01   -0.16376E-01  4123   0.128E+00    0.154E+00
RMM:  16    -0.134336872195E+03    0.31895E-01   -0.11605E-01  4124   0.127E+00    0.102E+00
RMM:  17    -0.134320201976E+03    0.16670E-01   -0.23680E-02  4184   0.501E-01    0.599E-01
RMM:  18    -0.134314633861E+03    0.55681E-02   -0.95759E-03  4129   0.354E-01    0.406E-01
RMM:  19    -0.134312737045E+03    0.18968E-02   -0.48921E-03  4097   0.252E-01    0.304E-01
RMM:  20    -0.134311326669E+03    0.14104E-02   -0.21490E-03  4325   0.145E-01    0.211E-01
RMM:  21    -0.134310615487E+03    0.71118E-03   -0.11897E-03  4148   0.113E-01    0.146E-01
RMM:  22    -0.134310322083E+03    0.29340E-03   -0.12211E-03  4114   0.869E-02    0.804E-02
RMM:  23    -0.134310594063E+03   -0.27198E-03   -0.64383E-04  4645   0.531E-02    0.602E-02
RMM:  24    -0.134311002839E+03   -0.40878E-03   -0.21848E-04  4055   0.353E-02    0.540E-02
RMM:  25    -0.134311601461E+03   -0.59862E-03   -0.24001E-04  4031   0.347E-02    0.378E-02
RMM:  26    -0.134311918966E+03   -0.31750E-03   -0.11425E-04  3445   0.230E-02    0.356E-02
RMM:  27    -0.134312061648E+03   -0.14268E-03   -0.34463E-05  2542   0.174E-02    0.301E-02
RMM:  28    -0.134312203994E+03   -0.14235E-03   -0.33212E-05  2562   0.174E-02    0.226E-02
RMM:  29    -0.134312279628E+03   -0.75634E-04   -0.20740E-05  2441   0.150E-02    0.132E-02
RMM:  30    -0.134312323057E+03   -0.43429E-04   -0.86487E-06  2339   0.118E-02    0.110E-02
RMM:  31    -0.134312349271E+03   -0.26214E-04   -0.59454E-06  2327   0.839E-03    0.715E-03
RMM:  32    -0.134312369310E+03   -0.20039E-04   -0.68525E-06  2369   0.786E-03    0.204E-03
RMM:  33    -0.134312375348E+03   -0.60386E-05   -0.28839E-06  2311   0.692E-03
   1 F= -.13431238E+03 E0= -.13431123E+03  d E =-.134312E+03
quench:  g(F)=  0.000E+00 g(S)=  0.000E+00 dE (1.order)= 0.000E+00
 bond charge predicted
       N       E                     dE             d eps       ncg     rms          rms(c)
DAV:   1    -0.134312374240E+03   -0.49303E-05   -0.11023E-04  3951   0.215E-02    0.237E-03
RMM:   2    -0.134312374005E+03    0.23500E-06   -0.45372E-06  2275   0.787E-03
   2 F= -.13431237E+03 E0= -.13431123E+03  d E =0.134326E-05
quench:  g(F)=  0.000E+00 g(S)=  0.000E+00 dE (1.order)= 0.000E+00
 bond charge predicted
       N       E                     dE             d eps       ncg     rms          rms(c)
DAV:   1    -0.134312371031E+03    0.32084E-05   -0.41531E-04  4257   0.432E-02    0.422E-03
RMM:   2    -0.134312372925E+03   -0.18934E-05   -0.16921E-05  2301   0.114E-02
   3 F= -.13431237E+03 E0= -.13431123E+03  d E =0.107998E-05
quench:  g(F)=  0.000E+00 g(S)=  0.000E+00 dE (1.order)= 0.000E+00
 bond charge predicted
       N       E                     dE             d eps       ncg     rms          rms(c)
DAV:   1    -0.134312368190E+03    0.28414E-05   -0.88102E-04  4617   0.662E-02    0.649E-03
RMM:   2    -0.134312373604E+03   -0.54135E-05   -0.38509E-05  2606   0.169E-02
   4 F= -.13431237E+03 E0= -.13431123E+03  d E =-.678723E-06
quench:  g(F)=  0.000E+00 g(S)=  0.000E+00 dE (1.order)= 0.000E+00
 bond charge predicted
       N       E                     dE             d eps       ncg     rms          rms(c)
DAV:   1    -0.134312362589E+03    0.56010E-05   -0.15057E-03  5112   0.104E-01    0.862E-03
RMM:   2    -0.134312370662E+03   -0.80726E-05   -0.67993E-05  2944   0.206E-02
   5 F= -.13431237E+03 E0= -.13431123E+03  d E =0.294193E-05
quench:  g(F)=  0.000E+00 g(S)=  0.000E+00 dE (1.order)= 0.000E+00
 bond charge predicted
       N       E                     dE             d eps       ncg     rms          rms(c)
DAV:   1    -0.134312357946E+03    0.46431E-05   -0.22768E-03  5121   0.123E-01    0.115E-02
RMM:   2    -0.134312373905E+03   -0.15959E-04   -0.10624E-04  3343   0.258E-02    0.167E-02
RMM:   3    -0.134312366837E+03    0.70681E-05   -0.12675E-05  2247   0.160E-02
   6 F= -.13431237E+03 E0= -.13431123E+03  d E =0.382465E-05
quench:  g(F)=  0.000E+00 g(S)=  0.000E+00 dE (1.order)= 0.000E+00
 bond charge predicted
       N       E                     dE             d eps       ncg     rms          rms(c)
DAV:   1    -0.134312356474E+03    0.17431E-04   -0.32287E-03  4194   0.115E-01    0.121E-02
RMM:   2    -0.134312371266E+03   -0.14792E-04   -0.14240E-04  3662   0.297E-02    0.112E-02
RMM:   3    -0.134312369631E+03    0.16354E-05   -0.12212E-05  2239   0.158E-02
   7 F= -.13431237E+03 E0= -.13431123E+03  d E =-.279350E-05
quench:  g(F)=  0.000E+00 g(S)=  0.000E+00 dE (1.order)= 0.000E+00
 bond charge predicted
       N       E                     dE             d eps       ncg     rms          rms(c)
DAV:   1    -0.134312353087E+03    0.18178E-04   -0.43782E-03  4275   0.143E-01    0.139E-02
RMM:   2    -0.134312374133E+03   -0.21045E-04   -0.21194E-04  4283   0.330E-02    0.997E-03
RMM:   3    -0.134312370922E+03    0.32106E-05   -0.78795E-06  2222   0.111E-02
   8 F= -.13431237E+03 E0= -.13431123E+03  d E =-.129169E-05
quench:  g(F)=  0.000E+00 g(S)=  0.000E+00 dE (1.order)= 0.000E+00
 bond charge predicted
       N       E                     dE             d eps       ncg     rms          rms(c)
DAV:   1    -0.134312351784E+03    0.22349E-04   -0.56863E-03  4194   0.159E-01    0.162E-02
RMM:   2    -0.134312382000E+03   -0.30216E-04   -0.27455E-04  4715   0.373E-02    0.136E-02
RMM:   3    -0.134312376320E+03    0.56794E-05   -0.12259E-05  2296   0.144E-02
   9 F= -.13431238E+03 E0= -.13431124E+03  d E =-.539816E-05
quench:  g(F)=  0.000E+00 g(S)=  0.000E+00 dE (1.order)= 0.000E+00
 bond charge predicted
       N       E                     dE             d eps       ncg     rms          rms(c)
DAV:   1    -0.134312347025E+03    0.34974E-04   -0.69594E-03  4347   0.181E-01    0.180E-02
RMM:   2    -0.134312382241E+03   -0.35216E-04   -0.35609E-04  4891   0.429E-02    0.139E-02
RMM:   3    -0.134312375993E+03    0.62479E-05   -0.13166E-05  2242   0.154E-02
  10 F= -.13431238E+03 E0= -.13431123E+03  d E =0.327324E-06
quench:  g(F)=  0.000E+00 g(S)=  0.000E+00 dE (1.order)= 0.000E+00
 bond charge predicted
       N       E                     dE             d eps       ncg     rms          rms(c)
DAV:   1    -0.134312347423E+03    0.34818E-04   -0.78722E-03  4356   0.194E-01    0.195E-02
RMM:   2    -0.134312390831E+03   -0.43408E-04   -0.39235E-04  5065   0.434E-02    0.189E-02
RMM:   3    -0.134312381568E+03    0.92632E-05   -0.18908E-05  2375   0.144E-02
  11 F= -.13431238E+03 E0= -.13431124E+03  d E =-.557449E-05
quench:  g(F)=  0.000E+00 g(S)=  0.000E+00 dE (1.order)= 0.000E+00
 bond charge predicted
       N       E                     dE             d eps       ncg     rms          rms(c)
DAV:   1    -0.134312351090E+03    0.39740E-04   -0.73960E-03  4617   0.192E-01    0.195E-02
RMM:   2    -0.134312390474E+03   -0.39384E-04   -0.40178E-04  5013   0.433E-02    0.147E-02
RMM:   3    -0.134312381519E+03    0.89558E-05   -0.12684E-05  2218   0.128E-02
  12 F= -.13431238E+03 E0= -.13431124E+03  d E =0.488581E-07
quench:  g(F)=  0.000E+00 g(S)=  0.000E+00 dE (1.order)= 0.000E+00
 bond charge predicted
       N       E                     dE             d eps       ncg     rms          rms(c)
DAV:   1    -0.134312370839E+03    0.19635E-04   -0.40579E-03  4500   0.136E-01    0.162E-02
RMM:   2    -0.134312397489E+03   -0.26650E-04   -0.23280E-04  4228   0.338E-02    0.171E-02
RMM:   3    -0.134312389096E+03    0.83930E-05   -0.14144E-05  2319   0.157E-02
  13 F= -.13431239E+03 E0= -.13431125E+03  d E =-.757777E-05
quench:  g(F)=  0.000E+00 g(S)=  0.000E+00 dE (1.order)= 0.000E+00
 bond charge predicted
       N       E                     dE             d eps       ncg     rms          rms(c)
DAV:   1    -0.134312383901E+03    0.13589E-04   -0.15541E-03  5220   0.106E-01    0.106E-02
RMM:   2    -0.134312392577E+03   -0.86764E-05   -0.82470E-05  3033   0.217E-02
  14 F= -.13431239E+03 E0= -.13431125E+03  d E =-.348088E-05
quench:  g(F)=  0.000E+00 g(S)=  0.000E+00 dE (1.order)= 0.000E+00
 bond charge predicted
       N       E                     dE             d eps       ncg     rms          rms(c)
DAV:   1    -0.134312383556E+03    0.34479E-06   -0.13230E-03  5193   0.991E-02    0.119E-02
RMM:   2    -0.134312396174E+03   -0.12618E-04   -0.70019E-05  2924   0.255E-02    0.209E-02
RMM:   3    -0.134312388399E+03    0.77751E-05   -0.13720E-05  2265   0.169E-02
  15 F= -.13431239E+03 E0= -.13431125E+03  d E =0.417876E-05
quench:  g(F)=  0.000E+00 g(S)=  0.000E+00 dE (1.order)= 0.000E+00
 bond charge predicted
       N       E                     dE             d eps       ncg     rms          rms(c)
DAV:   1    -0.134312377302E+03    0.18871E-04   -0.16839E-03  4248   0.880E-02    0.937E-03
RMM:   2    -0.134312385338E+03   -0.80357E-05   -0.80632E-05  3013   0.218E-02
  16 F= -.13431239E+03 E0= -.13431125E+03  d E =0.306040E-05
quench:  g(F)=  0.000E+00 g(S)=  0.000E+00 dE (1.order)= 0.000E+00
 bond charge predicted
       N       E                     dE             d eps       ncg     rms          rms(c)
DAV:   1    -0.134312367941E+03    0.93616E-05   -0.21306E-03  4527   0.102E-01    0.112E-02
RMM:   2    -0.134312380663E+03   -0.12722E-04   -0.97345E-05  3332   0.239E-02    0.164E-02
RMM:   3    -0.134312374835E+03    0.58283E-05   -0.10607E-05  2233   0.149E-02
  17 F= -.13431237E+03 E0= -.13431124E+03  d E =0.105033E-04
quench:  g(F)=  0.000E+00 g(S)=  0.000E+00 dE (1.order)= 0.000E+00
 bond charge predicted
       N       E                     dE             d eps       ncg     rms          rms(c)
DAV:   1    -0.134312357156E+03    0.23507E-04   -0.27457E-03  4212   0.109E-01    0.114E-02
RMM:   2    -0.134312371049E+03   -0.13893E-04   -0.12912E-04  3598   0.267E-02    0.892E-03
RMM:   3    -0.134312369560E+03    0.14889E-05   -0.82246E-06  2209   0.130E-02
  18 F= -.13431237E+03 E0= -.13431123E+03  d E =0.527497E-05
quench:  g(F)=  0.000E+00 g(S)=  0.000E+00 dE (1.order)= 0.000E+00
 bond charge predicted
       N       E                     dE             d eps       ncg     rms          rms(c)
DAV:   1    -0.134312349193E+03    0.21855E-04   -0.34563E-03  4392   0.127E-01    0.126E-02
RMM:   2    -0.134312369298E+03   -0.20105E-04   -0.16611E-04  3948   0.291E-02    0.127E-02
RMM:   3    -0.134312363942E+03    0.53566E-05   -0.11091E-05  2285   0.145E-02
  19 F= -.13431236E+03 E0= -.13431123E+03  d E =0.561798E-05
quench:  g(F)=  0.000E+00 g(S)=  0.000E+00 dE (1.order)= 0.000E+00
 bond charge predicted
       N       E                     dE             d eps       ncg     rms          rms(c)
DAV:   1    -0.134312339009E+03    0.30289E-04   -0.41767E-03  4239   0.137E-01    0.139E-02
RMM:   2    -0.134312359468E+03   -0.20459E-04   -0.20619E-04  4140   0.336E-02    0.115E-02
RMM:   3    -0.134312356603E+03    0.28650E-05   -0.11088E-05  2226   0.149E-02
  20 F= -.13431236E+03 E0= -.13431122E+03  d E =0.733913E-05
quench:  g(F)=  0.000E+00 g(S)=  0.000E+00 dE (1.order)= 0.000E+00
 bond charge predicted
       N       E                     dE             d eps       ncg     rms          rms(c)
DAV:   1    -0.134312331974E+03    0.27493E-04   -0.45176E-03  4410   0.149E-01    0.148E-02
RMM:   2    -0.134312356266E+03   -0.24292E-04   -0.23201E-04  4226   0.326E-02    0.149E-02
RMM:   3    -0.134312351336E+03    0.49308E-05   -0.11720E-05  2301   0.132E-02
  21 F= -.13431235E+03 E0= -.13431122E+03  d E =0.526716E-05
quench:  g(F)=  0.000E+00 g(S)=  0.000E+00 dE (1.order)= 0.000E+00
 bond charge predicted
       N       E                     dE             d eps       ncg     rms          rms(c)
DAV:   1    -0.134312329621E+03    0.26646E-04   -0.42695E-03  4509   0.144E-01    0.147E-02
RMM:   2    -0.134312353333E+03   -0.23712E-04   -0.23065E-04  4216   0.328E-02    0.111E-02
RMM:   3    -0.134312348479E+03    0.48544E-05   -0.88971E-06  2199   0.119E-02
  22 F= -.13431235E+03 E0= -.13431121E+03  d E =0.285698E-05
quench:  g(F)=  0.000E+00 g(S)=  0.000E+00 dE (1.order)= 0.000E+00
 bond charge predicted
       N       E                     dE             d eps       ncg     rms          rms(c)
DAV:   1    -0.134312334655E+03    0.18678E-04   -0.36604E-03  4338   0.130E-01    0.146E-02
RMM:   2    -0.134312358722E+03   -0.24067E-04   -0.19437E-04  4006   0.324E-02    0.207E-02
RMM:   3    -0.134312348462E+03    0.10260E-04   -0.14971E-05  2275   0.168E-02    0.114E-02
RMM:   4    -0.134312347442E+03    0.10208E-05   -0.46374E-06  2158   0.110E-02
  23 F= -.13431235E+03 E0= -.13431121E+03  d E =0.103687E-05
quench:  g(F)=  0.000E+00 g(S)=  0.000E+00 dE (1.order)= 0.000E+00
 bond charge predicted
       N       E                     dE             d eps       ncg     rms          rms(c)
DAV:   1    -0.134312336757E+03    0.11706E-04   -0.33522E-03  4140   0.114E-01    0.118E-02
RMM:   2    -0.134312351241E+03   -0.14485E-04   -0.14774E-04  3661   0.281E-02    0.835E-03
RMM:   3    -0.134312349182E+03    0.20592E-05   -0.83383E-06  2160   0.125E-02
  24 F= -.13431235E+03 E0= -.13431121E+03  d E =-.174021E-05
quench:  g(F)=  0.000E+00 g(S)=  0.000E+00 dE (1.order)= 0.000E+00
 bond charge predicted
       N       E                     dE             d eps       ncg     rms          rms(c)
DAV:   1    -0.134312332355E+03    0.18886E-04   -0.34909E-03  4140   0.119E-01    0.123E-02
RMM:   2    -0.134312348189E+03   -0.15834E-04   -0.16004E-04  3769   0.283E-02    0.959E-03
RMM:   3    -0.134312345921E+03    0.22677E-05   -0.81221E-06  2197   0.123E-02
  25 F= -.13431235E+03 E0= -.13431121E+03  d E =0.326050E-05
quench:  g(F)=  0.000E+00 g(S)=  0.000E+00 dE (1.order)= 0.000E+00
 bond charge predicted
       N       E                     dE             d eps       ncg     rms          rms(c)
DAV:   1    -0.134312328401E+03    0.19788E-04   -0.37453E-03  4176   0.131E-01    0.131E-02
RMM:   2    -0.134312349968E+03   -0.21567E-04   -0.18746E-04  4101   0.311E-02    0.119E-02
RMM:   3    -0.134312346442E+03    0.35263E-05   -0.11328E-05  2267   0.139E-02
  26 F= -.13431235E+03 E0= -.13431121E+03  d E =-.520369E-06
quench:  g(F)=  0.000E+00 g(S)=  0.000E+00 dE (1.order)= 0.000E+00
 bond charge predicted
       N       E                     dE             d eps       ncg     rms          rms(c)
DAV:   1    -0.134312325299E+03    0.24669E-04   -0.37452E-03  4401   0.133E-01    0.133E-02
RMM:   2    -0.134312344411E+03   -0.19112E-04   -0.19550E-04  3972   0.311E-02    0.116E-02
RMM:   3    -0.134312341002E+03    0.34090E-05   -0.87585E-06  2204   0.136E-02
  27 F= -.13431234E+03 E0= -.13431121E+03  d E =0.543947E-05
quench:  g(F)=  0.000E+00 g(S)=  0.000E+00 dE (1.order)= 0.000E+00
 bond charge predicted
       N       E                     dE             d eps       ncg     rms          rms(c)
DAV:   1    -0.134312325551E+03    0.18861E-04   -0.34330E-03  4554   0.132E-01    0.129E-02
RMM:   2    -0.134312345222E+03   -0.19671E-04   -0.17273E-04  3909   0.293E-02    0.148E-02
RMM:   3    -0.134312338898E+03    0.63243E-05   -0.11277E-05  2259   0.144E-02
  28 F= -.13431234E+03 E0= -.13431121E+03  d E =0.210467E-05
quench:  g(F)=  0.000E+00 g(S)=  0.000E+00 dE (1.order)= 0.000E+00
 bond charge predicted
       N       E                     dE             d eps       ncg     rms          rms(c)
DAV:   1    -0.134312323675E+03    0.21547E-04   -0.29306E-03  4338   0.116E-01    0.126E-02
RMM:   2    -0.134312338805E+03   -0.15130E-04   -0.15643E-04  3722   0.282E-02    0.105E-02
RMM:   3    -0.134312336442E+03    0.23633E-05   -0.86656E-06  2205   0.126E-02
  29 F= -.13431234E+03 E0= -.13431120E+03  d E =0.245612E-05
quench:  g(F)=  0.000E+00 g(S)=  0.000E+00 dE (1.order)= 0.000E+00
 bond charge predicted
       N       E                     dE             d eps       ncg     rms          rms(c)
DAV:   1    -0.134312324462E+03    0.14343E-04   -0.25996E-03  4599   0.116E-01    0.117E-02
RMM:   2    -0.134312342685E+03   -0.18222E-04   -0.13026E-04  3575   0.265E-02    0.150E-02
RMM:   3    -0.134312336747E+03    0.59373E-05   -0.11723E-05  2254   0.152E-02
  30 F= -.13431234E+03 E0= -.13431120E+03  d E =-.305808E-06
quench:  g(F)=  0.000E+00 g(S)=  0.000E+00 dE (1.order)= 0.000E+00
 bond charge predicted
       N       E                     dE             d eps       ncg     rms          rms(c)
DAV:   1    -0.134312323298E+03    0.19387E-04   -0.25623E-03  4185   0.105E-01    0.112E-02
RMM:   2    -0.134312335974E+03   -0.12677E-04   -0.12740E-04  3488   0.265E-02    0.103E-02
RMM:   3    -0.134312334375E+03    0.15992E-05   -0.87836E-06  2206   0.144E-02
  31 F= -.13431233E+03 E0= -.13431120E+03  d E =0.237206E-05
quench:  g(F)=  0.000E+00 g(S)=  0.000E+00 dE (1.order)= 0.000E+00
 bond charge predicted
       N       E                     dE             d eps       ncg     rms          rms(c)
DAV:   1    -0.134312319476E+03    0.16499E-04   -0.27711E-03  4473   0.118E-01    0.112E-02
RMM:   2    -0.134312332479E+03   -0.13003E-04   -0.13189E-04  3620   0.257E-02    0.975E-03
RMM:   3    -0.134312331733E+03    0.74639E-06   -0.80113E-06  2275   0.124E-02
  32 F= -.13431233E+03 E0= -.13431120E+03  d E =0.264273E-05
quench:  g(F)=  0.000E+00 g(S)=  0.000E+00 dE (1.order)= 0.000E+00
 bond charge predicted
       N       E                     dE             d eps       ncg     rms          rms(c)
DAV:   1    -0.134312313934E+03    0.18545E-04   -0.30672E-03  4428   0.122E-01    0.123E-02
RMM:   2    -0.134312329169E+03   -0.15235E-04   -0.15787E-04  3738   0.281E-02    0.930E-03
RMM:   3    -0.134312326453E+03    0.27162E-05   -0.76226E-06  2146   0.118E-02
  33 F= -.13431233E+03 E0= -.13431119E+03  d E =0.527952E-05
quench:  g(F)=  0.000E+00 g(S)=  0.000E+00 dE (1.order)= 0.000E+00
 bond charge predicted
       N       E                     dE             d eps       ncg     rms          rms(c)
DAV:   1    -0.134312308135E+03    0.21034E-04   -0.34030E-03  4221   0.123E-01    0.126E-02
RMM:   2    -0.134312330069E+03   -0.21934E-04   -0.15970E-04  3877   0.294E-02    0.163E-02
RMM:   3    -0.134312322353E+03    0.77166E-05   -0.12191E-05  2268   0.150E-02
  34 F= -.13431232E+03 E0= -.13431119E+03  d E =0.410050E-05
quench:  g(F)=  0.000E+00 g(S)=  0.000E+00 dE (1.order)= 0.000E+00
 bond charge predicted
       N       E                     dE             d eps       ncg     rms          rms(c)
DAV:   1    -0.134312298594E+03    0.31475E-04   -0.35978E-03  4068   0.124E-01    0.130E-02
RMM:   2    -0.134312316202E+03   -0.17608E-04   -0.17963E-04  3907   0.304E-02    0.113E-02
RMM:   3    -0.134312313585E+03    0.26177E-05   -0.87560E-06  2221   0.135E-02
  35 F= -.13431231E+03 E0= -.13431118E+03  d E =0.876797E-05
quench:  g(F)=  0.000E+00 g(S)=  0.000E+00 dE (1.order)= 0.000E+00
 bond charge predicted
       N       E                     dE             d eps       ncg     rms          rms(c)
DAV:   1    -0.134312293285E+03    0.22917E-04   -0.35004E-03  4437   0.133E-01    0.129E-02
RMM:   2    -0.134312311713E+03   -0.18428E-04   -0.17532E-04  3934   0.289E-02    0.128E-02
RMM:   3    -0.134312308452E+03    0.32609E-05   -0.94571E-06  2280   0.135E-02
  36 F= -.13431231E+03 E0= -.13431118E+03  d E =0.513221E-05
quench:  g(F)=  0.000E+00 g(S)=  0.000E+00 dE (1.order)= 0.000E+00
 bond charge predicted
       N       E                     dE             d eps       ncg     rms          rms(c)
DAV:   1    -0.134312289352E+03    0.22361E-04   -0.31323E-03  4419   0.122E-01    0.130E-02
RMM:   2    -0.134312305170E+03   -0.15818E-04   -0.16548E-04  3759   0.285E-02    0.103E-02
RMM:   3    -0.134312302491E+03    0.26788E-05   -0.82937E-06  2187   0.122E-02
  37 F= -.13431230E+03 E0= -.13431117E+03  d E =0.596130E-05
quench:  g(F)=  0.000E+00 g(S)=  0.000E+00 dE (1.order)= 0.000E+00
 bond charge predicted
       N       E                     dE             d eps       ncg     rms          rms(c)
DAV:   1    -0.134312286825E+03    0.18345E-04   -0.27867E-03  4518   0.119E-01    0.123E-02
RMM:   2    -0.134312307891E+03   -0.21066E-04   -0.13964E-04  3672   0.275E-02    0.177E-02
RMM:   3    -0.134312298986E+03    0.89047E-05   -0.12139E-05  2258   0.156E-02
  38 F= -.13431230E+03 E0= -.13431117E+03  d E =0.350505E-05
quench:  g(F)=  0.000E+00 g(S)=  0.000E+00 dE (1.order)= 0.000E+00
 bond charge predicted
       N       E                     dE             d eps       ncg     rms          rms(c)
DAV:   1    -0.134312281531E+03    0.26360E-04   -0.26021E-03  4041   0.104E-01    0.114E-02
RMM:   2    -0.134312294459E+03   -0.12928E-04   -0.12914E-04  3490   0.265E-02    0.107E-02
RMM:   3    -0.134312292785E+03    0.16740E-05   -0.89951E-06  2215   0.144E-02
  39 F= -.13431229E+03 E0= -.13431116E+03  d E =0.620105E-05
quench:  g(F)=  0.000E+00 g(S)=  0.000E+00 dE (1.order)= 0.000E+00
 bond charge predicted
       N       E                     dE             d eps       ncg     rms          rms(c)
DAV:   1    -0.134312275456E+03    0.19003E-04   -0.26843E-03  4482   0.116E-01    0.112E-02
RMM:   2    -0.134312288841E+03   -0.13386E-04   -0.12701E-04  3549   0.251E-02    0.941E-03
RMM:   3    -0.134312287376E+03    0.14654E-05   -0.79199E-06  2235   0.123E-02
  40 F= -.13431229E+03 E0= -.13431116E+03  d E =0.540909E-05
quench:  g(F)=  0.000E+00 g(S)=  0.000E+00 dE (1.order)= 0.000E+00
 bond charge predicted
       N       E                     dE             d eps       ncg     rms          rms(c)
DAV:   1    -0.134312266595E+03    0.22247E-04   -0.28456E-03  4365   0.118E-01    0.119E-02
RMM:   2    -0.134312280450E+03   -0.13855E-04   -0.14415E-04  3631   0.265E-02    0.889E-03
RMM:   3    -0.134312277902E+03    0.25482E-05   -0.65795E-06  2130   0.115E-02
  41 F= -.13431228E+03 E0= -.13431115E+03  d E =0.947415E-05
quench:  g(F)=  0.000E+00 g(S)=  0.000E+00 dE (1.order)= 0.000E+00
 bond charge predicted
       N       E                     dE             d eps       ncg     rms          rms(c)
DAV:   1    -0.134312258341E+03    0.22109E-04   -0.31059E-03  4176   0.111E-01    0.116E-02
RMM:   2    -0.134312273492E+03   -0.15150E-04   -0.13484E-04  3604   0.273E-02    0.119E-02
RMM:   3    -0.134312270682E+03    0.28092E-05   -0.10171E-05  2248   0.138E-02
  42 F= -.13431227E+03 E0= -.13431114E+03  d E =0.721932E-05
quench:  g(F)=  0.000E+00 g(S)=  0.000E+00 dE (1.order)= 0.000E+00
 bond charge predicted
       N       E                     dE             d eps       ncg     rms          rms(c)
DAV:   1    -0.134312246380E+03    0.27112E-04   -0.33093E-03  4194   0.123E-01    0.122E-02
RMM:   2    -0.134312262427E+03   -0.16047E-04   -0.16656E-04  3816   0.287E-02    0.929E-03
RMM:   3    -0.134312259603E+03    0.28238E-05   -0.77633E-06  2133   0.120E-02
  43 F= -.13431226E+03 E0= -.13431113E+03  d E =0.110795E-04
quench:  g(F)=  0.000E+00 g(S)=  0.000E+00 dE (1.order)= 0.000E+00
 bond charge predicted
       N       E                     dE             d eps       ncg     rms          rms(c)
DAV:   1    -0.134312237135E+03    0.25292E-04   -0.33199E-03  4131   0.121E-01    0.121E-02
RMM:   2    -0.134312256321E+03   -0.19186E-04   -0.15630E-04  3804   0.294E-02    0.157E-02
RMM:   3    -0.134312249065E+03    0.72568E-05   -0.11758E-05  2260   0.147E-02
  44 F= -.13431225E+03 E0= -.13431112E+03  d E =0.105383E-04
quench:  g(F)=  0.000E+00 g(S)=  0.000E+00 dE (1.order)= 0.000E+00
 bond charge predicted
       N       E                     dE             d eps       ncg     rms          rms(c)
DAV:   1    -0.134312226839E+03    0.29482E-04   -0.29948E-03  4293   0.114E-01    0.126E-02
RMM:   2    -0.134312241876E+03   -0.15037E-04   -0.15469E-04  3675   0.281E-02    0.111E-02
RMM:   3    -0.134312239161E+03    0.27146E-05   -0.80826E-06  2193   0.126E-02
  45 F= -.13431224E+03 E0= -.13431111E+03  d E =0.990366E-05
quench:  g(F)=  0.000E+00 g(S)=  0.000E+00 dE (1.order)= 0.000E+00
 bond charge predicted
       N       E                     dE             d eps       ncg     rms          rms(c)
DAV:   1    -0.134312220722E+03    0.21154E-04   -0.26508E-03  4527   0.114E-01    0.117E-02
RMM:   2    -0.134312238715E+03   -0.17993E-04   -0.12826E-04  3532   0.265E-02    0.152E-02
RMM:   3    -0.134312232754E+03    0.59605E-05   -0.11234E-05  2246   0.151E-02
  46 F= -.13431223E+03 E0= -.13431111E+03  d E =0.640663E-05
quench:  g(F)=  0.000E+00 g(S)=  0.000E+00 dE (1.order)= 0.000E+00
 bond charge predicted
       N       E                     dE             d eps       ncg     rms          rms(c)
DAV:   1    -0.134312214043E+03    0.24672E-04   -0.24366E-03  4194   0.102E-01    0.111E-02
RMM:   2    -0.134312225933E+03   -0.11890E-04   -0.12064E-04  3379   0.254E-02    0.991E-03
RMM:   3    -0.134312224581E+03    0.13523E-05   -0.87928E-06  2206   0.142E-02
  47 F= -.13431222E+03 E0= -.13431110E+03  d E =0.817353E-05
quench:  g(F)=  0.000E+00 g(S)=  0.000E+00 dE (1.order)= 0.000E+00
 bond charge predicted
       N       E                     dE             d eps       ncg     rms          rms(c)
DAV:   1    -0.134312204159E+03    0.21774E-04   -0.24655E-03  4536   0.112E-01    0.107E-02
RMM:   2    -0.134312215689E+03   -0.11530E-04   -0.11483E-04  3420   0.240E-02    0.100E-02
RMM:   3    -0.134312213748E+03    0.19403E-05   -0.85229E-06  2231   0.130E-02
  48 F= -.13431221E+03 E0= -.13431109E+03  d E =0.108326E-04
quench:  g(F)=  0.000E+00 g(S)=  0.000E+00 dE (1.order)= 0.000E+00
 bond charge predicted
       N       E                     dE             d eps       ncg     rms          rms(c)
DAV:   1    -0.134312192893E+03    0.22796E-04   -0.25976E-03  4401   0.110E-01    0.115E-02
RMM:   2    -0.134312205297E+03   -0.12404E-04   -0.12842E-04  3472   0.255E-02    0.918E-03
RMM:   3    -0.134312203416E+03    0.18803E-05   -0.71192E-06  2173   0.124E-02
  49 F= -.13431220E+03 E0= -.13431108E+03  d E =0.103318E-04
quench:  g(F)=  0.000E+00 g(S)=  0.000E+00 dE (1.order)= 0.000E+00
 bond charge predicted
       N       E                     dE             d eps       ncg     rms          rms(c)
DAV:   1    -0.134312182747E+03    0.22550E-04   -0.28939E-03  4428   0.118E-01    0.118E-02
RMM:   2    -0.134312201396E+03   -0.18649E-04   -0.13533E-04  3669   0.271E-02    0.145E-02
RMM:   3    -0.134312195604E+03    0.57916E-05   -0.11064E-05  2251   0.149E-02
  50 F= -.13431220E+03 E0= -.13431107E+03  d E =0.781249E-05
quench:  g(F)=  0.000E+00 g(S)=  0.000E+00 dE (1.order)= 0.000E+00
 bond charge predicted
       N       E                     dE             d eps       ncg     rms          rms(c)
DAV:   1    -0.134312171250E+03    0.30145E-04   -0.31180E-03  4167   0.115E-01    0.122E-02
RMM:   2    -0.134312186429E+03   -0.15179E-04   -0.15219E-04  3683   0.288E-02    0.112E-02
RMM:   3    -0.134312184309E+03    0.21199E-05   -0.94102E-06  2217   0.145E-02
  51 F= -.13431218E+03 E0= -.13431106E+03  d E =0.112947E-04
quench:  g(F)=  0.000E+00 g(S)=  0.000E+00 dE (1.order)= 0.000E+00
 bond charge predicted
       N       E                     dE             d eps       ncg     rms          rms(c)
DAV:   1    -0.134312159331E+03    0.27098E-04   -0.33454E-03  4491   0.128E-01    0.123E-02
RMM:   2    -0.134312175025E+03   -0.15694E-04   -0.15905E-04  3801   0.278E-02    0.105E-02
RMM:   3    -0.134312173850E+03    0.11740E-05   -0.85713E-06  2282   0.124E-02
  52 F= -.13431217E+03 E0= -.13431105E+03  d E =0.104588E-04
quench:  g(F)=  0.000E+00 g(S)=  0.000E+00 dE (1.order)= 0.000E+00
 bond charge predicted
       N       E                     dE             d eps       ncg     rms          rms(c)
DAV:   1    -0.134312148217E+03    0.26808E-04   -0.33328E-03  4572   0.128E-01    0.132E-02
RMM:   2    -0.134312164761E+03   -0.16544E-04   -0.17298E-04  3813   0.285E-02    0.103E-02
RMM:   3    -0.134312161398E+03    0.33628E-05   -0.75631E-06  2144   0.116E-02
  53 F= -.13431216E+03 E0= -.13431104E+03  d E =0.124528E-04
quench:  g(F)=  0.000E+00 g(S)=  0.000E+00 dE (1.order)= 0.000E+00
 bond charge predicted
       N       E                     dE             d eps       ncg     rms          rms(c)
DAV:   1    -0.134312141667E+03    0.23094E-04   -0.31931E-03  4158   0.114E-01    0.124E-02
RMM:   2    -0.134312159155E+03   -0.17488E-04   -0.14605E-04  3697   0.283E-02    0.144E-02
RMM:   3    -0.134312154343E+03    0.48116E-05   -0.10793E-05  2257   0.142E-02
  54 F= -.13431215E+03 E0= -.13431103E+03  d E =0.705433E-05
quench:  g(F)=  0.000E+00 g(S)=  0.000E+00 dE (1.order)= 0.000E+00
 bond charge predicted
       N       E                     dE             d eps       ncg     rms          rms(c)
DAV:   1    -0.134312132466E+03    0.26689E-04   -0.29750E-03  4302   0.118E-01    0.121E-02
RMM:   2    -0.134312147308E+03   -0.14842E-04   -0.15512E-04  3696   0.273E-02    0.956E-03
RMM:   3    -0.134312144664E+03    0.26432E-05   -0.71991E-06  2127   0.120E-02
  55 F= -.13431214E+03 E0= -.13431102E+03  d E =0.967905E-05
quench:  g(F)=  0.000E+00 g(S)=  0.000E+00 dE (1.order)= 0.000E+00
 bond charge predicted
       N       E                     dE             d eps       ncg     rms          rms(c)
DAV:   1    -0.134312127001E+03    0.20307E-04   -0.28661E-03  4104   0.111E-01    0.116E-02
RMM:   2    -0.134312141923E+03   -0.14923E-04   -0.13240E-04  3598   0.271E-02    0.132E-02
RMM:   3    -0.134312137531E+03    0.43918E-05   -0.10578E-05  2250   0.140E-02
  56 F= -.13431214E+03 E0= -.13431102E+03  d E =0.713288E-05
quench:  g(F)=  0.000E+00 g(S)=  0.000E+00 dE (1.order)= 0.000E+00
 bond charge predicted
       N       E                     dE             d eps       ncg     rms          rms(c)
DAV:   1    -0.134312116672E+03    0.25251E-04   -0.28354E-03  4356   0.114E-01    0.123E-02
RMM:   2    -0.134312130928E+03   -0.14255E-04   -0.14663E-04  3617   0.272E-02    0.105E-02
RMM:   3    -0.134312128011E+03    0.29164E-05   -0.74245E-06  2130   0.125E-02
  57 F= -.13431213E+03 E0= -.13431100E+03  d E =0.952022E-05
quench:  g(F)=  0.000E+00 g(S)=  0.000E+00 dE (1.order)= 0.000E+00
 bond charge predicted
       N       E                     dE             d eps       ncg     rms          rms(c)
DAV:   1    -0.134312109637E+03    0.21291E-04   -0.29500E-03  4185   0.110E-01    0.117E-02
RMM:   2    -0.134312124841E+03   -0.15204E-04   -0.13304E-04  3578   0.276E-02    0.106E-02
RMM:   3    -0.134312123223E+03    0.16180E-05   -0.95590E-06  2235   0.133E-02
  58 F= -.13431212E+03 E0= -.13431100E+03  d E =0.478786E-05
quench:  g(F)=  0.000E+00 g(S)=  0.000E+00 dE (1.order)= 0.000E+00
 bond charge predicted
       N       E                     dE             d eps       ncg     rms          rms(c)
DAV:   1    -0.134312100795E+03    0.24046E-04   -0.30770E-03  4410   0.121E-01    0.120E-02
RMM:   2    -0.134312116046E+03   -0.15251E-04   -0.15771E-04  3738   0.277E-02    0.901E-03
RMM:   3    -0.134312113415E+03    0.26311E-05   -0.72204E-06  2158   0.116E-02
  59 F= -.13431211E+03 E0= -.13431099E+03  d E =0.980810E-05
quench:  g(F)=  0.000E+00 g(S)=  0.000E+00 dE (1.order)= 0.000E+00
 bond charge predicted
       N       E                     dE             d eps       ncg     rms          rms(c)
DAV:   1    -0.134312093315E+03    0.22731E-04   -0.32486E-03  4221   0.119E-01    0.124E-02
RMM:   2    -0.134312112281E+03   -0.18966E-04   -0.15315E-04  3782   0.293E-02    0.151E-02
RMM:   3    -0.134312106514E+03    0.57670E-05   -0.12102E-05  2255   0.152E-02
  60 F= -.13431211E+03 E0= -.13431098E+03  d E =0.690165E-05
quench:  g(F)=  0.000E+00 g(S)=  0.000E+00 dE (1.order)= 0.000E+00
 bond charge predicted
       N       E                     dE             d eps       ncg     rms          rms(c)
DAV:   1    -0.134312083198E+03    0.29083E-04   -0.32838E-03  4158   0.119E-01    0.127E-02
RMM:   2    -0.134312099533E+03   -0.16335E-04   -0.16702E-04  3776   0.295E-02    0.112E-02
RMM:   3    -0.134312096894E+03    0.26390E-05   -0.92402E-06  2214   0.141E-02
  61 F= -.13431210E+03 E0= -.13431098E+03  d E =0.961980E-05
quench:  g(F)=  0.000E+00 g(S)=  0.000E+00 dE (1.order)= 0.000E+00
 bond charge predicted
       N       E                     dE             d eps       ncg     rms          rms(c)
DAV:   1    -0.134312075569E+03    0.23964E-04   -0.32461E-03  4383   0.127E-01    0.125E-02
RMM:   2    -0.134312092776E+03   -0.17207E-04   -0.15920E-04  3816   0.281E-02    0.129E-02
RMM:   3    -0.134312088286E+03    0.44900E-05   -0.98331E-06  2255   0.136E-02
  62 F= -.13431209E+03 E0= -.13431097E+03  d E =0.860792E-05
quench:  g(F)=  0.000E+00 g(S)=  0.000E+00 dE (1.order)= 0.000E+00
 bond charge predicted
       N       E                     dE             d eps       ncg     rms          rms(c)
DAV:   1    -0.134312067171E+03    0.25605E-04   -0.30813E-03  4194   0.119E-01    0.130E-02
RMM:   2    -0.134312082693E+03   -0.15522E-04   -0.16045E-04  3721   0.282E-02    0.109E-02
RMM:   3    -0.134312080064E+03    0.26285E-05   -0.82590E-06  2204   0.125E-02
  63 F= -.13431208E+03 E0= -.13431096E+03  d E =0.822185E-05
quench:  g(F)=  0.000E+00 g(S)=  0.000E+00 dE (1.order)= 0.000E+00
 bond charge predicted
       N       E                     dE             d eps       ncg     rms          rms(c)
DAV:   1    -0.134312060281E+03    0.22412E-04   -0.30257E-03  4383   0.123E-01    0.126E-02
RMM:   2    -0.134312079340E+03   -0.19059E-04   -0.14890E-04  3721   0.280E-02    0.153E-02
RMM:   3    -0.134312072921E+03    0.64188E-05   -0.11452E-05  2256   0.151E-02
  64 F= -.13431207E+03 E0= -.13431095E+03  d E =0.714272E-05
quench:  g(F)=  0.000E+00 g(S)=  0.000E+00 dE (1.order)= 0.000E+00
 bond charge predicted
       N       E                     dE             d eps       ncg     rms          rms(c)
DAV:   1    -0.134312052282E+03    0.27059E-04   -0.30014E-03  4158   0.113E-01    0.124E-02
RMM:   2    -0.134312067293E+03   -0.15011E-04   -0.15159E-04  3655   0.283E-02    0.113E-02
RMM:   3    -0.134312065121E+03    0.21714E-05   -0.90858E-06  2212   0.143E-02
  65 F= -.13431207E+03 E0= -.13431095E+03  d E =0.780013E-05
quench:  g(F)=  0.000E+00 g(S)=  0.000E+00 dE (1.order)= 0.000E+00
 bond charge predicted
       N       E                     dE             d eps       ncg     rms          rms(c)
DAV:   1    -0.134312045212E+03    0.22080E-04   -0.30804E-03  4428   0.124E-01    0.122E-02
RMM:   2    -0.134312060314E+03   -0.15102E-04   -0.14907E-04  3715   0.270E-02    0.110E-02
RMM:   3    -0.134312057672E+03    0.26423E-05   -0.93462E-06  2254   0.129E-02
  66 F= -.13431206E+03 E0= -.13431094E+03  d E =0.744910E-05
quench:  g(F)=  0.000E+00 g(S)=  0.000E+00 dE (1.order)= 0.000E+00
 bond charge predicted
       N       E                     dE             d eps       ncg     rms          rms(c)
DAV:   1    -0.134312037115E+03    0.23199E-04   -0.31508E-03  4275   0.123E-01    0.130E-02
RMM:   2    -0.134312052879E+03   -0.15764E-04   -0.16403E-04  3761   0.282E-02    0.103E-02
RMM:   3    -0.134312049967E+03    0.29121E-05   -0.73338E-06  2175   0.119E-02
  67 F= -.13431205E+03 E0= -.13431093E+03  d E =0.770550E-05
quench:  g(F)=  0.000E+00 g(S)=  0.000E+00 dE (1.order)= 0.000E+00
 bond charge predicted
       N       E                     dE             d eps       ncg     rms          rms(c)
DAV:   1    -0.134312030060E+03    0.22819E-04   -0.32323E-03  4248   0.123E-01    0.129E-02
RMM:   2    -0.134312051801E+03   -0.21742E-04   -0.15822E-04  3838   0.291E-02    0.173E-02
RMM:   3    -0.134312043073E+03    0.87279E-05   -0.12075E-05  2267   0.152E-02
  68 F= -.13431204E+03 E0= -.13431092E+03  d E =0.689334E-05
quench:  g(F)=  0.000E+00 g(S)=  0.000E+00 dE (1.order)= 0.000E+00
 bond charge predicted
       N       E                     dE             d eps       ncg     rms          rms(c)
DAV:   1    -0.134312019554E+03    0.32247E-04   -0.32377E-03  4095   0.117E-01    0.127E-02
RMM:   2    -0.134312035631E+03   -0.16077E-04   -0.16289E-04  3755   0.292E-02    0.113E-02
RMM:   3    -0.134312033379E+03    0.22522E-05   -0.93912E-06  2226   0.140E-02
  69 F= -.13431203E+03 E0= -.13431092E+03  d E =0.969446E-05
quench:  g(F)=  0.000E+00 g(S)=  0.000E+00 dE (1.order)= 0.000E+00
 bond charge predicted
       N       E                     dE             d eps       ncg     rms          rms(c)
DAV:   1    -0.134312010123E+03    0.25508E-04   -0.31665E-03  4446   0.127E-01    0.123E-02
RMM:   2    -0.134312025789E+03   -0.15666E-04   -0.15596E-04  3760   0.273E-02    0.111E-02
RMM:   3    -0.134312024115E+03    0.16739E-05   -0.88462E-06  2283   0.130E-02
  70 F= -.13431202E+03 E0= -.13431091E+03  d E =0.926368E-05
quench:  g(F)=  0.000E+00 g(S)=  0.000E+00 dE (1.order)= 0.000E+00
 bond charge predicted
       N       E                     dE             d eps       ncg     rms          rms(c)
DAV:   1    -0.134312000501E+03    0.25288E-04   -0.29451E-03  4545   0.120E-01    0.126E-02
RMM:   2    -0.134312015181E+03   -0.14680E-04   -0.15379E-04  3635   0.270E-02    0.982E-03
RMM:   3    -0.134312012494E+03    0.26872E-05   -0.70584E-06  2146   0.117E-02
  71 F= -.13431201E+03 E0= -.13431089E+03  d E =0.116212E-04
quench:  g(F)=  0.000E+00 g(S)=  0.000E+00 dE (1.order)= 0.000E+00
 bond charge predicted
       N       E                     dE             d eps       ncg     rms          rms(c)
DAV:   1    -0.134311992372E+03    0.22809E-04   -0.28718E-03  4347   0.117E-01    0.123E-02
RMM:   2    -0.134312014256E+03   -0.21884E-04   -0.13978E-04  3694   0.278E-02    0.185E-02
RMM:   3    -0.134312004428E+03    0.98288E-05   -0.12269E-05  2263   0.156E-02
  72 F= -.13431200E+03 E0= -.13431089E+03  d E =0.806629E-05
quench:  g(F)=  0.000E+00 g(S)=  0.000E+00 dE (1.order)= 0.000E+00
 bond charge predicted
       N       E                     dE             d eps       ncg     rms          rms(c)
DAV:   1    -0.134311980681E+03    0.33576E-04   -0.29037E-03  4032   0.110E-01    0.120E-02
RMM:   2    -0.134311994861E+03   -0.14180E-04   -0.14280E-04  3599   0.277E-02    0.108E-02
RMM:   3    -0.134311993002E+03    0.18587E-05   -0.89581E-06  2221   0.141E-02
  73 F= -.13431199E+03 E0= -.13431088E+03  d E =0.114256E-04
quench:  g(F)=  0.000E+00 g(S)=  0.000E+00 dE (1.order)= 0.000E+00
 bond charge predicted
       N       E                     dE             d eps       ncg     rms          rms(c)
DAV:   1    -0.134311967330E+03    0.27531E-04   -0.30257E-03  4437   0.123E-01    0.118E-02
RMM:   2    -0.134311982808E+03   -0.15478E-04   -0.14583E-04  3701   0.267E-02    0.103E-02
RMM:   3    -0.134311980725E+03    0.20836E-05   -0.87252E-06  2249   0.127E-02
  74 F= -.13431198E+03 E0= -.13431087E+03  d E =0.122775E-04
quench:  g(F)=  0.000E+00 g(S)=  0.000E+00 dE (1.order)= 0.000E+00
 bond charge predicted
       N       E                     dE             d eps       ncg     rms          rms(c)
DAV:   1    -0.134311952676E+03    0.30132E-04   -0.29957E-03  4428   0.121E-01    0.125E-02
RMM:   2    -0.134311967432E+03   -0.14756E-04   -0.15459E-04  3680   0.269E-02    0.967E-03
RMM:   3    -0.134311964666E+03    0.27659E-05   -0.68149E-06  2135   0.115E-02
  75 F= -.13431196E+03 E0= -.13431085E+03  d E =0.160583E-04
quench:  g(F)=  0.000E+00 g(S)=  0.000E+00 dE (1.order)= 0.000E+00
 bond charge predicted
       N       E                     dE             d eps       ncg     rms          rms(c)
DAV:   1    -0.134311941184E+03    0.26248E-04   -0.29890E-03  4275   0.116E-01    0.124E-02
RMM:   2    -0.134311963167E+03   -0.21982E-04   -0.14406E-04  3752   0.279E-02    0.181E-02
RMM:   3    -0.134311953703E+03    0.94636E-05   -0.12329E-05  2264   0.156E-02
  76 F= -.13431195E+03 E0= -.13431084E+03  d E =0.109630E-04
quench:  g(F)=  0.000E+00 g(S)=  0.000E+00 dE (1.order)= 0.000E+00
 bond charge predicted
       N       E                     dE             d eps       ncg     rms          rms(c)
DAV:   1    -0.134311925750E+03    0.37416E-04   -0.29759E-03  4050   0.111E-01    0.121E-02
RMM:   2    -0.134311940271E+03   -0.14521E-04   -0.14742E-04  3624   0.278E-02    0.107E-02
RMM:   3    -0.134311938371E+03    0.19001E-05   -0.91737E-06  2223   0.140E-02
  77 F= -.13431194E+03 E0= -.13431082E+03  d E =0.153319E-04
quench:  g(F)=  0.000E+00 g(S)=  0.000E+00 dE (1.order)= 0.000E+00
 bond charge predicted
       N       E                     dE             d eps       ncg     rms          rms(c)
DAV:   1    -0.134311911364E+03    0.28908E-04   -0.29339E-03  4473   0.122E-01    0.117E-02
RMM:   2    -0.134311925649E+03   -0.14286E-04   -0.14271E-04  3678   0.263E-02    0.107E-02
RMM:   3    -0.134311924412E+03    0.12375E-05   -0.93025E-06  2281   0.131E-02
  78 F= -.13431192E+03 E0= -.13431081E+03  d E =0.139594E-04
quench:  g(F)=  0.000E+00 g(S)=  0.000E+00 dE (1.order)= 0.000E+00
 bond charge predicted
       N       E                     dE             d eps       ncg     rms          rms(c)
DAV:   1    -0.134311897899E+03    0.27750E-04   -0.26662E-03  4608   0.114E-01    0.120E-02
RMM:   2    -0.134311911116E+03   -0.13217E-04   -0.13875E-04  3516   0.253E-02    0.942E-03
RMM:   3    -0.134311908789E+03    0.23275E-05   -0.66528E-06  2144   0.116E-02
  79 F= -.13431191E+03 E0= -.13431079E+03  d E =0.156233E-04
quench:  g(F)=  0.000E+00 g(S)=  0.000E+00 dE (1.order)= 0.000E+00
 bond charge predicted
       N       E                     dE             d eps       ncg     rms          rms(c)
DAV:   1    -0.134311885788E+03    0.25328E-04   -0.25400E-03  4401   0.110E-01    0.115E-02
RMM:   2    -0.134311905103E+03   -0.19314E-04   -0.12265E-04  3516   0.261E-02    0.173E-02
RMM:   3    -0.134311896696E+03    0.84066E-05   -0.11936E-05  2258   0.156E-02
  80 F= -.13431190E+03 E0= -.13431078E+03  d E =0.120926E-04
quench:  g(F)=  0.000E+00 g(S)=  0.000E+00 dE (1.order)= 0.000E+00
 bond charge predicted
       N       E                     dE             d eps       ncg     rms          rms(c)
DAV:   1    -0.134311869078E+03    0.36024E-04   -0.26115E-03  4032   0.103E-01    0.113E-02
RMM:   2    -0.134311881707E+03   -0.12628E-04   -0.12619E-04  3456   0.263E-02    0.104E-02
RMM:   3    -0.134311880211E+03    0.14953E-05   -0.93465E-06  2219   0.145E-02
  81 F= -.13431188E+03 E0= -.13431077E+03  d E =0.164846E-04
quench:  g(F)=  0.000E+00 g(S)=  0.000E+00 dE (1.order)= 0.000E+00
 bond charge predicted
       N       E                     dE             d eps       ncg     rms          rms(c)
DAV:   1    -0.134311851625E+03    0.30082E-04   -0.28268E-03  4410   0.117E-01    0.113E-02
RMM:   2    -0.134311865649E+03   -0.14025E-04   -0.13474E-04  3607   0.257E-02    0.922E-03
RMM:   3    -0.134311864208E+03    0.14410E-05   -0.78923E-06  2233   0.121E-02
  82 F= -.13431186E+03 E0= -.13431075E+03  d E =0.160030E-04
quench:  g(F)=  0.000E+00 g(S)=  0.000E+00 dE (1.order)= 0.000E+00
 bond charge predicted
       N       E                     dE             d eps       ncg     rms          rms(c)
DAV:   1    -0.134311833919E+03    0.31730E-04   -0.29376E-03  4473   0.120E-01    0.122E-02
RMM:   2    -0.134311848327E+03   -0.14408E-04   -0.14967E-04  3662   0.264E-02    0.912E-03
RMM:   3    -0.134311845583E+03    0.27444E-05   -0.69094E-06  2155   0.113E-02
  83 F= -.13431185E+03 E0= -.13431073E+03  d E =0.186257E-04
quench:  g(F)=  0.000E+00 g(S)=  0.000E+00 dE (1.order)= 0.000E+00
 bond charge predicted
       N       E                     dE             d eps       ncg     rms          rms(c)
DAV:   1    -0.134311817613E+03    0.30714E-04   -0.29805E-03  4077   0.111E-01    0.115E-02
RMM:   2    -0.134311831962E+03   -0.14349E-04   -0.13997E-04  3696   0.273E-02    0.121E-02
RMM:   3    -0.134311830047E+03    0.19155E-05   -0.10624E-05  2284   0.149E-02
  84 F= -.13431183E+03 E0= -.13431072E+03  d E =0.155358E-04
quench:  g(F)=  0.000E+00 g(S)=  0.000E+00 dE (1.order)= 0.000E+00
 bond charge predicted
       N       E                     dE             d eps       ncg     rms          rms(c)
DAV:   1    -0.134311797989E+03    0.33974E-04   -0.27927E-03  4374   0.113E-01    0.119E-02
RMM:   2    -0.134311811727E+03   -0.13739E-04   -0.14443E-04  3585   0.270E-02    0.940E-03
RMM:   3    -0.134311809447E+03    0.22803E-05   -0.76967E-06  2133   0.127E-02
  85 F= -.13431181E+03 E0= -.13431070E+03  d E =0.205997E-04
quench:  g(F)=  0.000E+00 g(S)=  0.000E+00 dE (1.order)= 0.000E+00
 bond charge predicted
       N       E                     dE             d eps       ncg     rms          rms(c)
DAV:   1    -0.134311781520E+03    0.30207E-04   -0.26449E-03  4329   0.110E-01    0.117E-02
RMM:   2    -0.134311798815E+03   -0.17295E-04   -0.12565E-04  3575   0.264E-02    0.152E-02
RMM:   3    -0.134311793199E+03    0.56161E-05   -0.11320E-05  2237   0.155E-02
  86 F= -.13431179E+03 E0= -.13431068E+03  d E =0.162485E-04
quench:  g(F)=  0.000E+00 g(S)=  0.000E+00 dE (1.order)= 0.000E+00
 bond charge predicted
       N       E                     dE             d eps       ncg     rms          rms(c)
DAV:   1    -0.134311764076E+03    0.34739E-04   -0.24591E-03  4104   0.102E-01    0.111E-02
RMM:   2    -0.134311776202E+03   -0.12126E-04   -0.12257E-04  3429   0.257E-02    0.103E-02
RMM:   3    -0.134311774592E+03    0.16099E-05   -0.90076E-06  2205   0.145E-02
  87 F= -.13431177E+03 E0= -.13431066E+03  d E =0.186069E-04
quench:  g(F)=  0.000E+00 g(S)=  0.000E+00 dE (1.order)= 0.000E+00
 bond charge predicted
       N       E                     dE             d eps       ncg     rms          rms(c)
DAV:   1    -0.134311746928E+03    0.29273E-04   -0.24752E-03  4554   0.110E-01    0.108E-02
RMM:   2    -0.134311758797E+03   -0.11869E-04   -0.11701E-04  3473   0.241E-02    0.100E-02
RMM:   3    -0.134311757859E+03    0.93848E-06   -0.86265E-06  2283   0.126E-02
  88 F= -.13431176E+03 E0= -.13431064E+03  d E =0.167329E-04
quench:  g(F)=  0.000E+00 g(S)=  0.000E+00 dE (1.order)= 0.000E+00
 bond charge predicted
       N       E                     dE             d eps       ncg     rms          rms(c)
DAV:   1    -0.134311728228E+03    0.30570E-04   -0.24975E-03  4518   0.109E-01    0.115E-02
RMM:   2    -0.134311740544E+03   -0.12317E-04   -0.12704E-04  3444   0.248E-02    0.942E-03
RMM:   3    -0.134311738341E+03    0.22029E-05   -0.69636E-06  2144   0.121E-02
  89 F= -.13431174E+03 E0= -.13431062E+03  d E =0.195173E-04
quench:  g(F)=  0.000E+00 g(S)=  0.000E+00 dE (1.order)= 0.000E+00
 bond charge predicted
       N       E                     dE             d eps       ncg     rms          rms(c)
DAV:   1    -0.134311708766E+03    0.31779E-04   -0.26518E-03  4203   0.108E-01    0.113E-02
RMM:   2    -0.134311725417E+03   -0.16652E-04   -0.12327E-04  3530   0.261E-02    0.139E-02
RMM:   3    -0.134311720346E+03    0.50717E-05   -0.98997E-06  2241   0.143E-02
  90 F= -.13431172E+03 E0= -.13431061E+03  d E =0.179959E-04
quench:  g(F)=  0.000E+00 g(S)=  0.000E+00 dE (1.order)= 0.000E+00
 bond charge predicted
       N       E                     dE             d eps       ncg     rms          rms(c)
DAV:   1    -0.134311686650E+03    0.38768E-04   -0.27575E-03  4077   0.108E-01    0.115E-02
RMM:   2    -0.134311699983E+03   -0.13334E-04   -0.13508E-04  3530   0.267E-02    0.101E-02
RMM:   3    -0.134311698393E+03    0.15904E-05   -0.91472E-06  2219   0.140E-02
  91 F= -.13431170E+03 E0= -.13431059E+03  d E =0.219529E-04
quench:  g(F)=  0.000E+00 g(S)=  0.000E+00 dE (1.order)= 0.000E+00
 bond charge predicted
       N       E                     dE             d eps       ncg     rms          rms(c)
DAV:   1    -0.134311664865E+03    0.35118E-04   -0.29109E-03  4482   0.120E-01    0.116E-02
RMM:   2    -0.134311678808E+03   -0.13943E-04   -0.13965E-04  3641   0.260E-02    0.103E-02
RMM:   3    -0.134311677779E+03    0.10292E-05   -0.93097E-06  2289   0.129E-02
  92 F= -.13431168E+03 E0= -.13431057E+03  d E =0.206142E-04
quench:  g(F)=  0.000E+00 g(S)=  0.000E+00 dE (1.order)= 0.000E+00
 bond charge predicted
       N       E                     dE             d eps       ncg     rms          rms(c)
DAV:   1    -0.134311645103E+03    0.33704E-04   -0.28139E-03  4581   0.116E-01    0.123E-02
RMM:   2    -0.134311659147E+03   -0.14043E-04   -0.14621E-04  3605   0.260E-02    0.985E-03
RMM:   3    -0.134311656520E+03    0.26270E-05   -0.68041E-06  2145   0.117E-02
  93 F= -.13431166E+03 E0= -.13431054E+03  d E =0.212587E-04
quench:  g(F)=  0.000E+00 g(S)=  0.000E+00 dE (1.order)= 0.000E+00
 bond charge predicted
       N       E                     dE             d eps       ncg     rms          rms(c)
DAV:   1    -0.134311626661E+03    0.32486E-04   -0.27356E-03  4347   0.112E-01    0.119E-02
RMM:   2    -0.134311646525E+03   -0.19864E-04   -0.13250E-04  3625   0.267E-02    0.169E-02
RMM:   3    -0.134311638379E+03    0.81457E-05   -0.11184E-05  2252   0.153E-02
  94 F= -.13431164E+03 E0= -.13431053E+03  d E =0.181405E-04
quench:  g(F)=  0.000E+00 g(S)=  0.000E+00 dE (1.order)= 0.000E+00
 bond charge predicted
       N       E                     dE             d eps       ncg     rms          rms(c)
DAV:   1    -0.134311607219E+03    0.39306E-04   -0.26433E-03  4050   0.105E-01    0.115E-02
RMM:   2    -0.134311620267E+03   -0.13048E-04   -0.13098E-04  3497   0.264E-02    0.105E-02
RMM:   3    -0.134311618654E+03    0.16126E-05   -0.91982E-06  2221   0.143E-02
  95 F= -.13431162E+03 E0= -.13431051E+03  d E =0.197250E-04
quench:  g(F)=  0.000E+00 g(S)=  0.000E+00 dE (1.order)= 0.000E+00
 bond charge predicted
       N       E                     dE             d eps       ncg     rms          rms(c)
DAV:   1    -0.134311587581E+03    0.32686E-04   -0.26870E-03  4554   0.116E-01    0.112E-02
RMM:   2    -0.134311601295E+03   -0.13714E-04   -0.12938E-04  3530   0.249E-02    0.963E-03
RMM:   3    -0.134311599631E+03    0.16648E-05   -0.85677E-06  2239   0.125E-02
  96 F= -.13431160E+03 E0= -.13431049E+03  d E =0.190238E-04
quench:  g(F)=  0.000E+00 g(S)=  0.000E+00 dE (1.order)= 0.000E+00
 bond charge predicted
       N       E                     dE             d eps       ncg     rms          rms(c)
DAV:   1    -0.134311568035E+03    0.33260E-04   -0.26773E-03  4446   0.114E-01    0.118E-02
RMM:   2    -0.134311581233E+03   -0.13198E-04   -0.13735E-04  3544   0.254E-02    0.905E-03
RMM:   3    -0.134311578762E+03    0.24710E-05   -0.63164E-06  2125   0.113E-02
  97 F= -.13431158E+03 E0= -.13431047E+03  d E =0.208685E-04
quench:  g(F)=  0.000E+00 g(S)=  0.000E+00 dE (1.order)= 0.000E+00
 bond charge predicted
       N       E                     dE             d eps       ncg     rms          rms(c)
DAV:   1    -0.134311549413E+03    0.31821E-04   -0.28317E-03  4158   0.108E-01    0.116E-02
RMM:   2    -0.134311567109E+03   -0.17697E-04   -0.12933E-04  3610   0.261E-02    0.148E-02
RMM:   3    -0.134311561368E+03    0.57414E-05   -0.10302E-05  2248   0.146E-02
  98 F= -.13431156E+03 E0= -.13431045E+03  d E =0.173942E-04
quench:  g(F)=  0.000E+00 g(S)=  0.000E+00 dE (1.order)= 0.000E+00
 bond charge predicted
       N       E                     dE             d eps       ncg     rms          rms(c)
DAV:   1    -0.134311527076E+03    0.40033E-04   -0.29925E-03  4239   0.114E-01    0.119E-02
RMM:   2    -0.134311541754E+03   -0.14678E-04   -0.15095E-04  3654   0.277E-02    0.972E-03
RMM:   3    -0.134311538826E+03    0.29282E-05   -0.82948E-06  2273   0.131E-02
  99 F= -.13431154E+03 E0= -.13431043E+03  d E =0.225419E-04
quench:  g(F)=  0.000E+00 g(S)=  0.000E+00 dE (1.order)= 0.000E+00
 bond charge predicted
       N       E                     dE             d eps       ncg     rms          rms(c)
DAV:   1    -0.134311505207E+03    0.36548E-04   -0.31274E-03  4536   0.124E-01    0.121E-02
RMM:   2    -0.134311522042E+03   -0.16835E-04   -0.15301E-04  3779   0.276E-02    0.131E-02
RMM:   3    -0.134311518528E+03    0.35139E-05   -0.10271E-05  2285   0.139E-02
 100 F= -.13431152E+03 E0= -.13431041E+03  d E =0.202981E-04
quench:  g(F)=  0.000E+00 g(S)=  0.000E+00 dE (1.order)= 0.000E+00
 bond charge predicted
       N       E                     dE             d eps       ncg     rms          rms(c)
DAV:   1    -0.134311486153E+03    0.35888E-04   -0.29424E-03  4311   0.115E-01    0.127E-02
RMM:   2    -0.134311501231E+03   -0.15077E-04   -0.15541E-04  3680   0.277E-02    0.109E-02
RMM:   3    -0.134311498735E+03    0.24959E-05   -0.79451E-06  2199   0.127E-02
 101 F= -.13431150E+03 E0= -.13431039E+03  d E =0.197931E-04
quench:  g(F)=  0.000E+00 g(S)=  0.000E+00 dE (1.order)= 0.000E+00
 bond charge predicted
       N       E                     dE             d eps       ncg     rms          rms(c)
DAV:   1    -0.134311468539E+03    0.32691E-04   -0.27997E-03  4590   0.119E-01    0.120E-02
RMM:   2    -0.134311486346E+03   -0.17807E-04   -0.13750E-04  3644   0.265E-02    0.137E-02
RMM:   3    -0.134311481486E+03    0.48601E-05   -0.11073E-05  2248   0.148E-02
 102 F= -.13431148E+03 E0= -.13431037E+03  d E =0.172487E-04
quench:  g(F)=  0.000E+00 g(S)=  0.000E+00 dE (1.order)= 0.000E+00
 bond charge predicted
       N       E                     dE             d eps       ncg     rms          rms(c)
DAV:   1    -0.134311452101E+03    0.34245E-04   -0.26053E-03  4113   0.107E-01    0.115E-02
RMM:   2    -0.134311465388E+03   -0.13287E-04   -0.13381E-04  3524   0.265E-02    0.106E-02
RMM:   3    -0.134311463580E+03    0.18074E-05   -0.90835E-06  2218   0.143E-02
 103 F= -.13431146E+03 E0= -.13431035E+03  d E =0.179058E-04
quench:  g(F)=  0.000E+00 g(S)=  0.000E+00 dE (1.order)= 0.000E+00
 bond charge predicted
       N       E                     dE             d eps       ncg     rms          rms(c)
DAV:   1    -0.134311435053E+03    0.30334E-04   -0.25445E-03  4563   0.114E-01    0.110E-02
RMM:   2    -0.134311448526E+03   -0.13473E-04   -0.12284E-04  3495   0.244E-02    0.102E-02
RMM:   3    -0.134311446381E+03    0.21450E-05   -0.84335E-06  2238   0.127E-02
 104 F= -.13431145E+03 E0= -.13431034E+03  d E =0.171988E-04
quench:  g(F)=  0.000E+00 g(S)=  0.000E+00 dE (1.order)= 0.000E+00
 bond charge predicted
       N       E                     dE             d eps       ncg     rms          rms(c)
DAV:   1    -0.134311417601E+03    0.30926E-04   -0.24908E-03  4383   0.110E-01    0.114E-02
RMM:   2    -0.134311429930E+03   -0.12329E-04   -0.12808E-04  3432   0.248E-02    0.920E-03
RMM:   3    -0.134311427745E+03    0.21841E-05   -0.67960E-06  2144   0.118E-02
 105 F= -.13431143E+03 E0= -.13431032E+03  d E =0.186360E-04
quench:  g(F)=  0.000E+00 g(S)=  0.000E+00 dE (1.order)= 0.000E+00
 bond charge predicted
       N       E                     dE             d eps       ncg     rms          rms(c)
DAV:   1    -0.134311398771E+03    0.31159E-04   -0.27428E-03  4221   0.111E-01    0.115E-02
RMM:   2    -0.134311416984E+03   -0.18213E-04   -0.12798E-04  3589   0.264E-02    0.151E-02
RMM:   3    -0.134311410513E+03    0.64711E-05   -0.10799E-05  2251   0.148E-02
 106 F= -.13431141E+03 E0= -.13431030E+03  d E =0.172324E-04
quench:  g(F)=  0.000E+00 g(S)=  0.000E+00 dE (1.order)= 0.000E+00
 bond charge predicted
       N       E                     dE             d eps       ncg     rms          rms(c)
DAV:   1    -0.134311375371E+03    0.41613E-04   -0.30657E-03  4041   0.113E-01    0.120E-02
RMM:   2    -0.134311390098E+03   -0.14727E-04   -0.14861E-04  3651   0.283E-02    0.106E-02
RMM:   3    -0.134311388249E+03    0.18493E-05   -0.97113E-06  2229   0.143E-02
 107 F= -.13431139E+03 E0= -.13431028E+03  d E =0.222641E-04
quench:  g(F)=  0.000E+00 g(S)=  0.000E+00 dE (1.order)= 0.000E+00
 bond charge predicted
       N       E                     dE             d eps       ncg     rms          rms(c)
DAV:   1    -0.134311352111E+03    0.37987E-04   -0.33397E-03  4392   0.128E-01    0.122E-02
RMM:   2    -0.134311369282E+03   -0.17171E-04   -0.16301E-04  3851   0.281E-02    0.105E-02
RMM:   3    -0.134311366925E+03    0.23569E-05   -0.92557E-06  2257   0.126E-02
 108 F= -.13431137E+03 E0= -.13431026E+03  d E =0.213238E-04
quench:  g(F)=  0.000E+00 g(S)=  0.000E+00 dE (1.order)= 0.000E+00
 bond charge predicted
       N       E                     dE             d eps       ncg     rms          rms(c)
DAV:   1    -0.134311330879E+03    0.38403E-04   -0.32895E-03  4419   0.127E-01    0.131E-02
RMM:   2    -0.134311347484E+03   -0.16605E-04   -0.17348E-04  3833   0.283E-02    0.102E-02
RMM:   3    -0.134311344116E+03    0.33684E-05   -0.70728E-06  2136   0.113E-02
 109 F= -.13431134E+03 E0= -.13431024E+03  d E =0.228093E-04
quench:  g(F)=  0.000E+00 g(S)=  0.000E+00 dE (1.order)= 0.000E+00
 bond charge predicted
       N       E                     dE             d eps       ncg     rms          rms(c)
DAV:   1    -0.134311314116E+03    0.33368E-04   -0.30939E-03  4194   0.114E-01    0.126E-02
RMM:   2    -0.134311335222E+03   -0.21106E-04   -0.14813E-04  3792   0.279E-02    0.171E-02
RMM:   3    -0.134311327128E+03    0.80934E-05   -0.11698E-05  2259   0.152E-02
 110 F= -.13431133E+03 E0= -.13431022E+03  d E =0.169877E-04
quench:  g(F)=  0.000E+00 g(S)=  0.000E+00 dE (1.order)= 0.000E+00
 bond charge predicted
       N       E                     dE             d eps       ncg     rms          rms(c)
DAV:   1    -0.134311296348E+03    0.38874E-04   -0.27503E-03  4266   0.110E-01    0.118E-02
RMM:   2    -0.134311309279E+03   -0.12932E-04   -0.14351E-04  3632   0.266E-02    0.984E-03
RMM:   3    -0.134311307280E+03    0.19995E-05   -0.79399E-06  2218   0.129E-02
 111 F= -.13431131E+03 E0= -.13431020E+03  d E =0.198483E-04
quench:  g(F)=  0.000E+00 g(S)=  0.000E+00 dE (1.order)= 0.000E+00
 bond charge predicted
       N       E                     dE             d eps       ncg     rms          rms(c)
DAV:   1    -0.134311280094E+03    0.29185E-04   -0.26050E-03  4590   0.115E-01    0.113E-02
RMM:   2    -0.134311294953E+03   -0.14859E-04   -0.12688E-04  3549   0.257E-02    0.138E-02
RMM:   3    -0.134311290943E+03    0.40097E-05   -0.10637E-05  2282   0.145E-02
 112 F= -.13431129E+03 E0= -.13431018E+03  d E =0.163369E-04
quench:  g(F)=  0.000E+00 g(S)=  0.000E+00 dE (1.order)= 0.000E+00
 bond charge predicted
       N       E                     dE             d eps       ncg     rms          rms(c)
DAV:   1    -0.134311263052E+03    0.31901E-04   -0.25686E-03  4221   0.105E-01    0.117E-02
RMM:   2    -0.134311275790E+03   -0.12738E-04   -0.12972E-04  3489   0.261E-02    0.104E-02
RMM:   3    -0.134311274025E+03    0.17650E-05   -0.79056E-06  2200   0.133E-02
 113 F= -.13431127E+03 E0= -.13431017E+03  d E =0.169185E-04
quench:  g(F)=  0.000E+00 g(S)=  0.000E+00 dE (1.order)= 0.000E+00
 bond charge predicted
       N       E                     dE             d eps       ncg     rms          rms(c)
DAV:   1    -0.134311245322E+03    0.30468E-04   -0.27733E-03  4482   0.118E-01    0.116E-02
RMM:   2    -0.134311260451E+03   -0.15129E-04   -0.13530E-04  3641   0.261E-02    0.110E-02
RMM:   3    -0.134311257751E+03    0.27008E-05   -0.95753E-06  2242   0.139E-02
 114 F= -.13431126E+03 E0= -.13431015E+03  d E =0.162739E-04
quench:  g(F)=  0.000E+00 g(S)=  0.000E+00 dE (1.order)= 0.000E+00
 bond charge predicted
       N       E                     dE             d eps       ncg     rms          rms(c)
DAV:   1    -0.134311226516E+03    0.33936E-04   -0.29854E-03  4203   0.117E-01    0.120E-02
RMM:   2    -0.134311241579E+03   -0.15063E-04   -0.15306E-04  3680   0.281E-02    0.106E-02
RMM:   3    -0.134311239283E+03    0.22961E-05   -0.88564E-06  2206   0.140E-02
 115 F= -.13431124E+03 E0= -.13431013E+03  d E =0.184675E-04
quench:  g(F)=  0.000E+00 g(S)=  0.000E+00 dE (1.order)= 0.000E+00
 bond charge predicted
       N       E                     dE             d eps       ncg     rms          rms(c)
DAV:   1    -0.134311207824E+03    0.33755E-04   -0.32456E-03  4365   0.126E-01    0.123E-02
RMM:   2    -0.134311224507E+03   -0.16683E-04   -0.15890E-04  3847   0.277E-02    0.120E-02
RMM:   3    -0.134311221960E+03    0.25467E-05   -0.95972E-06  2286   0.131E-02
 116 F= -.13431122E+03 E0= -.13431012E+03  d E =0.173233E-04
quench:  g(F)=  0.000E+00 g(S)=  0.000E+00 dE (1.order)= 0.000E+00
 bond charge predicted
       N       E                     dE             d eps       ncg     rms          rms(c)
DAV:   1    -0.134311188409E+03    0.36098E-04   -0.32746E-03  4410   0.124E-01    0.132E-02
RMM:   2    -0.134311205184E+03   -0.16776E-04   -0.17338E-04  3844   0.289E-02    0.109E-02
RMM:   3    -0.134311201943E+03    0.32417E-05   -0.76816E-06  2179   0.119E-02
 117 F= -.13431120E+03 E0= -.13431009E+03  d E =0.200173E-04
quench:  g(F)=  0.000E+00 g(S)=  0.000E+00 dE (1.order)= 0.000E+00
 bond charge predicted
       N       E                     dE             d eps       ncg     rms          rms(c)
DAV:   1    -0.134311172745E+03    0.32439E-04   -0.32534E-03  4302   0.124E-01    0.130E-02
RMM:   2    -0.134311195350E+03   -0.22604E-04   -0.16359E-04  3921   0.293E-02    0.167E-02
RMM:   3    -0.134311187165E+03    0.81846E-05   -0.11580E-05  2264   0.150E-02
 118 F= -.13431119E+03 E0= -.13431008E+03  d E =0.147775E-04
quench:  g(F)=  0.000E+00 g(S)=  0.000E+00 dE (1.order)= 0.000E+00
 bond charge predicted
       N       E                     dE             d eps       ncg     rms          rms(c)
DAV:   1    -0.134311156755E+03    0.38594E-04   -0.30459E-03  4077   0.114E-01    0.126E-02
RMM:   2    -0.134311172374E+03   -0.15618E-04   -0.15755E-04  3728   0.286E-02    0.113E-02
RMM:   3    -0.134311170180E+03    0.21940E-05   -0.94565E-06  2227   0.141E-02
 119 F= -.13431117E+03 E0= -.13431006E+03  d E =0.169852E-04
quench:  g(F)=  0.000E+00 g(S)=  0.000E+00 dE (1.order)= 0.000E+00
 bond charge predicted
       N       E                     dE             d eps       ncg     rms          rms(c)
DAV:   1    -0.134311143225E+03    0.29149E-04   -0.27538E-03  4482   0.120E-01    0.118E-02
RMM:   2    -0.134311158396E+03   -0.15171E-04   -0.14036E-04  3684   0.259E-02    0.107E-02
RMM:   3    -0.134311155959E+03    0.24364E-05   -0.88161E-06  2247   0.129E-02
 120 F= -.13431116E+03 E0= -.13431005E+03  d E =0.142205E-04
quench:  g(F)=  0.000E+00 g(S)=  0.000E+00 dE (1.order)= 0.000E+00
 bond charge predicted
       N       E                     dE             d eps       ncg     rms          rms(c)
DAV:   1    -0.134311131442E+03    0.26954E-04   -0.23761E-03  4527   0.109E-01    0.116E-02
RMM:   2    -0.134311143403E+03   -0.11961E-04   -0.12527E-04  3416   0.240E-02    0.913E-03
RMM:   3    -0.134311141226E+03    0.21777E-05   -0.59915E-06  2126   0.114E-02
 121 F= -.13431114E+03 E0= -.13431003E+03  d E =0.147337E-04
quench:  g(F)=  0.000E+00 g(S)=  0.000E+00 dE (1.order)= 0.000E+00
 bond charge predicted
       N       E                     dE             d eps       ncg     rms          rms(c)
DAV:   1    -0.134311119352E+03    0.24051E-04   -0.23691E-03  4248   0.104E-01    0.112E-02
RMM:   2    -0.134311135811E+03   -0.16459E-04   -0.11391E-04  3481   0.254E-02    0.159E-02
RMM:   3    -0.134311128853E+03    0.69579E-05   -0.10529E-05  2248   0.150E-02
 122 F= -.13431113E+03 E0= -.13431002E+03  d E =0.123724E-04
quench:  g(F)=  0.000E+00 g(S)=  0.000E+00 dE (1.order)= 0.000E+00
 bond charge predicted
       N       E                     dE             d eps       ncg     rms          rms(c)
DAV:   1    -0.134311102547E+03    0.33264E-04   -0.26285E-03  4050   0.106E-01    0.113E-02
RMM:   2    -0.134311115223E+03   -0.12676E-04   -0.12832E-04  3495   0.265E-02    0.970E-03
RMM:   3    -0.134311113913E+03    0.13094E-05   -0.93162E-06  2219   0.140E-02
 123 F= -.13431111E+03 E0= -.13431001E+03  d E =0.149401E-04
quench:  g(F)=  0.000E+00 g(S)=  0.000E+00 dE (1.order)= 0.000E+00
 bond charge predicted
       N       E                     dE             d eps       ncg     rms          rms(c)
DAV:   1    -0.134311084862E+03    0.30361E-04   -0.30922E-03  4329   0.124E-01    0.120E-02
RMM:   2    -0.134311100692E+03   -0.15831E-04   -0.15075E-04  3799   0.276E-02    0.988E-03
RMM:   3    -0.134311098965E+03    0.17271E-05   -0.94190E-06  2257   0.127E-02
 124 F= -.13431110E+03 E0= -.13430999E+03  d E =0.149479E-04
quench:  g(F)=  0.000E+00 g(S)=  0.000E+00 dE (1.order)= 0.000E+00
 bond charge predicted
       N       E                     dE             d eps       ncg     rms          rms(c)
DAV:   1    -0.134311066528E+03    0.34164E-04   -0.33944E-03  4311   0.129E-01    0.133E-02
RMM:   2    -0.134311083705E+03   -0.17177E-04   -0.17895E-04  3915   0.294E-02    0.103E-02
RMM:   3    -0.134311080346E+03    0.33589E-05   -0.71031E-06  2138   0.117E-02
 125 F= -.13431108E+03 E0= -.13430997E+03  d E =0.186195E-04
quench:  g(F)=  0.000E+00 g(S)=  0.000E+00 dE (1.order)= 0.000E+00
 bond charge predicted
       N       E                     dE             d eps       ncg     rms          rms(c)
DAV:   1    -0.134311050692E+03    0.33013E-04   -0.36094E-03  4221   0.129E-01    0.137E-02
RMM:   2    -0.134311076504E+03   -0.25812E-04   -0.17929E-04  4083   0.307E-02    0.186E-02
RMM:   3    -0.134311066164E+03    0.10340E-04   -0.13024E-05  2281   0.156E-02    0.111E-02
RMM:   4    -0.134311064302E+03    0.18623E-05   -0.44596E-06  2231   0.112E-02
 126 F= -.13431106E+03 E0= -.13430996E+03  d E =0.160442E-04
quench:  g(F)=  0.000E+00 g(S)=  0.000E+00 dE (1.order)= 0.000E+00
 bond charge predicted
       N       E                     dE             d eps       ncg     rms          rms(c)
DAV:   1    -0.134311037401E+03    0.28763E-04   -0.35725E-03  4131   0.116E-01    0.134E-02
RMM:   2    -0.134311054393E+03   -0.16992E-04   -0.16567E-04  3826   0.279E-02    0.128E-02
RMM:   3    -0.134311050618E+03    0.37747E-05   -0.88707E-06  2197   0.125E-02
 127 F= -.13431105E+03 E0= -.13430994E+03  d E =0.136832E-04
quench:  g(F)=  0.000E+00 g(S)=  0.000E+00 dE (1.order)= 0.000E+00
 bond charge predicted
       N       E                     dE             d eps       ncg     rms          rms(c)
DAV:   1    -0.134311020906E+03    0.33487E-04   -0.34979E-03  4338   0.128E-01    0.132E-02
RMM:   2    -0.134311040987E+03   -0.20081E-04   -0.17901E-04  4049   0.305E-02    0.130E-02
RMM:   3    -0.134311036806E+03    0.41816E-05   -0.10583E-05  2257   0.143E-02
 128 F= -.13431104E+03 E0= -.13430993E+03  d E =0.138128E-04
quench:  g(F)=  0.000E+00 g(S)=  0.000E+00 dE (1.order)= 0.000E+00
 bond charge predicted
       N       E                     dE             d eps       ncg     rms          rms(c)
DAV:   1    -0.134311007433E+03    0.33554E-04   -0.32013E-03  4257   0.122E-01    0.132E-02
RMM:   2    -0.134311024575E+03   -0.17142E-04   -0.17447E-04  3853   0.294E-02    0.118E-02
RMM:   3    -0.134311021436E+03    0.31388E-05   -0.97069E-06  2205   0.141E-02
 129 F= -.13431102E+03 E0= -.13430992E+03  d E =0.153698E-04
quench:  g(F)=  0.000E+00 g(S)=  0.000E+00 dE (1.order)= 0.000E+00
 bond charge predicted
       N       E                     dE             d eps       ncg     rms          rms(c)
DAV:   1    -0.134310996910E+03    0.27664E-04   -0.28278E-03  4455   0.120E-01    0.122E-02
RMM:   2    -0.134311013052E+03   -0.16142E-04   -0.14175E-04  3732   0.266E-02    0.138E-02
RMM:   3    -0.134311009174E+03    0.38780E-05   -0.10772E-05  2287   0.142E-02
 130 F= -.13431101E+03 E0= -.13430991E+03  d E =0.122617E-04
quench:  g(F)=  0.000E+00 g(S)=  0.000E+00 dE (1.order)= 0.000E+00
 bond charge predicted
       N       E                     dE             d eps       ncg     rms          rms(c)
DAV:   1    -0.134310985166E+03    0.27886E-04   -0.24825E-03  4374   0.108E-01    0.121E-02
RMM:   2    -0.134310998098E+03   -0.12932E-04   -0.13213E-04  3523   0.256E-02    0.103E-02
RMM:   3    -0.134310995981E+03    0.21172E-05   -0.77918E-06  2190   0.126E-02
 131 F= -.13431100E+03 E0= -.13430989E+03  d E =0.131933E-04
quench:  g(F)=  0.000E+00 g(S)=  0.000E+00 dE (1.order)= 0.000E+00
 bond charge predicted
       N       E                     dE             d eps       ncg     rms          rms(c)
DAV:   1    -0.134310972178E+03    0.25919E-04   -0.24614E-03  4437   0.111E-01    0.115E-02
RMM:   2    -0.134310987779E+03   -0.15601E-04   -0.12139E-04  3560   0.259E-02    0.139E-02
RMM:   3    -0.134310982901E+03    0.48783E-05   -0.11101E-05  2250   0.148E-02
 132 F= -.13431098E+03 E0= -.13430988E+03  d E =0.130800E-04
quench:  g(F)=  0.000E+00 g(S)=  0.000E+00 dE (1.order)= 0.000E+00
 bond charge predicted
       N       E                     dE             d eps       ncg     rms          rms(c)
DAV:   1    -0.134310956244E+03    0.31535E-04   -0.25540E-03  4068   0.105E-01    0.115E-02
RMM:   2    -0.134310969273E+03   -0.13030E-04   -0.12958E-04  3533   0.267E-02    0.107E-02
RMM:   3    -0.134310967544E+03    0.17293E-05   -0.93032E-06  2208   0.148E-02
 133 F= -.13431097E+03 E0= -.13430986E+03  d E =0.153567E-04
quench:  g(F)=  0.000E+00 g(S)=  0.000E+00 dE (1.order)= 0.000E+00
 bond charge predicted
       N       E                     dE             d eps       ncg     rms          rms(c)
DAV:   1    -0.134310937182E+03    0.32092E-04   -0.27872E-03  4392   0.118E-01    0.117E-02
RMM:   2    -0.134310951861E+03   -0.14680E-04   -0.13824E-04  3720   0.260E-02    0.978E-03
RMM:   3    -0.134310949968E+03    0.18934E-05   -0.79319E-06  2241   0.119E-02
 134 F= -.13431095E+03 E0= -.13430985E+03  d E =0.175761E-04
quench:  g(F)=  0.000E+00 g(S)=  0.000E+00 dE (1.order)= 0.000E+00
 bond charge predicted
       N       E                     dE             d eps       ncg     rms          rms(c)
DAV:   1    -0.134310920197E+03    0.31664E-04   -0.28171E-03  4500   0.118E-01    0.126E-02
RMM:   2    -0.134310934532E+03   -0.14335E-04   -0.14857E-04  3664   0.262E-02    0.984E-03
RMM:   3    -0.134310931669E+03    0.28627E-05   -0.74311E-06  2143   0.119E-02
 135 F= -.13431093E+03 E0= -.13430983E+03  d E =0.182985E-04
quench:  g(F)=  0.000E+00 g(S)=  0.000E+00 dE (1.order)= 0.000E+00
 bond charge predicted
       N       E                     dE             d eps       ncg     rms          rms(c)
DAV:   1    -0.134310902964E+03    0.31568E-04   -0.28813E-03  4113   0.107E-01    0.117E-02
RMM:   2    -0.134310915972E+03   -0.13008E-04   -0.13199E-04  3611   0.263E-02    0.862E-03
RMM:   3    -0.134310914707E+03    0.12645E-05   -0.81761E-06  2192   0.130E-02
 136 F= -.13431091E+03 E0= -.13430981E+03  d E =0.169621E-04
quench:  g(F)=  0.000E+00 g(S)=  0.000E+00 dE (1.order)= 0.000E+00
 bond charge predicted
       N       E                     dE             d eps       ncg     rms          rms(c)
DAV:   1    -0.134310880987E+03    0.34985E-04   -0.29422E-03  4401   0.119E-01    0.121E-02
RMM:   2    -0.134310896875E+03   -0.15888E-04   -0.14990E-04  3735   0.271E-02    0.106E-02
RMM:   3    -0.134310894562E+03    0.23126E-05   -0.94930E-06  2255   0.133E-02
 137 F= -.13431089E+03 E0= -.13430979E+03  d E =0.201449E-04
quench:  g(F)=  0.000E+00 g(S)=  0.000E+00 dE (1.order)= 0.000E+00
 bond charge predicted
       N       E                     dE             d eps       ncg     rms          rms(c)
DAV:   1    -0.134310860614E+03    0.36261E-04   -0.29628E-03  4383   0.120E-01    0.122E-02
RMM:   2    -0.134310875317E+03   -0.14703E-04   -0.15143E-04  3762   0.273E-02    0.906E-03
RMM:   3    -0.134310872899E+03    0.24177E-05   -0.77190E-06  2136   0.130E-02
 138 F= -.13431087E+03 E0= -.13430977E+03  d E =0.216631E-04
quench:  g(F)=  0.000E+00 g(S)=  0.000E+00 dE (1.order)= 0.000E+00
 bond charge predicted
       N       E                     dE             d eps       ncg     rms          rms(c)
DAV:   1    -0.134310842491E+03    0.32826E-04   -0.27502E-03  4635   0.117E-01    0.126E-02
RMM:   2    -0.134310861799E+03   -0.19308E-04   -0.14081E-04  3653   0.270E-02    0.190E-02
RMM:   3    -0.134310852362E+03    0.94377E-05   -0.12153E-05  2257   0.156E-02
 139 F= -.13431085E+03 E0= -.13430975E+03  d E =0.205375E-04
quench:  g(F)=  0.000E+00 g(S)=  0.000E+00 dE (1.order)= 0.000E+00
 bond charge predicted
       N       E                     dE             d eps       ncg     rms          rms(c)
DAV:   1    -0.134310819795E+03    0.42005E-04   -0.26568E-03  4266   0.108E-01    0.117E-02
RMM:   2    -0.134310834413E+03   -0.14618E-04   -0.13512E-04  3697   0.269E-02    0.940E-03
RMM:   3    -0.134310833017E+03    0.13961E-05   -0.93951E-06  2230   0.132E-02
 140 F= -.13431083E+03 E0= -.13430973E+03  d E =0.193452E-04
quench:  g(F)=  0.000E+00 g(S)=  0.000E+00 dE (1.order)= 0.000E+00
 bond charge predicted
       N       E                     dE             d eps       ncg     rms          rms(c)
DAV:   1    -0.134310801859E+03    0.32554E-04   -0.25918E-03  4689   0.116E-01    0.119E-02
RMM:   2    -0.134310816872E+03   -0.15013E-04   -0.13333E-04  3617   0.252E-02    0.121E-02
RMM:   3    -0.134310813501E+03    0.33708E-05   -0.93863E-06  2238   0.142E-02
 141 F= -.13431081E+03 E0= -.13430971E+03  d E =0.195151E-04
quench:  g(F)=  0.000E+00 g(S)=  0.000E+00 dE (1.order)= 0.000E+00
 bond charge predicted
       N       E                     dE             d eps       ncg     rms          rms(c)
DAV:   1    -0.134310781621E+03    0.35251E-04   -0.25958E-03  4401   0.111E-01    0.117E-02
RMM:   2    -0.134310794415E+03   -0.12794E-04   -0.13066E-04  3558   0.261E-02    0.904E-03
RMM:   3    -0.134310792725E+03    0.16899E-05   -0.92442E-06  2160   0.141E-02
 142 F= -.13431079E+03 E0= -.13430969E+03  d E =0.207760E-04
quench:  g(F)=  0.000E+00 g(S)=  0.000E+00 dE (1.order)= 0.000E+00
 bond charge predicted
       N       E                     dE             d eps       ncg     rms          rms(c)
DAV:   1    -0.134310760418E+03    0.33997E-04   -0.25413E-03  4599   0.111E-01    0.117E-02
RMM:   2    -0.134310775344E+03   -0.14926E-04   -0.12893E-04  3564   0.248E-02    0.145E-02
RMM:   3    -0.134310770131E+03    0.52129E-05   -0.10410E-05  2246   0.143E-02
 143 F= -.13431077E+03 E0= -.13430967E+03  d E =0.225940E-04
quench:  g(F)=  0.000E+00 g(S)=  0.000E+00 dE (1.order)= 0.000E+00
 bond charge predicted
       N       E                     dE             d eps       ncg     rms          rms(c)
DAV:   1    -0.134310736918E+03    0.38427E-04   -0.26055E-03  4392   0.109E-01    0.115E-02
RMM:   2    -0.134310750895E+03   -0.13978E-04   -0.13005E-04  3627   0.258E-02    0.878E-03
RMM:   3    -0.134310749210E+03    0.16854E-05   -0.77416E-06  2213   0.126E-02
 144 F= -.13431075E+03 E0= -.13430965E+03  d E =0.209213E-04
quench:  g(F)=  0.000E+00 g(S)=  0.000E+00 dE (1.order)= 0.000E+00
 bond charge predicted
       N       E                     dE             d eps       ncg     rms          rms(c)
DAV:   1    -0.134310716024E+03    0.34871E-04   -0.26402E-03  4581   0.114E-01    0.119E-02
RMM:   2    -0.134310732803E+03   -0.16779E-04   -0.13344E-04  3641   0.258E-02    0.144E-02
RMM:   3    -0.134310727220E+03    0.55838E-05   -0.10452E-05  2245   0.148E-02
 145 F= -.13431073E+03 E0= -.13430963E+03  d E =0.219904E-04
quench:  g(F)=  0.000E+00 g(S)=  0.000E+00 dE (1.order)= 0.000E+00
 bond charge predicted
       N       E                     dE             d eps       ncg     rms          rms(c)
DAV:   1    -0.134310692708E+03    0.40096E-04   -0.27862E-03  4167   0.110E-01    0.120E-02
RMM:   2    -0.134310706299E+03   -0.13592E-04   -0.13751E-04  3610   0.278E-02    0.985E-03
RMM:   3    -0.134310705053E+03    0.12456E-05   -0.10805E-05  2222   0.151E-02
 146 F= -.13431071E+03 E0= -.13430960E+03  d E =0.221662E-04
quench:  g(F)=  0.000E+00 g(S)=  0.000E+00 dE (1.order)= 0.000E+00
 bond charge predicted
       N       E                     dE             d eps       ncg     rms          rms(c)
DAV:   1    -0.134310670913E+03    0.35386E-04   -0.27438E-03  4599   0.118E-01    0.121E-02
RMM:   2    -0.134310685659E+03   -0.14746E-04   -0.14332E-04  3674   0.253E-02    0.125E-02
RMM:   3    -0.134310682050E+03    0.36087E-05   -0.81919E-06  2236   0.125E-02
 147 F= -.13431068E+03 E0= -.13430958E+03  d E =0.230031E-04
quench:  g(F)=  0.000E+00 g(S)=  0.000E+00 dE (1.order)= 0.000E+00
 bond charge predicted
       N       E                     dE             d eps       ncg     rms          rms(c)
DAV:   1    -0.134310648316E+03    0.37343E-04   -0.27399E-03  4545   0.116E-01    0.120E-02
RMM:   2    -0.134310663508E+03   -0.15192E-04   -0.14290E-04  3734   0.262E-02    0.873E-03
RMM:   3    -0.134310661026E+03    0.24820E-05   -0.74736E-06  2192   0.120E-02
 148 F= -.13431066E+03 E0= -.13430956E+03  d E =0.210243E-04
quench:  g(F)=  0.000E+00 g(S)=  0.000E+00 dE (1.order)= 0.000E+00
 bond charge predicted
       N       E                     dE             d eps       ncg     rms          rms(c)
DAV:   1    -0.134310630006E+03    0.33502E-04   -0.27261E-03  4221   0.109E-01    0.121E-02
RMM:   2    -0.134310645742E+03   -0.15736E-04   -0.13829E-04  3666   0.267E-02    0.139E-02
RMM:   3    -0.134310641907E+03    0.38350E-05   -0.10793E-05  2243   0.151E-02
 149 F= -.13431064E+03 E0= -.13430954E+03  d E =0.191191E-04
quench:  g(F)=  0.000E+00 g(S)=  0.000E+00 dE (1.order)= 0.000E+00
 bond charge predicted
       N       E                     dE             d eps       ncg     rms          rms(c)
DAV:   1    -0.134310606779E+03    0.38963E-04   -0.28219E-03  4311   0.115E-01    0.120E-02
RMM:   2    -0.134310620840E+03   -0.14060E-04   -0.14398E-04  3700   0.274E-02    0.884E-03
RMM:   3    -0.134310618832E+03    0.20074E-05   -0.82670E-06  2154   0.128E-02
 150 F= -.13431062E+03 E0= -.13430952E+03  d E =0.230749E-04
[...]
RMM:   3    -0.134287246502E+03    0.81813E-05   -0.26682E-05  2546   0.140E-02
 462 F= -.13428725E+03 E0= -.13428606E+03  d E =0.187664E-03
quench:  g(F)=  0.000E+00 g(S)=  0.000E+00 dE (1.order)= 0.000E+00
 bond charge predicted
       N       E                     dE             d eps       ncg     rms          rms(c)
DAV:   1    -0.134286936819E+03    0.31786E-03   -0.17688E-02  4509   0.290E-01    0.353E-02
RMM:   2    -0.134287035554E+03   -0.98735E-04   -0.10302E-03  5781   0.669E-02    0.249E-02
RMM:   3    -0.134287011803E+03    0.23751E-04   -0.34651E-05  2615   0.175E-02    0.198E-02
RMM:   4    -0.134287011781E+03    0.22104E-07   -0.15583E-05  2254   0.204E-02
 463 F= -.13428701E+03 E0= -.13428583E+03  d E =0.234721E-03
quench:  g(F)=  0.000E+00 g(S)=  0.000E+00 dE (1.order)= 0.000E+00
 bond charge predicted
       N       E                     dE             d eps       ncg     rms          rms(c)
DAV:   1    -0.134286683780E+03    0.32802E-03   -0.20888E-02  4176   0.297E-01    0.356E-02
RMM:   2    -0.134286799616E+03   -0.11584E-03   -0.11148E-03  6100   0.721E-02    0.240E-02
RMM:   3    -0.134286786062E+03    0.13554E-04   -0.52368E-05  2872   0.208E-02    0.320E-02
RMM:   4    -0.134286767321E+03    0.18741E-04   -0.18625E-05  2271   0.225E-02    0.138E-02
RMM:   5    -0.134286768527E+03   -0.12068E-05   -0.10071E-05  2289   0.147E-02
 464 F= -.13428677E+03 E0= -.13428558E+03  d E =0.243253E-03
quench:  g(F)=  0.000E+00 g(S)=  0.000E+00 dE (1.order)= 0.000E+00
 bond charge predicted
       N       E                     dE             d eps       ncg     rms          rms(c)
DAV:   1    -0.134286430757E+03    0.33656E-03   -0.21996E-02  4113   0.288E-01    0.357E-02
RMM:   2    -0.134286545436E+03   -0.11468E-03   -0.11737E-03  5901   0.713E-02    0.265E-02
RMM:   3    -0.134286520355E+03    0.25081E-04   -0.41827E-05  2737   0.153E-02    0.209E-02
RMM:   4    -0.134286515280E+03    0.50750E-05   -0.11761E-05  2287   0.167E-02
 465 F= -.13428652E+03 E0= -.13428533E+03  d E =0.253247E-03
quench:  g(F)=  0.000E+00 g(S)=  0.000E+00 dE (1.order)= 0.000E+00
 bond charge predicted
       N       E                     dE             d eps       ncg     rms          rms(c)
DAV:   1    -0.134286147043E+03    0.37331E-03   -0.24996E-02  4167   0.319E-01    0.378E-02
RMM:   2    -0.134286273737E+03   -0.12669E-03   -0.12832E-03  6286   0.771E-02    0.228E-02
RMM:   3    -0.134286265891E+03    0.78465E-05   -0.46455E-05  2783   0.195E-02
 466 F= -.13428627E+03 E0= -.13428507E+03  d E =0.249389E-03
quench:  g(F)=  0.000E+00 g(S)=  0.000E+00 dE (1.order)= 0.000E+00
 bond charge predicted
       N       E                     dE             d eps       ncg     rms          rms(c)
DAV:   1    -0.134285857359E+03    0.41638E-03   -0.24853E-02  4599   0.354E-01    0.425E-02
RMM:   2    -0.134285995866E+03   -0.13851E-03   -0.14674E-03  5817   0.785E-02    0.294E-02
RMM:   3    -0.134285960809E+03    0.35058E-04   -0.56094E-05  2801   0.168E-02    0.199E-02
RMM:   4    -0.134285964047E+03   -0.32388E-05   -0.16417E-05  2283   0.197E-02
 467 F= -.13428596E+03 E0= -.13428477E+03  d E =0.301844E-03
quench:  g(F)=  0.000E+00 g(S)=  0.000E+00 dE (1.order)= 0.000E+00
 bond charge predicted
       N       E                     dE             d eps       ncg     rms          rms(c)
DAV:   1    -0.134285585490E+03    0.37532E-03   -0.25605E-02  4347   0.344E-01    0.395E-02
RMM:   2    -0.134285746311E+03   -0.16082E-03   -0.14621E-03  6103   0.807E-02    0.323E-02
RMM:   3    -0.134285719864E+03    0.26447E-04   -0.82616E-05  3532   0.277E-02    0.376E-02
RMM:   4    -0.134285695442E+03    0.24422E-04   -0.19658E-05  2312   0.228E-02    0.145E-02
RMM:   5    -0.134285696532E+03   -0.10902E-05   -0.12323E-05  2342   0.156E-02
 468 F= -.13428570E+03 E0= -.13428450E+03  d E =0.267515E-03
quench:  g(F)=  0.000E+00 g(S)=  0.000E+00 dE (1.order)= 0.000E+00
 bond charge predicted
       N       E                     dE             d eps       ncg     rms          rms(c)
DAV:   1    -0.134285370308E+03    0.32513E-03   -0.21832E-02  4113   0.285E-01    0.369E-02
RMM:   2    -0.134285489085E+03   -0.11878E-03   -0.12495E-03  5850   0.731E-02    0.290E-02
RMM:   3    -0.134285458544E+03    0.30540E-04   -0.45354E-05  2768   0.172E-02    0.202E-02
RMM:   4    -0.134285457037E+03    0.15071E-05   -0.12470E-05  2273   0.170E-02
 469 F= -.13428546E+03 E0= -.13428426E+03  d E =0.239495E-03
quench:  g(F)=  0.000E+00 g(S)=  0.000E+00 dE (1.order)= 0.000E+00
 bond charge predicted
       N       E                     dE             d eps       ncg     rms          rms(c)
DAV:   1    -0.134285144168E+03    0.31438E-03   -0.21327E-02  4194   0.301E-01    0.345E-02
RMM:   2    -0.134285258756E+03   -0.11459E-03   -0.11481E-03  6235   0.727E-02    0.210E-02
RMM:   3    -0.134285252764E+03    0.59921E-05   -0.42638E-05  2761   0.179E-02
 470 F= -.13428525E+03 E0= -.13428405E+03  d E =0.204273E-03
quench:  g(F)=  0.000E+00 g(S)=  0.000E+00 dE (1.order)= 0.000E+00
 bond charge predicted
       N       E                     dE             d eps       ncg     rms          rms(c)
DAV:   1    -0.134284932425E+03    0.32633E-03   -0.18812E-02  4743   0.321E-01    0.369E-02
RMM:   2    -0.134285040135E+03   -0.10771E-03   -0.11411E-03  5689   0.690E-02    0.261E-02
RMM:   3    -0.134285012838E+03    0.27296E-04   -0.45040E-05  2666   0.174E-02    0.175E-02
RMM:   4    -0.134285012113E+03    0.72543E-06   -0.13922E-05  2299   0.179E-02
 471 F= -.13428501E+03 E0= -.13428382E+03  d E =0.240651E-03
quench:  g(F)=  0.000E+00 g(S)=  0.000E+00 dE (1.order)= 0.000E+00
 bond charge predicted
       N       E                     dE             d eps       ncg     rms          rms(c)
DAV:   1    -0.134284746250E+03    0.26659E-03   -0.17883E-02  4185   0.269E-01    0.318E-02
RMM:   2    -0.134284839225E+03   -0.92975E-04   -0.94240E-04  6206   0.668E-02    0.181E-02
RMM:   3    -0.134284826982E+03    0.12243E-04   -0.30949E-05  2584   0.158E-02    0.177E-02
RMM:   4    -0.134284823982E+03    0.29996E-05   -0.12878E-05  2259   0.175E-02
 472 F= -.13428482E+03 E0= -.13428362E+03  d E =0.188131E-03
quench:  g(F)=  0.000E+00 g(S)=  0.000E+00 dE (1.order)= 0.000E+00
 bond charge predicted
       N       E                     dE             d eps       ncg     rms          rms(c)
DAV:   1    -0.134284564668E+03    0.26231E-03   -0.15814E-02  4203   0.257E-01    0.320E-02
RMM:   2    -0.134284654813E+03   -0.90144E-04   -0.91483E-04  5828   0.631E-02    0.268E-02
RMM:   3    -0.134284634934E+03    0.19878E-04   -0.40697E-05  2774   0.225E-02    0.242E-02
RMM:   4    -0.134284627938E+03    0.69967E-05   -0.13285E-05  2242   0.191E-02
 473 F= -.13428463E+03 E0= -.13428343E+03  d E =0.196044E-03
quench:  g(F)=  0.000E+00 g(S)=  0.000E+00 dE (1.order)= 0.000E+00
 bond charge predicted
       N       E                     dE             d eps       ncg     rms          rms(c)
DAV:   1    -0.134284350803E+03    0.28413E-03   -0.17428E-02  4140   0.266E-01    0.319E-02
RMM:   2    -0.134284439659E+03   -0.88855E-04   -0.87868E-04  6137   0.649E-02    0.209E-02
RMM:   3    -0.134284434879E+03    0.47792E-05   -0.36940E-05  2638   0.180E-02
 474 F= -.13428443E+03 E0= -.13428323E+03  d E =0.193058E-03
quench:  g(F)=  0.000E+00 g(S)=  0.000E+00 dE (1.order)= 0.000E+00
 bond charge predicted
       N       E                     dE             d eps       ncg     rms          rms(c)
DAV:   1    -0.134284094255E+03    0.34540E-03   -0.19442E-02  4563   0.318E-01    0.373E-02
RMM:   2    -0.134284204663E+03   -0.11041E-03   -0.11497E-03  5743   0.715E-02    0.268E-02
RMM:   3    -0.134284177446E+03    0.27217E-04   -0.54085E-05  2760   0.210E-02    0.207E-02
RMM:   4    -0.134284175412E+03    0.20336E-05   -0.16541E-05  2300   0.207E-02
 475 F= -.13428418E+03 E0= -.13428297E+03  d E =0.259468E-03
quench:  g(F)=  0.000E+00 g(S)=  0.000E+00 dE (1.order)= 0.000E+00
 bond charge predicted
       N       E                     dE             d eps       ncg     rms          rms(c)
DAV:   1    -0.134283812811E+03    0.36463E-03   -0.23667E-02  4131   0.312E-01    0.378E-02
RMM:   2    -0.134283947287E+03   -0.13448E-03   -0.12190E-03  6261   0.747E-02    0.285E-02
RMM:   3    -0.134283930340E+03    0.16946E-04   -0.63780E-05  3129   0.241E-02    0.362E-02
RMM:   4    -0.134283905191E+03    0.25150E-04   -0.20702E-05  2267   0.242E-02    0.137E-02
RMM:   5    -0.134283906569E+03   -0.13784E-05   -0.10022E-05  2332   0.137E-02
 476 F= -.13428391E+03 E0= -.13428270E+03  d E =0.268843E-03
quench:  g(F)=  0.000E+00 g(S)=  0.000E+00 dE (1.order)= 0.000E+00
 bond charge predicted
       N       E                     dE             d eps       ncg     rms          rms(c)
DAV:   1    -0.134283512127E+03    0.39306E-03   -0.27150E-02  4140   0.319E-01    0.388E-02
RMM:   2    -0.134283644850E+03   -0.13272E-03   -0.13676E-03  6097   0.760E-02    0.263E-02
RMM:   3    -0.134283618766E+03    0.26084E-04   -0.47067E-05  2794   0.168E-02    0.208E-02
RMM:   4    -0.134283614828E+03    0.39380E-05   -0.12817E-05  2303   0.172E-02
 477 F= -.13428361E+03 E0= -.13428241E+03  d E =0.291742E-03
quench:  g(F)=  0.000E+00 g(S)=  0.000E+00 dE (1.order)= 0.000E+00
 bond charge predicted
       N       E                     dE             d eps       ncg     rms          rms(c)
DAV:   1    -0.134283146958E+03    0.47181E-03   -0.33328E-02  4176   0.367E-01    0.435E-02
RMM:   2    -0.134283315214E+03   -0.16826E-03   -0.17002E-03  6272   0.886E-02    0.264E-02
RMM:   3    -0.134283301826E+03    0.13388E-04   -0.63091E-05  3009   0.220E-02    0.343E-02
RMM:   4    -0.134283280401E+03    0.21425E-04   -0.22885E-05  2351   0.242E-02    0.163E-02
RMM:   5    -0.134283280225E+03    0.17574E-06   -0.13381E-05  2270   0.169E-02
 478 F= -.13428328E+03 E0= -.13428207E+03  d E =0.334602E-03
quench:  g(F)=  0.000E+00 g(S)=  0.000E+00 dE (1.order)= 0.000E+00
 bond charge predicted
       N       E                     dE             d eps       ncg     rms          rms(c)
DAV:   1    -0.134282775020E+03    0.50538E-03   -0.37119E-02  4032   0.370E-01    0.454E-02
RMM:   2    -0.134282956762E+03   -0.18174E-03   -0.19013E-03  6113   0.904E-02    0.314E-02
RMM:   3    -0.134282913251E+03    0.43510E-04   -0.65874E-05  2990   0.210E-02    0.205E-02
RMM:   4    -0.134282910810E+03    0.24414E-05   -0.17175E-05  2305   0.204E-02
 479 F= -.13428291E+03 E0= -.13428170E+03  d E =0.369416E-03
quench:  g(F)=  0.000E+00 g(S)=  0.000E+00 dE (1.order)= 0.000E+00
 bond charge predicted
       N       E                     dE             d eps       ncg     rms          rms(c)
DAV:   1    -0.134282364484E+03    0.54877E-03   -0.42651E-02  4122   0.398E-01    0.479E-02
RMM:   2    -0.134282560697E+03   -0.19621E-03   -0.20094E-03  6422   0.960E-02    0.264E-02
RMM:   3    -0.134282528126E+03    0.32570E-04   -0.58841E-05  2959   0.213E-02    0.205E-02
RMM:   4    -0.134282531587E+03   -0.34607E-05   -0.24672E-05  2397   0.241E-02
 480 F= -.13428253E+03 E0= -.13428132E+03  d E =0.379223E-03
quench:  g(F)=  0.000E+00 g(S)=  0.000E+00 dE (1.order)= 0.000E+00
 bond charge predicted
       N       E                     dE             d eps       ncg     rms          rms(c)
DAV:   1    -0.134281981496E+03    0.54663E-03   -0.40019E-02  4293   0.413E-01    0.507E-02
RMM:   2    -0.134282216286E+03   -0.23479E-03   -0.23291E-03  5949   0.994E-02    0.413E-02
RMM:   3    -0.134282169669E+03    0.46617E-04   -0.11772E-04  3870   0.309E-02    0.427E-02
RMM:   4    -0.134282136776E+03    0.32894E-04   -0.23825E-05  2356   0.238E-02    0.191E-02
RMM:   5    -0.134282136248E+03    0.52769E-06   -0.10325E-05  2224   0.153E-02
 481 F= -.13428214E+03 E0= -.13428092E+03  d E =0.395339E-03
quench:  g(F)=  0.000E+00 g(S)=  0.000E+00 dE (1.order)= 0.000E+00
 bond charge predicted
       N       E                     dE             d eps       ncg     rms          rms(c)
DAV:   1    -0.134281686018E+03    0.45076E-03   -0.35540E-02  4140   0.366E-01    0.438E-02
RMM:   2    -0.134281866130E+03   -0.18011E-03   -0.18646E-03  6307   0.935E-02    0.253E-02
RMM:   3    -0.134281834703E+03    0.31427E-04   -0.73640E-05  3053   0.230E-02    0.197E-02
RMM:   4    -0.134281833631E+03    0.10718E-05   -0.24130E-05  2393   0.239E-02
 482 F= -.13428183E+03 E0= -.13428062E+03  d E =0.302617E-03
quench:  g(F)=  0.000E+00 g(S)=  0.000E+00 dE (1.order)= 0.000E+00
 bond charge predicted
       N       E                     dE             d eps       ncg     rms          rms(c)
DAV:   1    -0.134281495617E+03    0.33909E-03   -0.22338E-02  4140   0.299E-01    0.410E-02
RMM:   2    -0.134281638053E+03   -0.14244E-03   -0.14376E-03  5700   0.777E-02    0.407E-02
RMM:   3    -0.134281601606E+03    0.36447E-04   -0.70507E-05  3235   0.259E-02    0.318E-02
RMM:   4    -0.134281583539E+03    0.18067E-04   -0.17620E-05  2338   0.208E-02    0.158E-02
RMM:   5    -0.134281582518E+03    0.10208E-05   -0.91203E-06  2296   0.133E-02
 483 F= -.13428158E+03 E0= -.13428037E+03  d E =0.251113E-03
quench:  g(F)=  0.000E+00 g(S)=  0.000E+00 dE (1.order)= 0.000E+00
 bond charge predicted
       N       E                     dE             d eps       ncg     rms          rms(c)
DAV:   1    -0.134281303084E+03    0.28045E-03   -0.18009E-02  4158   0.263E-01    0.319E-02
RMM:   2    -0.134281396791E+03   -0.93707E-04   -0.94443E-04  6071   0.668E-02    0.207E-02
RMM:   3    -0.134281384637E+03    0.12154E-04   -0.38775E-05  2657   0.187E-02    0.202E-02
RMM:   4    -0.134281379965E+03    0.46722E-05   -0.12745E-05  2274   0.177E-02
 484 F= -.13428138E+03 E0= -.13428016E+03  d E =0.202553E-03
quench:  g(F)=  0.000E+00 g(S)=  0.000E+00 dE (1.order)= 0.000E+00
 bond charge predicted
       N       E                     dE             d eps       ncg     rms          rms(c)
DAV:   1    -0.134281068617E+03    0.31602E-03   -0.18005E-02  4158   0.274E-01    0.335E-02
RMM:   2    -0.134281166133E+03   -0.97515E-04   -0.99266E-04  5953   0.660E-02    0.242E-02
RMM:   3    -0.134281148709E+03    0.17424E-04   -0.36227E-05  2643   0.197E-02    0.257E-02
RMM:   4    -0.134281139591E+03    0.91182E-05   -0.15376E-05  2249   0.209E-02
 485 F= -.13428114E+03 E0= -.13427992E+03  d E =0.240374E-03
quench:  g(F)=  0.000E+00 g(S)=  0.000E+00 dE (1.order)= 0.000E+00
 bond charge predicted
       N       E                     dE             d eps       ncg     rms          rms(c)
DAV:   1    -0.134280772598E+03    0.37611E-03   -0.23220E-02  4131   0.298E-01    0.364E-02
RMM:   2    -0.134280883673E+03   -0.11107E-03   -0.11272E-03  6095   0.729E-02    0.224E-02
RMM:   3    -0.134280863909E+03    0.19764E-04   -0.38453E-05  2675   0.172E-02    0.199E-02
RMM:   4    -0.134280861336E+03    0.25732E-05   -0.11072E-05  2302   0.147E-02
 486 F= -.13428086E+03 E0= -.13427964E+03  d E =0.278255E-03
quench:  g(F)=  0.000E+00 g(S)=  0.000E+00 dE (1.order)= 0.000E+00
 bond charge predicted
       N       E                     dE             d eps       ncg     rms          rms(c)
DAV:   1    -0.134280425203E+03    0.43871E-03   -0.29077E-02  4203   0.351E-01    0.417E-02
RMM:   2    -0.134280588231E+03   -0.16303E-03   -0.15472E-03  6180   0.826E-02    0.350E-02
RMM:   3    -0.134280563863E+03    0.24368E-04   -0.76464E-05  3483   0.278E-02    0.374E-02
RMM:   4    -0.134280538322E+03    0.25542E-04   -0.20282E-05  2303   0.235E-02    0.152E-02
RMM:   5    -0.134280537730E+03    0.59226E-06   -0.73171E-06  2276   0.119E-02
 487 F= -.13428054E+03 E0= -.13427931E+03  d E =0.323607E-03
quench:  g(F)=  0.000E+00 g(S)=  0.000E+00 dE (1.order)= 0.000E+00
 bond charge predicted
       N       E                     dE             d eps       ncg     rms          rms(c)
DAV:   1    -0.134280049361E+03    0.48896E-03   -0.37245E-02  4041   0.374E-01    0.446E-02
RMM:   2    -0.134280224683E+03   -0.17532E-03   -0.18008E-03  6310   0.917E-02    0.255E-02
RMM:   3    -0.134280195593E+03    0.29090E-04   -0.62304E-05  2971   0.223E-02    0.227E-02
RMM:   4    -0.134280192461E+03    0.31315E-05   -0.15998E-05  2347   0.183E-02
 488 F= -.13428019E+03 E0= -.13427897E+03  d E =0.345268E-03
quench:  g(F)=  0.000E+00 g(S)=  0.000E+00 dE (1.order)= 0.000E+00
 bond charge predicted
       N       E                     dE             d eps       ncg     rms          rms(c)
DAV:   1    -0.134279621043E+03    0.57455E-03   -0.43416E-02  4041   0.420E-01    0.509E-02
RMM:   2    -0.134279854692E+03   -0.23365E-03   -0.23256E-03  6222   0.100E-01    0.384E-02
RMM:   3    -0.134279823031E+03    0.31661E-04   -0.10322E-04  3721   0.290E-02    0.428E-02
RMM:   4    -0.134279788881E+03    0.34150E-04   -0.25914E-05  2385   0.252E-02    0.193E-02
RMM:   5    -0.134279787704E+03    0.11771E-05   -0.10655E-05  2300   0.151E-02
 489 F= -.13427979E+03 E0= -.13427856E+03  d E =0.404758E-03
quench:  g(F)=  0.000E+00 g(S)=  0.000E+00 dE (1.order)= 0.000E+00
 bond charge predicted
       N       E                     dE             d eps       ncg     rms          rms(c)
DAV:   1    -0.134279174976E+03    0.61391E-03   -0.50925E-02  4131   0.438E-01    0.521E-02
RMM:   2    -0.134279418035E+03   -0.24306E-03   -0.24924E-03  6416   0.107E-01    0.297E-02
RMM:   3    -0.134279382417E+03    0.35618E-04   -0.96030E-05  3392   0.272E-02    0.277E-02
RMM:   4    -0.134279375675E+03    0.67418E-05   -0.21195E-05  2415   0.196E-02
 490 F= -.13427938E+03 E0= -.13427814E+03  d E =0.412028E-03
quench:  g(F)=  0.000E+00 g(S)=  0.000E+00 dE (1.order)= 0.000E+00
 bond charge predicted
       N       E                     dE             d eps       ncg     rms          rms(c)
DAV:   1    -0.134278741903E+03    0.64051E-03   -0.49258E-02  4176   0.449E-01    0.561E-02
RMM:   2    -0.134279024157E+03   -0.28225E-03   -0.28050E-03  6157   0.107E-01    0.470E-02
RMM:   3    -0.134278974468E+03    0.49689E-04   -0.13759E-04  3980   0.351E-02    0.471E-02
RMM:   4    -0.134278935456E+03    0.39013E-04   -0.28770E-05  2462   0.254E-02    0.215E-02
RMM:   5    -0.134278933857E+03    0.15986E-05   -0.11260E-05  2313   0.150E-02
 491 F= -.13427893E+03 E0= -.13427770E+03  d E =0.441818E-03
quench:  g(F)=  0.000E+00 g(S)=  0.000E+00 dE (1.order)= 0.000E+00
 bond charge predicted
       N       E                     dE             d eps       ncg     rms          rms(c)
DAV:   1    -0.134278398515E+03    0.53694E-03   -0.43382E-02  4158   0.409E-01    0.490E-02
RMM:   2    -0.134278622455E+03   -0.22394E-03   -0.23113E-03  6391   0.103E-01    0.274E-02
RMM:   3    -0.134278584172E+03    0.38283E-04   -0.87308E-05  3244   0.217E-02    0.209E-02
RMM:   4    -0.134278587719E+03   -0.35468E-05   -0.25118E-05  2444   0.229E-02
 492 F= -.13427859E+03 E0= -.13427735E+03  d E =0.346138E-03
quench:  g(F)=  0.000E+00 g(S)=  0.000E+00 dE (1.order)= 0.000E+00
 bond charge predicted
       N       E                     dE             d eps       ncg     rms          rms(c)
DAV:   1    -0.134278196745E+03    0.38743E-03   -0.25986E-02  4464   0.338E-01    0.442E-02
RMM:   2    -0.134278357995E+03   -0.16125E-03   -0.16689E-03  5785   0.807E-02    0.366E-02
RMM:   3    -0.134278320049E+03    0.37945E-04   -0.79225E-05  3268   0.237E-02    0.331E-02
RMM:   4    -0.134278300473E+03    0.19577E-04   -0.20739E-05  2309   0.224E-02    0.173E-02
RMM:   5    -0.134278300101E+03    0.37182E-06   -0.97826E-06  2253   0.137E-02
 493 F= -.13427830E+03 E0= -.13427706E+03  d E =0.287618E-03
quench:  g(F)=  0.000E+00 g(S)=  0.000E+00 dE (1.order)= 0.000E+00
 bond charge predicted
       N       E                     dE             d eps       ncg     rms          rms(c)
DAV:   1    -0.134277981160E+03    0.31931E-03   -0.21157E-02  4167   0.288E-01    0.341E-02
RMM:   2    -0.134278085458E+03   -0.10430E-03   -0.10711E-03  6204   0.700E-02    0.188E-02
RMM:   3    -0.134278068210E+03    0.17248E-04   -0.36673E-05  2581   0.182E-02    0.157E-02
RMM:   4    -0.134278067874E+03    0.33616E-06   -0.17695E-05  2272   0.216E-02
