 vasp.5.4.4.18Apr17-6-g9f103f2a35 (build Feb 06 2024 13:54:16) complex          
  
 POSCAR found type information on POSCAR  Pd N  O 
 03/POSCAR found :  3 types and      40 ions
 scaLAPACK will be used

 ----------------------------------------------------------------------------- 
|                                                                             |
|  ADVICE TO THIS USER RUNNING 'VASP/VAMP'   (HEAR YOUR MASTER'S VOICE ...):  |
|                                                                             |
|      You enforced a specific xc-type in the INCAR file,                     |
|      a different type was found on the POTCAR file                          |
|          I HOPE YOU KNOW, WHAT YOU ARE  DOING                               |
|                                                                             |
 ----------------------------------------------------------------------------- 

 LDA part: xc-table for Pade appr. of Perdew
 POSCAR found type information on POSCAR  Pd N  O 
 00/POSCAR found :  3 types and      40 ions
 POSCAR found type information on POSCAR  Pd N  O 
 06/POSCAR found :  3 types and      40 ions
 Jacobian:    21.7506536142030     
 POSCAR, INCAR and KPOINTS ok, starting setup
 FFT: planning ...
 WAVECAR not read
 entering main loop
       N       E                     dE             d eps       ncg     rms          rms(c)
  Solvation turned off during non-self-consistent phase (first NELMDL steps)
DAV:   1     0.264462709520E+04    0.26446E+04   -0.17599E+05  3696   0.147E+03
DAV:   2     0.413666513097E+01   -0.26405E+04   -0.24710E+04  4101   0.314E+02
DAV:   3    -0.179693202646E+03   -0.18383E+03   -0.16546E+03  4485   0.730E+01
DAV:   4    -0.188497398949E+03   -0.88042E+01   -0.79786E+01  4377   0.148E+01
DAV:   5    -0.188742252564E+03   -0.24485E+00   -0.23953E+00  4506   0.264E+00    0.369E+01
 Begin Solvation calculations
  rms_SCF =    2.49258363269073      tol =   0.249258363269073     
 Begin minimization
 Creating dielectric and ionic cavities
  area:      196.180301404028     
  volume:    849.765594723192     
  Acav:     0.102994658237115     
  Solving linear dielectric/ionic screening model
        iter                  A_solv                     rms
   LPB:       -0.585754062217804E+03   0.287726327925481E+03
   LPB:    0  -0.342877675044098E+01   0.165057215548516E+02  -0.565355E+01   0.000000E+00   0.364379E+02  -0.206004E+03
   LPB:    1  -0.984466960390364E+00   0.565818158683213E+01   0.127970E-01   0.000000E+00   0.920299E+02   0.101255E-13
   LPB:    2  -0.529662382558854E+00   0.135306597646875E+01   0.146339E-01   0.162712E+00   0.151110E+03   0.175791E-13
   LPB:    3  -0.336254965801231E+00   0.791850670769266E+00   0.261983E-01   0.237539E+00   0.265127E+03   0.184223E-13
   LPB:    4  -0.263625406093752E+00   0.683452968872666E+00   0.299297E-01   0.328708E+00   0.857604E+02   0.199049E-13
   LPB:    5  -0.229625725426899E+00   0.731783962759224E+00   0.253856E-01   0.551920E+00   0.445324E+03   0.189993E-13
   LPB:    6  -0.208146323281426E+00   0.278608071965836E+00   0.270508E-01   0.592864E+00   0.658936E+02   0.168818E-13
   LPB:    7  -0.194746832079773E+00   0.158618947571482E+00   0.322441E-01   0.523354E+00   0.208908E+03   0.234804E-13
  Finished solving LPB equations
  A_corr:   -9.175217384265776E-002
 End minimization
 Ecorr=   2002.22830638345     
 A_corr= -9.175217384265776E-002
 Ecorr_band=  -2002.32005855730     
 End Solvation calculations
RMM:   6    -0.184726740061E+03    0.40155E+01   -0.37977E+01  3700   0.130E+01    0.279E+01
 Begin Solvation calculations
  rms_SCF =    2.49258363269073      tol =   0.249258363269073     
 Begin minimization
 Creating dielectric and ionic cavities
  area:      193.959930827719     
  volume:    868.421184385712     
  Acav:     0.101828963684552     
  Solving linear dielectric/ionic screening model
        iter                  A_solv                     rms
   LPB:       -0.660081286126102E+01   0.394315956901460E+02
   LPB:    0  -0.472146624816665E+01   0.330735677956557E+02   0.325100E+00   0.000000E+00   0.355633E+02   0.115616E+02
   LPB:    1  -0.624719496198868E+00   0.293310623411968E+01   0.935193E-02   0.000000E+00   0.833274E+02  -0.856377E-16
   LPB:    2  -0.300346346071665E+00   0.114844705562878E+01   0.158751E-01   0.466435E-01   0.201626E+03  -0.700651E-14
   LPB:    3  -0.226560658775963E+00   0.828732204278507E+00   0.236913E-01   0.152424E+00   0.132662E+03  -0.688864E-14
   LPB:    4  -0.197077945644601E+00   0.507884499517841E+00   0.231078E-01   0.409661E+00   0.274202E+03  -0.648664E-14
   LPB:    5  -0.180170481252762E+00   0.180675166481112E+00   0.279648E-01   0.473869E+00   0.203166E+03  -0.102477E-14
  Finished solving LPB equations
  A_corr:   -7.834151756821021E-002
 End minimization
 Ecorr=   1913.82331954677     
 A_corr= -7.834151756821021E-002
 Ecorr_band=  -1913.90166106434     
 End Solvation calculations
RMM:   7    -0.192854123473E+03   -0.81274E+01   -0.31493E+01  3720   0.722E+00    0.291E+01
 Begin Solvation calculations
  rms_SCF =    2.49258363269073      tol =   0.249258363269073     
 Begin minimization
 Creating dielectric and ionic cavities
  area:      202.412505767942     
  volume:    865.488795029669     
  Acav:     0.106266565528170     
  Solving linear dielectric/ionic screening model
        iter                  A_solv                     rms
   LPB:       -0.123902051240506E+02   0.570234360753178E+02
   LPB:    0  -0.123845950736418E+02   0.570257066178525E+02   0.177280E-01   0.000000E+00   0.357008E+02   0.632903E+00
   LPB:    1  -0.125933847320916E+01   0.534676979485836E+01   0.910715E-02   0.000000E+00   0.824927E+02   0.151031E-16
   LPB:    2  -0.422758551923202E+00   0.105532386203693E+01   0.163315E-01   0.419327E-01   0.146393E+03  -0.181719E-14
   LPB:    3  -0.293927598998097E+00   0.449047180186727E+00   0.227168E-01   0.110712E+00   0.226212E+03  -0.250925E-14
   LPB:    4  -0.260779787820137E+00   0.251767022241063E+00   0.270015E-01   0.216468E+00   0.298090E+03  -0.756714E-14
   LPB:    5  -0.248582414549169E+00   0.320740898433196E+00   0.272382E-01   0.364772E+00   0.408149E+03  -0.115270E-13
   LPB:    6  -0.242385237067548E+00   0.231644035497398E+00   0.272687E-01   0.507506E+00   0.104533E+03  -0.137778E-13
  Finished solving LPB equations
  A_corr:   -0.136118671539379     
 End minimization
 Ecorr=   1898.48187140236     
 A_corr= -0.136118671539379     
 Ecorr_band=  -1898.61799007390     
 End Solvation calculations
RMM:   8    -0.200994213892E+03   -0.81401E+01   -0.14066E+01  3702   0.660E+00    0.381E+01
 Begin Solvation calculations
  rms_SCF =    2.49258363269073      tol =   0.249258363269073     
 Begin minimization
 Creating dielectric and ionic cavities
  area:      200.811449150552     
  volume:    859.607905294780     
  Acav:     0.105426010804040     
  Solving linear dielectric/ionic screening model
        iter                  A_solv                     rms
   LPB:       -0.516162021708391E+01   0.359874952140381E+02
   LPB:    0  -0.516036989481879E+01   0.359469368440795E+02  -0.833713E-02   0.000000E+00   0.359765E+02  -0.299941E+00
   LPB:    1  -0.723489572274353E+00   0.377383049184504E+01   0.911753E-02   0.000000E+00   0.819835E+02  -0.196858E-16
   LPB:    2  -0.296335597464334E+00   0.639349078761397E+00   0.177319E-01   0.495026E-01   0.120448E+03   0.635604E-14
   LPB:    3  -0.229797431560676E+00   0.322423596881620E+00   0.232638E-01   0.118730E+00   0.289521E+03   0.390954E-14
   LPB:    4  -0.209577382451161E+00   0.178671220216972E+00   0.269018E-01   0.262791E+00   0.217061E+03   0.344958E-14
  Finished solving LPB equations
  A_corr:   -0.104151371647121     
 End minimization
 Ecorr=   1855.16026676973     
 A_corr= -0.104151371647121     
 Ecorr_band=  -1855.26441814137     
 End Solvation calculations
RMM:   9    -0.182826699495E+03    0.18168E+02   -0.12865E+01  3696   0.662E+00    0.168E+01
 Begin Solvation calculations
  rms_SCF =    2.49258363269073      tol =   0.249258363269073     
 Begin minimization
 Creating dielectric and ionic cavities
  area:      190.501548450384     
  volume:    854.227591403778     
  Acav:     0.100013312936452     
  Solving linear dielectric/ionic screening model
        iter                  A_solv                     rms
   LPB:       -0.708294181491732E+00   0.106211422058067E+02
   LPB:    0  -0.707122905002382E+00   0.105574509935030E+02  -0.804115E-02   0.000000E+00   0.362287E+02  -0.291321E+00
   LPB:    1  -0.287531499829512E+00   0.104269160583978E+01   0.944372E-02   0.000000E+00   0.831931E+02  -0.287092E-16
   LPB:    2  -0.244780193272331E+00   0.252153181383906E+00   0.160530E-01   0.599391E-01   0.204856E+03  -0.106235E-13
   LPB:    3  -0.234125497190722E+00   0.269456251690205E+00   0.259080E-01   0.154424E+00   0.416587E+03  -0.101376E-13
   LPB:    4  -0.229343437366666E+00   0.203441342356519E+00   0.309771E-01   0.375375E+00   0.928476E+02  -0.981724E-14
  Finished solving LPB equations
  A_corr:   -0.129330124430215     
 End minimization
 Ecorr=   1837.88689297459     
 A_corr= -0.129330124430215     
 Ecorr_band=  -1838.01622309902     
 End Solvation calculations
RMM:  10    -0.180685320874E+03    0.21414E+01   -0.62164E+00  3698   0.471E+00    0.136E+01
 Begin Solvation calculations
  rms_SCF =    2.49258363269073      tol =   0.249258363269073     
 Begin minimization
 Creating dielectric and ionic cavities
  area:      181.969341453824     
  volume:    850.656724565485     
  Acav:     9.553390426325754E-002
  Solving linear dielectric/ionic screening model
        iter                  A_solv                     rms
   LPB:       -0.266821914446135E+00   0.172322759643307E+01
   LPB:    0  -0.260943321094057E+00   0.166026327177275E+01   0.179731E-01   0.000000E+00   0.363962E+02   0.654153E+00
   LPB:    1  -0.241608376157749E+00   0.512424051203813E+00   0.121755E-01   0.000000E+00   0.913642E+02  -0.530282E-16
   LPB:    2  -0.233113409197047E+00   0.156191439986151E+00   0.216393E-01   0.247207E+00   0.353849E+03   0.186587E-15
   LPB:    3  -0.229250018747008E+00   0.181723453870809E+00   0.276954E-01   0.355338E+00   0.594994E+03   0.308667E-15
   LPB:    4  -0.225801207950590E+00   0.137771498913355E+00   0.417401E-01   0.592318E+00   0.801499E+02   0.746907E-15
  Finished solving LPB equations
  A_corr:   -0.130267303687332     
 End minimization
 Ecorr=   1822.25256973133     
 A_corr= -0.130267303687332     
 Ecorr_band=  -1822.38283703502     
 End Solvation calculations
RMM:  11    -0.179136496578E+03    0.15488E+01   -0.27056E+00  3698   0.307E+00    0.745E+00
 Begin Solvation calculations
  rms_SCF =    1.98887424601214      tol =   0.198887424601214     
 Begin minimization
 Creating dielectric and ionic cavities
  area:      175.758967834430     
  volume:    845.316853472341     
  Acav:     9.227345811307566E-002
  Solving linear dielectric/ionic screening model
        iter                  A_solv                     rms
   LPB:       -0.311972242612294E+00   0.332530584851384E+01
   LPB:    0  -0.311966916666689E+00   0.331705723069084E+01  -0.539135E-03   0.000000E+00   0.366465E+02  -0.197574E-01
   LPB:    1  -0.256271418568630E+00   0.506299190100925E+00   0.100601E-01   0.000000E+00   0.941118E+02  -0.186834E-17
   LPB:    2  -0.248547349620580E+00   0.172849803147644E+00   0.163688E-01   0.852334E-01   0.277549E+03   0.130647E-14
   LPB:    3  -0.245007526566272E+00   0.197514271698777E+00   0.298901E-01   0.250972E+00   0.371406E+03   0.154786E-14
   LPB:    4  -0.242935694164700E+00   0.160928554873307E+00   0.287047E-01   0.609464E+00   0.106676E+03   0.893581E-15
  Finished solving LPB equations
  A_corr:   -0.150662236051625     
 End minimization
 Ecorr=   1810.95939633321     
 A_corr= -0.150662236051625     
 Ecorr_band=  -1811.11005856927     
 End Solvation calculations
RMM:  12    -0.179036906604E+03    0.99590E-01   -0.12668E+00  3702   0.211E+00    0.785E+00
 Begin Solvation calculations
  rms_SCF =    1.98887424601214      tol =   0.198887424601214     
 Begin minimization
 Creating dielectric and ionic cavities
  area:      174.942756557969     
  volume:    841.359089829240     
  Acav:     9.184494719293379E-002
  Solving linear dielectric/ionic screening model
        iter                  A_solv                     rms
   LPB:       -0.266302026768224E+00   0.118401169423973E+01
   LPB:    0  -0.266264693213885E+00   0.121650625941050E+01   0.142381E-02   0.000000E+00   0.368320E+02   0.524418E-01
   LPB:    1  -0.252443104083797E+00   0.359913508510757E+00   0.117203E-01   0.000000E+00   0.118240E+03   0.206444E-17
   LPB:    2  -0.250621994280032E+00   0.107148465313468E+00   0.146467E-01   0.105433E+00   0.207487E+03   0.645746E-15
   LPB:    3  -0.248816524556765E+00   0.171925650201897E+00   0.446777E-01   0.325015E+00   0.314102E+03   0.726776E-15
   LPB:    4  -0.247108533884621E+00   0.173738294284242E+00   0.307069E-01   0.137642E+01   0.720361E+02   0.767870E-15
  Finished solving LPB equations
  A_corr:   -0.155263586691687     
 End minimization
 Ecorr=   1801.38418415043     
 A_corr= -0.155263586691687     
 Ecorr_band=  -1801.53944773713     
 End Solvation calculations
RMM:  13    -0.178788261940E+03    0.24864E+00   -0.50082E-01  3707   0.138E+00    0.544E+00
 Begin Solvation calculations
  rms_SCF =    1.98887424601214      tol =   0.198887424601214     
 Begin minimization
 Creating dielectric and ionic cavities
  area:      179.532628506011     
  volume:    838.646248043863     
  Acav:     9.425462996565553E-002
  Solving linear dielectric/ionic screening model
        iter                  A_solv                     rms
   LPB:       -0.263455130725415E+00   0.147196560059366E+01
   LPB:    0  -0.260166643392044E+00   0.139039874973409E+01   0.133399E-01   0.000000E+00   0.369592E+02   0.493031E+00
   LPB:    1  -0.250154912962152E+00   0.280403959623498E+00   0.109581E-01   0.000000E+00   0.857212E+02   0.309072E-16
   LPB:    2  -0.247501007698446E+00   0.755668664213840E-01   0.180186E-01   0.161210E+00   0.306345E+03  -0.947234E-16
   LPB:    3  -0.246415833427164E+00   0.752624108736713E-01   0.315067E-01   0.233847E+00   0.465347E+03   0.543810E-16
   LPB:    4  -0.245665768915119E+00   0.842410296245756E-01   0.366112E-01   0.594822E+00   0.157843E+03   0.426181E-16
  Finished solving LPB equations
  A_corr:   -0.151411138949464     
 End minimization
 Ecorr=   1794.07977239198     
 A_corr= -0.151411138949464     
 Ecorr_band=  -1794.23118353093     
 End Solvation calculations
RMM:  14    -0.178580960243E+03    0.20730E+00   -0.22176E-01  3704   0.908E-01    0.296E+00
 Begin Solvation calculations
  rms_SCF =   0.849644660117489      tol =   8.496446601174885E-002
 Begin minimization
 Creating dielectric and ionic cavities
  area:      175.199586893039     
  volume:    835.199053570243     
  Acav:     9.197978311884528E-002
  Solving linear dielectric/ionic screening model
        iter                  A_solv                     rms
   LPB:       -0.266372448434544E+00   0.710231422277625E+00
   LPB:    0  -0.261694263613890E+00   0.531948853290825E+00   0.158761E-01   0.000000E+00   0.371208E+02   0.589335E+00
   LPB:    1  -0.251535136223726E+00   0.330639555324525E+00   0.144446E-01   0.000000E+00   0.321120E+03   0.342441E-16
   LPB:    2  -0.250283954296035E+00   0.138614151190292E+00   0.155247E-01   0.114590E+00   0.102890E+03  -0.673686E-15
   LPB:    3  -0.249613428112545E+00   0.763805984560251E-01   0.241146E-01   0.345016E+00   0.355993E+03  -0.817156E-15
   LPB:    4  -0.249044912272207E+00   0.975769127292114E-01   0.326196E-01   0.626797E+00   0.176287E+03  -0.249261E-15
   LPB:    5  -0.248483563661653E+00   0.106616034068515E+00   0.307323E-01   0.104803E+01   0.309722E+03   0.343940E-15
   LPB:    6  -0.247937499400003E+00   0.493482740142537E-01   0.344884E-01   0.866828E+00   0.693978E+02   0.705854E-15
  Finished solving LPB equations
  A_corr:   -0.155957716281158     
 End minimization
 Ecorr=   1783.80597842476     
 A_corr= -0.155957716281158     
 Ecorr_band=  -1783.96193614104     
 End Solvation calculations
RMM:  15    -0.178581053221E+03   -0.92978E-04   -0.15054E-01  3702   0.748E-01    0.250E+00
 Begin Solvation calculations
  rms_SCF =   0.849644660117489      tol =   8.496446601174885E-002
 Begin minimization
 Creating dielectric and ionic cavities
  area:      175.754653389260     
  volume:    830.566814076055     
  Acav:     9.227119302936145E-002
  Solving linear dielectric/ionic screening model
        iter                  A_solv                     rms
   LPB:       -0.281398866561742E+00   0.148199086755935E+01
   LPB:    0  -0.281393416938870E+00   0.149568929369858E+01   0.540285E-03   0.000000E+00   0.373380E+02   0.201732E-01
   LPB:    1  -0.258918447619880E+00   0.410620364513449E+00   0.127001E-01   0.000000E+00   0.108078E+03   0.684904E-18
   LPB:    2  -0.255076233148519E+00   0.174544939074283E+00   0.152428E-01   0.142437E+00   0.260996E+03  -0.359730E-14
   LPB:    3  -0.254274578322248E+00   0.126276376272528E+00   0.181969E-01   0.174773E+00   0.155318E+03  -0.554314E-14
   LPB:    4  -0.253936675678716E+00   0.597388041326530E-01   0.208730E-01   0.367465E+00   0.200227E+03  -0.593484E-14
  Finished solving LPB equations
  A_corr:   -0.161665482649355     
 End minimization
 Ecorr=   1779.05024452140     
 A_corr= -0.161665482649355     
 Ecorr_band=  -1779.21191000404     
 End Solvation calculations
RMM:  16    -0.178538064806E+03    0.42988E-01   -0.71605E-02  3703   0.492E-01    0.179E+00
 Begin Solvation calculations
  rms_SCF =   0.849644660117489      tol =   8.496446601174885E-002
 Begin minimization
 Creating dielectric and ionic cavities
  area:      176.224773957288     
  volume:    827.525727640127     
  Acav:     9.251800632757599E-002
  Solving linear dielectric/ionic screening model
        iter                  A_solv                     rms
   LPB:       -0.275903282574122E+00   0.780135483249922E+00
   LPB:    0  -0.275061033515710E+00   0.873516318929702E+00   0.670397E-02   0.000000E+00   0.374806E+02   0.251269E+00
   LPB:    1  -0.263712280273049E+00   0.394776958617025E+00   0.118831E-01   0.000000E+00   0.193765E+03   0.455083E-19
   LPB:    2  -0.261892372064504E+00   0.123579117887821E+00   0.154757E-01   0.123135E+00   0.135159E+03  -0.365115E-14
   LPB:    3  -0.261091330086830E+00   0.950970237461700E-01   0.241655E-01   0.281877E+00   0.273209E+03  -0.425106E-14
   LPB:    4  -0.260664278443666E+00   0.767241701912953E-01   0.245370E-01   0.525047E+00   0.202005E+03  -0.483482E-14
  Finished solving LPB equations
  A_corr:   -0.168146272116090     
 End minimization
 Ecorr=   1774.67958515787     
 A_corr= -0.168146272116090     
 Ecorr_band=  -1774.84773142999     
 End Solvation calculations
RMM:  17    -0.178509120803E+03    0.28944E-01   -0.31273E-02  3706   0.337E-01    0.938E-01
 Begin Solvation calculations
  rms_SCF =   0.466757683319857      tol =   4.667576833198565E-002
 Begin minimization
 Creating dielectric and ionic cavities
  area:      176.543892214386     
  volume:    825.371133188298     
  Acav:     9.268554341255268E-002
  Solving linear dielectric/ionic screening model
        iter                  A_solv                     rms
   LPB:       -0.275669376509078E+00   0.537084302430983E+00
   LPB:    0  -0.275183170312501E+00   0.610136256795933E+00   0.508672E-02   0.000000E+00   0.375816E+02   0.191167E+00
   LPB:    1  -0.267577492744822E+00   0.333520917487935E+00   0.124383E-01   0.000000E+00   0.243598E+03  -0.738823E-17
   LPB:    2  -0.266507153659634E+00   0.981113571337363E-01   0.147497E-01   0.118676E+00   0.105740E+03  -0.278645E-15
   LPB:    3  -0.265988990301103E+00   0.774338531721679E-01   0.258798E-01   0.275909E+00   0.288176E+03  -0.406986E-15
   LPB:    4  -0.265599837049552E+00   0.828546404461412E-01   0.283772E-01   0.684928E+00   0.178807E+03  -0.493115E-15
   LPB:    5  -0.265257026968640E+00   0.629173629895320E-01   0.297418E-01   0.840498E+00   0.242496E+03  -0.892057E-15
   LPB:    6  -0.264988410179623E+00   0.259799619622386E-01   0.349572E-01   0.666668E+00   0.140460E+03  -0.142855E-14
  Finished solving LPB equations
  A_corr:   -0.172302866767070     
 End minimization
 Ecorr=   1770.84895209999     
 A_corr= -0.172302866767070     
 Ecorr_band=  -1771.02125496676     
 End Solvation calculations
RMM:  18    -0.178513341087E+03   -0.42203E-02   -0.16617E-02  3704   0.243E-01    0.121E+00
 Begin Solvation calculations
  rms_SCF =   0.466757683319857      tol =   4.667576833198565E-002
 Begin minimization
 Creating dielectric and ionic cavities
  area:      176.952966828219     
  volume:    822.992428238415     
  Acav:     9.290030758481486E-002
  Solving linear dielectric/ionic screening model
        iter                  A_solv                     rms
   LPB:       -0.286636286307303E+00   0.813060238516857E+00
   LPB:    0  -0.286412351026357E+00   0.888617515387136E+00   0.344703E-02   0.000000E+00   0.376931E+02   0.129929E+00
   LPB:    1  -0.272519570016477E+00   0.282050771047796E+00   0.137447E-01   0.000000E+00   0.166829E+03   0.137928E-17
   LPB:    2  -0.270795408948887E+00   0.921396417390683E-01   0.156755E-01   0.108818E+00   0.153481E+03  -0.658200E-15
   LPB:    3  -0.270428573445662E+00   0.611447306938222E-01   0.205755E-01   0.162093E+00   0.193313E+03  -0.184930E-15
   LPB:    4  -0.270282048057794E+00   0.721327359123609E-01   0.246271E-01   0.333718E+00   0.243754E+03  -0.690284E-16
   LPB:    5  -0.270167635348036E+00   0.499962852160458E-01   0.248246E-01   0.774625E+00   0.134978E+03   0.784383E-17
   LPB:    6  -0.270019056664322E+00   0.222606873202424E-01   0.359929E-01   0.895670E+00   0.146471E+03   0.218457E-16
  Finished solving LPB equations
  A_corr:   -0.177118749079507     
 End minimization
 Ecorr=   1767.07740272547     
 A_corr= -0.177118749079507     
 Ecorr_band=  -1767.25452147455     
 End Solvation calculations
RMM:  19    -0.178506553937E+03    0.67872E-02   -0.88655E-03  3701   0.175E-01    0.917E-01
 Begin Solvation calculations
  rms_SCF =   0.466757683319857      tol =   4.667576833198565E-002
 Begin minimization
 Creating dielectric and ionic cavities
  area:      177.146751398800     
  volume:    822.353494430033     
  Acav:     9.300204448437002E-002
  Solving linear dielectric/ionic screening model
        iter                  A_solv                     rms
   LPB:       -0.274293739852630E+00   0.557370594193301E+00
   LPB:    0  -0.273981740415103E+00   0.550231855986250E+00   0.406713E-02   0.000000E+00   0.377231E+02   0.153425E+00
   LPB:    1  -0.270999776444331E+00   0.137357326721375E+00   0.132870E-01   0.000000E+00   0.111244E+03   0.155456E-16
   LPB:    2  -0.270633199895831E+00   0.590622105099918E-01   0.131832E-01   0.123899E+00   0.270826E+03   0.201458E-16
   LPB:    3  -0.270547207532955E+00   0.262394264999826E-01   0.182646E-01   0.169319E+00   0.163814E+03  -0.574089E-16
   LPB:    4  -0.270493402368303E+00   0.349228033954248E-01   0.329825E-01   0.346490E+00   0.239067E+03  -0.163726E-15
  Finished solving LPB equations
  A_corr:   -0.177491357883933     
 End minimization
 Ecorr=   1765.31240021171     
 A_corr= -0.177491357883933     
 Ecorr_band=  -1765.48989156959     
 End Solvation calculations
RMM:  20    -0.178501013116E+03    0.55408E-02   -0.40305E-03  3706   0.120E-01    0.478E-01
 Begin Solvation calculations
  rms_SCF =   0.466757683319857      tol =   4.667576833198565E-002
 Begin minimization
 Creating dielectric and ionic cavities
  area:      177.398452292323     
  volume:    820.850497495771     
  Acav:     9.313418745346949E-002
  Solving linear dielectric/ionic screening model
        iter                  A_solv                     rms
   LPB:       -0.292319983630862E+00   0.994453674062740E+00
   LPB:    0  -0.292150753753725E+00   0.103319316811313E+01   0.299257E-02   0.000000E+00   0.377935E+02   0.113100E+00
   LPB:    1  -0.276879847851215E+00   0.260811223218671E+00   0.137945E-01   0.000000E+00   0.145338E+03   0.394258E-17
   LPB:    2  -0.275285052057823E+00   0.122862823122205E+00   0.146556E-01   0.982972E-01   0.186740E+03   0.179347E-15
   LPB:    3  -0.274873563245965E+00   0.845328804262802E-01   0.195891E-01   0.193038E+00   0.137107E+03   0.980026E-15
   LPB:    4  -0.274682107235802E+00   0.686730471525797E-01   0.218226E-01   0.417656E+00   0.268783E+03   0.124190E-14
   LPB:    5  -0.274554936956902E+00   0.405625553984522E-01   0.249296E-01   0.581446E+00   0.113576E+03   0.136731E-14
  Finished solving LPB equations
  A_corr:   -0.181420749503432     
 End minimization
 Ecorr=   1763.49564857282     
 A_corr= -0.181420749503432     
 Ecorr_band=  -1763.67706932232     
 End Solvation calculations
RMM:  21    -0.178500685396E+03    0.32772E-03   -0.19292E-03  3701   0.767E-02    0.416E-01
 Begin Solvation calculations
  rms_SCF =   0.466757683319857      tol =   4.667576833198565E-002
 Begin minimization
 Creating dielectric and ionic cavities
  area:      177.693574140441     
  volume:    819.654574977771     
  Acav:     9.328912642373174E-002
  Solving linear dielectric/ionic screening model
        iter                  A_solv                     rms
   LPB:       -0.294430121599051E+00   0.930765596855125E+00
   LPB:    0  -0.294232900991564E+00   0.974626076546957E+00   0.322820E-02   0.000000E+00   0.378496E+02   0.122186E+00
   LPB:    1  -0.280795096976545E+00   0.249883281115872E+00   0.137737E-01   0.000000E+00   0.143103E+03  -0.304448E-17
   LPB:    2  -0.279397128909359E+00   0.104964259713210E+00   0.146283E-01   0.979544E-01   0.173097E+03   0.186835E-14
   LPB:    3  -0.279049461158043E+00   0.802311833338941E-01   0.206134E-01   0.176487E+00   0.136763E+03   0.247576E-14
   LPB:    4  -0.278857307983588E+00   0.764777124136205E-01   0.236190E-01   0.482360E+00   0.250534E+03   0.279240E-14
   LPB:    5  -0.278707461291579E+00   0.461716635331607E-01   0.256559E-01   0.717919E+00   0.984549E+02   0.304539E-14
  Finished solving LPB equations
  A_corr:   -0.185418334867847     
 End minimization
 Ecorr=   1761.55660301624     
 A_corr= -0.185418334867847     
 Ecorr_band=  -1761.74202135111     
 End Solvation calculations
RMM:  22    -0.178500461225E+03    0.22417E-03   -0.14827E-03  3706   0.658E-02    0.378E-01
 Begin Solvation calculations
  rms_SCF =   0.466757683319857      tol =   4.667576833198565E-002
 Begin minimization
 Creating dielectric and ionic cavities
  area:      177.844961034889     
  volume:    819.149789696804     
  Acav:     9.336860454331669E-002
  Solving linear dielectric/ionic screening model
        iter                  A_solv                     rms
   LPB:       -0.287119059774210E+00   0.661441972418024E+00
   LPB:    0  -0.287076410920809E+00   0.679773946805275E+00   0.150073E-02   0.000000E+00   0.378732E+02   0.568375E-01
   LPB:    1  -0.281770896842004E+00   0.157891752248869E+00   0.136744E-01   0.000000E+00   0.119066E+03  -0.934729E-18
   LPB:    2  -0.281237655380940E+00   0.721203188068091E-01   0.136834E-01   0.100440E+00   0.210187E+03   0.892215E-16
   LPB:    3  -0.281099318626357E+00   0.521242360908707E-01   0.205560E-01   0.172691E+00   0.119487E+03   0.218269E-15
   LPB:    4  -0.280985145514113E+00   0.574285153814547E-01   0.291831E-01   0.581345E+00   0.212347E+03   0.902977E-16
   LPB:    5  -0.280868016103023E+00   0.415751672975970E-01   0.305828E-01   0.978938E+00   0.804545E+02  -0.628401E-17
  Finished solving LPB equations
  A_corr:   -0.187499411559707     
 End minimization
 Ecorr=   1760.55879828816     
 A_corr= -0.187499411559707     
 Ecorr_band=  -1760.74629769972     
 End Solvation calculations
RMM:  23    -0.178500595339E+03   -0.13411E-03   -0.68511E-04  3703   0.461E-02    0.368E-01
 Begin Solvation calculations
  rms_SCF =   0.466757683319857      tol =   4.667576833198565E-002
 Begin minimization
 Creating dielectric and ionic cavities
  area:      178.010439818540     
  volume:    818.706665588870     
  Acav:     9.345548090473373E-002
  Solving linear dielectric/ionic screening model
        iter                  A_solv                     rms
   LPB:       -0.293823491807209E+00   0.913671007429672E+00
   LPB:    0  -0.293814183814821E+00   0.922331200064596E+00   0.700903E-03   0.000000E+00   0.378940E+02   0.265600E-01
   LPB:    1  -0.285131739504526E+00   0.203242740341644E+00   0.134482E-01   0.000000E+00   0.110094E+03   0.962625E-18
   LPB:    2  -0.284285834844415E+00   0.910932417856624E-01   0.130293E-01   0.100560E+00   0.245425E+03  -0.102530E-14
   LPB:    3  -0.284114292990939E+00   0.464343596208644E-01   0.177517E-01   0.148844E+00   0.129803E+03  -0.115059E-14
   LPB:    4  -0.284019433741434E+00   0.478069310043984E-01   0.258192E-01   0.380194E+00   0.232774E+03  -0.138483E-14
   LPB:    5  -0.283935785809564E+00   0.357793008247443E-01   0.307307E-01   0.740879E+00   0.836394E+02  -0.147311E-14
  Finished solving LPB equations
  A_corr:   -0.190480304904830     
 End minimization
 Ecorr=   1759.51959634240     
 A_corr= -0.190480304904830     
 Ecorr_band=  -1759.71007664730     
 End Solvation calculations
RMM:  24    -0.178500852727E+03   -0.25739E-03   -0.51661E-04  3704   0.396E-02    0.326E-01
 Begin Solvation calculations
  rms_SCF =   0.466757683319857      tol =   4.667576833198565E-002
 Begin minimization
 Creating dielectric and ionic cavities
  area:      178.149163233168     
  volume:    818.477490516260     
  Acav:     9.352831069741326E-002
  Solving linear dielectric/ionic screening model
        iter                  A_solv                     rms
   LPB:       -0.293683756956533E+00   0.840457020504860E+00
   LPB:    0  -0.293663859513880E+00   0.849559523664654E+00   0.102463E-02   0.000000E+00   0.379048E+02   0.388383E-01
   LPB:    1  -0.287381071875541E+00   0.183837147593138E+00   0.132239E-01   0.000000E+00   0.981522E+02  -0.359921E-17
   LPB:    2  -0.286743140830214E+00   0.775608099755386E-01   0.126089E-01   0.106489E+00   0.268056E+03  -0.127422E-15
   LPB:    3  -0.286603532039895E+00   0.368275101603743E-01   0.185730E-01   0.148571E+00   0.135905E+03  -0.403408E-15
   LPB:    4  -0.286516749273916E+00   0.443001940133567E-01   0.290784E-01   0.397038E+00   0.219371E+03  -0.342671E-15
  Finished solving LPB equations
  A_corr:   -0.192988438576503     
 End minimization
 Ecorr=   1758.23108202288     
 A_corr= -0.192988438576503     
 Ecorr_band=  -1758.42407046145     
 End Solvation calculations
RMM:  25    -0.178501024039E+03   -0.17131E-03   -0.50834E-04  3705   0.392E-02    0.232E-01
 Begin Solvation calculations
  rms_SCF =   0.341897913119453      tol =   3.418979131194531E-002
 Begin minimization
 Creating dielectric and ionic cavities
  area:      178.395721860392     
  volume:    818.280863347813     
  Acav:     9.365775397670570E-002
  Solving linear dielectric/ionic screening model
        iter                  A_solv                     rms
   LPB:       -0.318019039072447E+00   0.164054064292640E+01
   LPB:    0  -0.318007003406978E+00   0.163338099948360E+01  -0.796802E-03   0.000000E+00   0.379140E+02  -0.302099E-01
   LPB:    1  -0.295338168527698E+00   0.338278469320971E+00   0.131739E-01   0.000000E+00   0.971372E+02  -0.159898E-17
   LPB:    2  -0.293124659667983E+00   0.153372119445668E+00   0.125860E-01   0.102207E+00   0.283338E+03  -0.706139E-15
   LPB:    3  -0.292615586678981E+00   0.598107489889307E-01   0.181458E-01   0.159517E+00   0.134230E+03  -0.481824E-15
   LPB:    4  -0.292372373249240E+00   0.645026847225127E-01   0.265096E-01   0.327025E+00   0.279149E+03  -0.275604E-15
   LPB:    5  -0.292225012811486E+00   0.499868686640489E-01   0.268523E-01   0.598158E+00   0.907294E+02  -0.102402E-15
   LPB:    6  -0.292103932662919E+00   0.220283436495985E-01   0.313423E-01   0.703950E+00   0.166799E+03   0.182221E-15
  Finished solving LPB equations
  A_corr:   -0.198446178686213     
 End minimization
 Ecorr=   1757.37928415976     
 A_corr= -0.198446178686213     
 Ecorr_band=  -1757.57773033845     
 End Solvation calculations
RMM:  26    -0.178502806065E+03   -0.17820E-02   -0.75956E-04  3702   0.465E-02    0.281E-01
 Begin Solvation calculations
  rms_SCF =   0.341897913119453      tol =   3.418979131194531E-002
 Begin minimization
 Creating dielectric and ionic cavities
  area:      178.535487082659     
  volume:    818.191520542558     
  Acav:     9.373113071839582E-002
  Solving linear dielectric/ionic screening model
        iter                  A_solv                     rms
   LPB:       -0.305516933510579E+00   0.105738476561974E+01
   LPB:    0  -0.305516819029747E+00   0.105679911636569E+01  -0.777066E-04   0.000000E+00   0.379182E+02  -0.294649E-02
   LPB:    1  -0.297018734588544E+00   0.221098994745406E+00   0.128809E-01   0.000000E+00   0.911396E+02  -0.126810E-18
   LPB:    2  -0.296112541859957E+00   0.877306149268673E-01   0.124047E-01   0.110729E+00   0.295581E+03  -0.363603E-15
   LPB:    3  -0.295937484628040E+00   0.292275528372719E-01   0.173207E-01   0.138350E+00   0.154564E+03  -0.418662E-15
   LPB:    4  -0.295854086832417E+00   0.403621369385202E-01   0.299724E-01   0.275307E+00   0.251733E+03  -0.555335E-15
   LPB:    5  -0.295775359512036E+00   0.428513453613603E-01   0.341922E-01   0.827496E+00   0.740107E+02  -0.570527E-15
   LPB:    6  -0.295689691695039E+00   0.187468878216060E-01   0.336125E-01   0.110692E+01   0.107059E+03  -0.890380E-15
  Finished solving LPB equations
  A_corr:   -0.201958560976644     
 End minimization
 Ecorr=   1756.68438469242     
 A_corr= -0.201958560976644     
 Ecorr_band=  -1756.88634325340     
 End Solvation calculations
RMM:  27    -0.178503427892E+03   -0.62183E-03   -0.44623E-04  3702   0.335E-02    0.246E-01
 Begin Solvation calculations
  rms_SCF =   0.341897913119453      tol =   3.418979131194531E-002
 Begin minimization
 Creating dielectric and ionic cavities
  area:      178.676630770383     
  volume:    818.224958896733     
  Acav:     9.380523115445108E-002
  Solving linear dielectric/ionic screening model
        iter                  A_solv                     rms
   LPB:       -0.311652256323312E+00   0.121586232269305E+01
   LPB:    0  -0.311630352860474E+00   0.120651858448521E+01  -0.107487E-02   0.000000E+00   0.379166E+02  -0.407555E-01
   LPB:    1  -0.301567009937887E+00   0.246699616896352E+00   0.126254E-01   0.000000E+00   0.860163E+02  -0.169745E-17
   LPB:    2  -0.300482436383296E+00   0.869089637801085E-01   0.121571E-01   0.111926E+00   0.304792E+03  -0.143172E-15
   LPB:    3  -0.300303650608355E+00   0.249614292066123E-01   0.167472E-01   0.119663E+00   0.169007E+03  -0.614779E-16
   LPB:    4  -0.300243802148606E+00   0.306309488201776E-01   0.262571E-01   0.213509E+00   0.267118E+03  -0.118415E-15
  Finished solving LPB equations
  A_corr:   -0.206438570994155     
 End minimization
 Ecorr=   1755.78577684782     
 A_corr= -0.206438570994155     
 Ecorr_band=  -1755.99221541881     
 End Solvation calculations
RMM:  28    -0.178503702533E+03   -0.27464E-03   -0.64109E-04  3706   0.325E-02    0.750E-02
 Begin Solvation calculations
  rms_SCF =   1.802984534398989E-002 tol =   1.802984534398990E-003
 Begin minimization
 Creating dielectric and ionic cavities
  area:      178.733375368222     
  volume:    818.312005789433     
  Acav:     9.383502206831662E-002
  Solving linear dielectric/ionic screening model
        iter                  A_solv                     rms
   LPB:       -0.304606824210630E+00   0.555019482639237E+00
   LPB:    0  -0.304593749656009E+00   0.548809125902942E+00  -0.830495E-03   0.000000E+00   0.379125E+02  -0.314862E-01
   LPB:    1  -0.302564114248438E+00   0.110138794965926E+00   0.127122E-01   0.000000E+00   0.830506E+02   0.708581E-18
   LPB:    2  -0.302353338227074E+00   0.447306142286898E-01   0.122756E-01   0.107543E+00   0.284715E+03   0.146973E-15
   LPB:    3  -0.302288707903429E+00   0.184724873325003E-01   0.226989E-01   0.165826E+00   0.117980E+03   0.145744E-15
   LPB:    4  -0.302231139535489E+00   0.238205876620610E-01   0.385353E-01   0.524678E+00   0.173854E+03   0.183006E-15
   LPB:    5  -0.302186959648753E+00   0.310143121743002E-01   0.326130E-01   0.906793E+00   0.949505E+02   0.215653E-15
   LPB:    6  -0.302149832326730E+00   0.186443196498315E-01   0.294671E-01   0.930086E+00   0.120676E+03   0.263401E-15
   LPB:    7  -0.302118770203029E+00   0.779102537040492E-02   0.333055E-01   0.740215E+00   0.194311E+03   0.269699E-15
   LPB:    8  -0.302097811072571E+00   0.477538495995306E-02   0.354292E-01   0.634304E+00   0.278650E+03   0.100845E-15
   LPB:    9  -0.302084763593138E+00   0.393225621287579E-02   0.357553E-01   0.616842E+00   0.496000E+03  -0.333261E-16
   LPB:   10  -0.302076779523097E+00   0.363895648741747E-02   0.347786E-01   0.629109E+00   0.606805E+03  -0.109836E-15
   LPB:   11  -0.302071637006936E+00   0.300173866918357E-02   0.337633E-01   0.663467E+00   0.752022E+03  -0.155189E-15
   LPB:   12  -0.302068122649065E+00   0.206437800828727E-02   0.346818E-01   0.665294E+00   0.832893E+03  -0.184651E-15
   LPB:   13  -0.302065702821581E+00   0.141098577387096E-02   0.364675E-01   0.654839E+00   0.109477E+04  -0.205769E-15
  Finished solving LPB equations
  A_corr:   -0.208230680753265     
 End minimization
 Ecorr=   1755.59122616887     
 A_corr= -0.208230680753265     
 Ecorr_band=  -1755.79945684962     
 End Solvation calculations
RMM:  29    -0.178504126134E+03   -0.42360E-03   -0.34230E-04  3715   0.275E-02    0.204E-01
 Begin Solvation calculations
  rms_SCF =   1.802984534398989E-002 tol =   1.802984534398990E-003
 Begin minimization
 Creating dielectric and ionic cavities
  area:      178.769280298105     
  volume:    818.370207691237     
  Acav:     9.385387215650512E-002
  Solving linear dielectric/ionic screening model
        iter                  A_solv                     rms
   LPB:       -0.305133486233534E+00   0.485670677054559E+00
   LPB:    0  -0.305119868375417E+00   0.477702880697824E+00  -0.847605E-03   0.000000E+00   0.379098E+02  -0.321325E-01
   LPB:    1  -0.303830737650186E+00   0.912517609323062E-01   0.119717E-01   0.000000E+00   0.780179E+02   0.185161E-17
   LPB:    2  -0.303680077765032E+00   0.267039088372957E-01   0.121812E-01   0.114859E+00   0.296155E+03  -0.335705E-15
   LPB:    3  -0.303656532295379E+00   0.771412356222171E-02   0.179069E-01   0.106311E+00   0.190038E+03  -0.373920E-15
   LPB:    4  -0.303649568695511E+00   0.848670301710090E-02   0.247875E-01   0.213656E+00   0.312127E+03  -0.336803E-15
   LPB:    5  -0.303646804248746E+00   0.662090329172551E-02   0.240657E-01   0.408893E+00   0.129453E+03  -0.312390E-15
   LPB:    6  -0.303645116009501E+00   0.276049757904534E-02   0.264765E-01   0.555089E+00   0.174436E+03  -0.278055E-15
   LPB:    7  -0.303644093710792E+00   0.115414527756893E-02   0.313550E-01   0.511326E+00   0.370558E+03  -0.251031E-15
  Finished solving LPB equations
  A_corr:   -0.209790221554287     
 End minimization
 Ecorr=   1755.34339630881     
 A_corr= -0.209790221554287     
 Ecorr_band=  -1755.55318653036     
 End Solvation calculations
RMM:  30    -0.178504634152E+03   -0.50802E-03   -0.19315E-04  3506   0.154E-02    0.282E-01
 Begin Solvation calculations
  rms_SCF =   1.802984534398989E-002 tol =   1.802984534398990E-003
 Begin minimization
 Creating dielectric and ionic cavities
  area:      178.763898552415     
  volume:    818.374171088868     
  Acav:     9.385104674001782E-002
  Solving linear dielectric/ionic screening model
        iter                  A_solv                     rms
   LPB:       -0.303687773190768E+00   0.211555975558111E-01
   LPB:    0  -0.303687767497978E+00   0.210498037634956E-01  -0.173302E-04   0.000000E+00   0.379096E+02  -0.656980E-03
   LPB:    1  -0.303685199959662E+00   0.449642451514361E-02   0.119479E-01   0.000000E+00   0.807512E+02   0.430302E-19
   LPB:    2  -0.303684732850339E+00   0.154985173904603E-02   0.148043E-01   0.146826E+00   0.311649E+03  -0.145754E-16
   LPB:    3  -0.303684369139056E+00   0.145364853634404E-02   0.378643E-01   0.304437E+00   0.219072E+03  -0.155026E-16
   LPB:    4  -0.303683713429535E+00   0.329980721027470E-02   0.615500E-01   0.110906E+01   0.254428E+03  -0.164091E-16
   LPB:    5  -0.303682996719104E+00   0.357294088731903E-02   0.318922E-01   0.210948E+01   0.107956E+03  -0.183721E-16
   LPB:    6  -0.303682529511274E+00   0.191511757046276E-02   0.270523E-01   0.768505E+00   0.946374E+02   0.505845E-17
   LPB:    7  -0.303682131381609E+00   0.107673933531118E-02   0.366803E-01   0.628472E+00   0.130482E+03  -0.148590E-16
  Finished solving LPB equations
  A_corr:   -0.209831084641591     
 End minimization
 Ecorr=   1755.32350074307     
 A_corr= -0.209831084641591     
 Ecorr_band=  -1755.53333182771     
 End Solvation calculations
RMM:  31    -0.178506325798E+03   -0.16916E-02   -0.10453E-04  3458   0.140E-02    0.481E-01
 Begin Solvation calculations
  rms_SCF =   1.802984534398989E-002 tol =   1.802984534398990E-003
 Begin minimization
 Creating dielectric and ionic cavities
  area:      178.816013748514     
  volume:    818.479654654059     
  Acav:     9.387840721796978E-002
  Solving linear dielectric/ionic screening model
        iter                  A_solv                     rms
   LPB:       -0.306583323549192E+00   0.444428720572916E+00
   LPB:    0  -0.306547647246381E+00   0.427229968865364E+00  -0.137201E-02   0.000000E+00   0.379047E+02  -0.520057E-01
   LPB:    1  -0.305474376356513E+00   0.799184345736724E-01   0.120875E-01   0.000000E+00   0.789360E+02  -0.274397E-17
   LPB:    2  -0.305364105932849E+00   0.252474404819301E-01   0.119150E-01   0.104230E+00   0.294630E+03   0.151604E-15
   LPB:    3  -0.305346855177016E+00   0.593396529860429E-02   0.170823E-01   0.109118E+00   0.172245E+03   0.141364E-15
   LPB:    4  -0.305342524828635E+00   0.544927426870823E-02   0.244311E-01   0.175516E+00   0.281276E+03   0.140152E-15
   LPB:    5  -0.305341126121113E+00   0.474031245419345E-02   0.232607E-01   0.339254E+00   0.191663E+03   0.119209E-15
   LPB:    6  -0.305340404084708E+00   0.191169335470600E-02   0.240958E-01   0.498325E+00   0.131259E+03   0.105751E-15
   LPB:    7  -0.305339962178353E+00   0.899385440377175E-03   0.315304E-01   0.467716E+00   0.392004E+03   0.871350E-16
  Finished solving LPB equations
  A_corr:   -0.211461554960383     
 End minimization
 Ecorr=   1755.03166388706     
 A_corr= -0.211461554960383     
 Ecorr_band=  -1755.24312544202     
 End Solvation calculations
RMM:  32    -0.178506449856E+03   -0.12406E-03   -0.99255E-05  3010   0.159E-02    0.488E-01
 Begin Solvation calculations
  rms_SCF =   1.802984534398989E-002 tol =   1.802984534398990E-003
 Begin minimization
 Creating dielectric and ionic cavities
  area:      178.836315375369     
  volume:    818.569616099772     
  Acav:     9.388906557206868E-002
  Solving linear dielectric/ionic screening model
        iter                  A_solv                     rms
   LPB:       -0.305584248157462E+00   0.909208851425440E-01
   LPB:    0  -0.305562474068137E+00   0.574336442343048E-01  -0.107192E-02   0.000000E+00   0.379004E+02  -0.406263E-01
   LPB:    1  -0.305477981116337E+00   0.165453384061680E-01   0.126913E-01   0.000000E+00   0.266355E+03  -0.322101E-17
   LPB:    2  -0.305473059846647E+00   0.946142667770594E-02   0.168182E-01   0.439525E-01   0.945720E+02  -0.615948E-17
   LPB:    3  -0.305471467469797E+00   0.376748686346748E-02   0.158905E-01   0.342461E+00   0.231822E+03  -0.533995E-16
   LPB:    4  -0.305470802585381E+00   0.310283430439661E-02   0.250314E-01   0.265065E+00   0.312457E+03  -0.708215E-16
   LPB:    5  -0.305470483522691E+00   0.192611146826773E-02   0.242926E-01   0.494473E+00   0.847162E+02  -0.826493E-16
   LPB:    6  -0.305470254752676E+00   0.119502157390902E-02   0.285141E-01   0.610853E+00   0.473272E+03  -0.762643E-16
  Finished solving LPB equations
  A_corr:   -0.211581189180608     
 End minimization
 Ecorr=   1754.96280486628     
 A_corr= -0.211581189180608     
 Ecorr_band=  -1755.17438605546     
 End Solvation calculations
RMM:  33    -0.178507401259E+03   -0.95140E-03   -0.42852E-05  2640   0.115E-02    0.551E-01
 Begin Solvation calculations
  rms_SCF =   1.802984534398989E-002 tol =   1.802984534398990E-003
 Begin minimization
 Creating dielectric and ionic cavities
  area:      178.845763250873     
  volume:    818.614299368033     
  Acav:     9.389402570670828E-002
  Solving linear dielectric/ionic screening model
        iter                  A_solv                     rms
   LPB:       -0.305266959651725E+00   0.155912085689427E+00
   LPB:    0  -0.305259599001040E+00   0.153328438755590E+00  -0.623251E-03   0.000000E+00   0.378984E+02  -0.236202E-01
   LPB:    1  -0.305065942422440E+00   0.372171842065311E-01   0.124435E-01   0.000000E+00   0.106060E+03  -0.949373E-18
   LPB:    2  -0.305041237428889E+00   0.135101969443749E-01   0.127530E-01   0.124475E+00   0.260219E+03  -0.187112E-17
   LPB:    3  -0.305035795599891E+00   0.509586851996518E-02   0.190675E-01   0.147326E+00   0.169013E+03  -0.879482E-16
   LPB:    4  -0.305033938046296E+00   0.555910975070111E-02   0.244556E-01   0.266141E+00   0.494437E+03  -0.111115E-15
   LPB:    5  -0.305033075978248E+00   0.344783678748636E-02   0.239448E-01   0.473989E+00   0.754441E+02  -0.118719E-15
   LPB:    6  -0.305032499506113E+00   0.160322093194102E-02   0.291777E-01   0.548778E+00   0.289894E+03  -0.136257E-15
  Finished solving LPB equations
  A_corr:   -0.211138473799404     
 End minimization
 Ecorr=   1754.95344711609     
 A_corr= -0.211138473799404     
 Ecorr_band=  -1755.16458558989     
 End Solvation calculations
RMM:  34    -0.178508764443E+03   -0.13632E-02   -0.71653E-05  2792   0.108E-02    0.642E-01
 Begin Solvation calculations
  rms_SCF =   1.802984534398989E-002 tol =   1.802984534398990E-003
 Begin minimization
 Creating dielectric and ionic cavities
  area:      178.875437605469     
  volume:    818.659711810846     
  Acav:     9.390960474287095E-002
  Solving linear dielectric/ionic screening model
        iter                  A_solv                     rms
   LPB:       -0.305417735631742E+00   0.887585296280638E-01
   LPB:    0  -0.305406909487523E+00   0.650322704835625E-01  -0.755882E-03   0.000000E+00   0.378962E+02  -0.286451E-01
   LPB:    1  -0.305358269941421E+00   0.107895629469894E-01   0.125093E-01   0.000000E+00   0.122677E+03  -0.587955E-18
   LPB:    2  -0.305355956986032E+00   0.655525597753144E-02   0.132592E-01   0.448635E-01   0.199755E+03   0.836734E-16
   LPB:    3  -0.305355290152860E+00   0.232740063601335E-02   0.164454E-01   0.232447E+00   0.107761E+03   0.915976E-16
   LPB:    4  -0.305354889560956E+00   0.101964838993784E-02   0.362808E-01   0.272303E+00   0.107518E+03   0.842042E-16
  Finished solving LPB equations
  A_corr:   -0.211445284818085     
 End minimization
 Ecorr=   1754.82194478393     
 A_corr= -0.211445284818085     
 Ecorr_band=  -1755.03339006875     
 End Solvation calculations
RMM:  35    -0.178508855186E+03   -0.90743E-04   -0.15270E-05  2222   0.659E-03    0.638E-01
 Begin Solvation calculations
  rms_SCF =   1.802984534398989E-002 tol =   1.802984534398990E-003
 Begin minimization
 Creating dielectric and ionic cavities
  area:      178.888596132480     
  volume:    818.684606255830     
  Acav:     9.391651296955200E-002
  Solving linear dielectric/ionic screening model
        iter                  A_solv                     rms
   LPB:       -0.305630111313486E+00   0.575217688635306E-01
   LPB:    0  -0.305624441672102E+00   0.364942180786650E-01  -0.547018E-03   0.000000E+00   0.378951E+02  -0.207293E-01
   LPB:    1  -0.305603495998742E+00   0.432531227017234E-02   0.127585E-01   0.000000E+00   0.141680E+03  -0.156301E-17
   LPB:    2  -0.305602601557804E+00   0.373403164605033E-02   0.175175E-01   0.311018E-01   0.199864E+03  -0.112103E-15
   LPB:    3  -0.305602292788307E+00   0.346524044612809E-02   0.193173E-01   0.313047E+00   0.819344E+02  -0.953020E-16
   LPB:    4  -0.305601918865975E+00   0.143490684972583E-02   0.335285E-01   0.697717E+00   0.703291E+02  -0.936875E-16
  Finished solving LPB equations
  A_corr:   -0.211685405896423     
 End minimization
 Ecorr=   1754.68622058422     
 A_corr= -0.211685405896423     
 Ecorr_band=  -1754.89790599012     
 End Solvation calculations
RMM:  36    -0.178508748829E+03    0.10636E-03   -0.77846E-06  2111   0.432E-03    0.623E-01
 Begin Solvation calculations
  rms_SCF =   1.802984534398989E-002 tol =   1.802984534398990E-003
 Begin minimization
 Creating dielectric and ionic cavities
  area:      178.892029519215     
  volume:    818.693872812856     
  Acav:     9.391831549758803E-002
  Solving linear dielectric/ionic screening model
        iter                  A_solv                     rms
   LPB:       -0.305826348036226E+00   0.525054962251463E-01
   LPB:    0  -0.305822011225884E+00   0.336744573886231E-01  -0.478422E-03   0.000000E+00   0.378946E+02  -0.181296E-01
   LPB:    1  -0.305807086101270E+00   0.843819944199184E-02   0.120250E-01   0.000000E+00   0.128991E+03  -0.178057E-18
   LPB:    2  -0.305806105061981E+00   0.431308479035509E-02   0.122364E-01   0.645952E-01   0.165538E+03  -0.770421E-16
   LPB:    3  -0.305805672654835E+00   0.153324173029104E-02   0.242334E-01   0.222559E+00   0.103838E+03  -0.890599E-16
   LPB:    4  -0.305805346783142E+00   0.122979451172807E-02   0.380015E-01   0.480582E+00   0.101972E+03  -0.937397E-16
  Finished solving LPB equations
  A_corr:   -0.211887031285554     
 End minimization
 Ecorr=   1754.56261930783     
 A_corr= -0.211887031285554     
 Ecorr_band=  -1754.77450633911     
 End Solvation calculations
RMM:  37    -0.178509123205E+03   -0.37438E-03   -0.78333E-06  2107   0.382E-03    0.646E-01
 Begin Solvation calculations
  rms_SCF =   1.802984534398989E-002 tol =   1.802984534398990E-003
 Begin minimization
 Creating dielectric and ionic cavities
  area:      178.920163829157     
  volume:    818.709213329425     
  Acav:     9.393308601030759E-002
  Solving linear dielectric/ionic screening model
        iter                  A_solv                     rms
   LPB:       -0.306708104563632E+00   0.160460292842915E+00
   LPB:    0  -0.306672052266533E+00   0.105297623884153E+00  -0.137942E-02   0.000000E+00   0.378939E+02  -0.522716E-01
   LPB:    1  -0.306553495222713E+00   0.264114656940217E-01   0.116066E-01   0.000000E+00   0.112423E+03   0.202779E-18
   LPB:    2  -0.306545460053834E+00   0.952651383553493E-02   0.117985E-01   0.666727E-01   0.151262E+03  -0.318531E-15
   LPB:    3  -0.306543067278433E+00   0.353083788696236E-02   0.216791E-01   0.162065E+00   0.150383E+03  -0.238503E-15
   LPB:    4  -0.306542026342588E+00   0.314499281137878E-02   0.275727E-01   0.342046E+00   0.104019E+03  -0.216457E-15
   LPB:    5  -0.306541455444638E+00   0.295274706900512E-02   0.256117E-01   0.590439E+00   0.258622E+03  -0.193122E-15
   LPB:    6  -0.306541027551999E+00   0.130874956014103E-02   0.296770E-01   0.646838E+00   0.694167E+02  -0.199946E-15
  Finished solving LPB equations
  A_corr:   -0.212607941541692     
 End minimization
 Ecorr=   1754.16857040557     
 A_corr= -0.212607941541692     
 Ecorr_band=  -1754.38117834711     
 End Solvation calculations
RMM:  38    -0.178510241656E+03   -0.11185E-02   -0.26870E-05  2400   0.601E-03    0.717E-01
 Begin Solvation calculations
  rms_SCF =   1.802984534398989E-002 tol =   1.802984534398990E-003
 Begin minimization
 Creating dielectric and ionic cavities
  area:      178.946941318570     
  volume:    818.707490546231     
  Acav:     9.394714419224903E-002
  Solving linear dielectric/ionic screening model
        iter                  A_solv                     rms
   LPB:       -0.306568153548324E+00   0.169272419931256E-01
   LPB:    0  -0.306568074262973E+00   0.159381183817867E-01  -0.646884E-04   0.000000E+00   0.378940E+02  -0.245130E-02
   LPB:    1  -0.306566824418346E+00   0.277558794688143E-02   0.106371E-01   0.000000E+00   0.834050E+02   0.318980E-20
   LPB:    2  -0.306566596721355E+00   0.842413256228866E-03   0.156169E-01   0.124088E+00   0.248477E+03  -0.611679E-17
   LPB:    3  -0.306566449063376E+00   0.137052893826528E-02   0.394658E-01   0.256609E+00   0.274563E+03  -0.666770E-17
   LPB:    4  -0.306566160804434E+00   0.153029582482290E-02   0.630991E-01   0.122102E+01   0.650032E+02  -0.153539E-16
  Finished solving LPB equations
  A_corr:   -0.212619016612185     
 End minimization
 Ecorr=   1754.10100261319     
 A_corr= -0.212619016612185     
 Ecorr_band=  -1754.31362162980     
 End Solvation calculations
RMM:  39    -0.178510299563E+03   -0.57907E-04   -0.36838E-06  2034   0.373E-03    0.720E-01
 Begin Solvation calculations
  rms_SCF =   1.802984534398989E-002 tol =   1.802984534398990E-003
 Begin minimization
 Creating dielectric and ionic cavities
  area:      178.949810807645     
  volume:    818.712838073169     
  Acav:     9.394865067401337E-002
  Solving linear dielectric/ionic screening model
        iter                  A_solv                     rms
   LPB:       -0.306495557139207E+00   0.605394160774138E-01
   LPB:    0  -0.306494596231142E+00   0.564424646069908E-01   0.225202E-03   0.000000E+00   0.378937E+02   0.853374E-02
   LPB:    1  -0.306481316489007E+00   0.757100513062673E-02   0.101189E-01   0.000000E+00   0.765178E+02   0.312814E-18
   LPB:    2  -0.306479719730584E+00   0.274040980347273E-02   0.136767E-01   0.889620E-01   0.247987E+03   0.295287E-16
   LPB:    3  -0.306479435095457E+00   0.140996901716522E-02   0.212258E-01   0.114859E+00   0.134951E+03   0.192492E-16
   LPB:    4  -0.306479353596436E+00   0.105793183455745E-02   0.235069E-01   0.258542E+00   0.212360E+03   0.143949E-16
  Finished solving LPB equations
  A_corr:   -0.212530702922423     
 End minimization
 Ecorr=   1754.15047104957     
 A_corr= -0.212530702922423     
 Ecorr_band=  -1754.36300175249     
 End Solvation calculations
RMM:  40    -0.178509856348E+03    0.44321E-03   -0.10788E-06  1282   0.196E-03    0.690E-01
 Begin Solvation calculations
  rms_SCF =   1.802984534398989E-002 tol =   1.802984534398990E-003
 Begin minimization
 Creating dielectric and ionic cavities
  area:      178.937228429895     
  volume:    818.719286223263     
  Acav:     9.394204492569476E-002
  Solving linear dielectric/ionic screening model
        iter                  A_solv                     rms
   LPB:       -0.306588033749655E+00   0.113995566425321E+00
   LPB:    0  -0.306587412285197E+00   0.112796751862486E+00   0.181109E-03   0.000000E+00   0.378934E+02   0.686286E-02
   LPB:    1  -0.306537558268273E+00   0.156846772451176E-01   0.102348E-01   0.000000E+00   0.742106E+02   0.248097E-18
   LPB:    2  -0.306531234495316E+00   0.390903356651771E-02   0.133925E-01   0.969382E-01   0.246225E+03  -0.404192E-16
   LPB:    3  -0.306530324194915E+00   0.174286422386092E-02   0.218555E-01   0.882084E-01   0.169810E+03  -0.516925E-16
   LPB:    4  -0.306530010976385E+00   0.129324308750993E-02   0.287902E-01   0.261203E+00   0.232084E+03  -0.601596E-16
  Finished solving LPB equations
  A_corr:   -0.212587966050691     
 End minimization
 Ecorr=   1754.17631478038     
 A_corr= -0.212587966050691     
 Ecorr_band=  -1754.38890274643     
 End Solvation calculations
RMM:  41    -0.178509019963E+03    0.83639E-03   -0.86833E-06  2078   0.422E-03    0.631E-01
 Begin Solvation calculations
  rms_SCF =   1.802984534398989E-002 tol =   1.802984534398990E-003
 Begin minimization
 Creating dielectric and ionic cavities
  area:      178.916368568059     
  volume:    818.736283837349     
  Acav:     9.393109349823121E-002
  Solving linear dielectric/ionic screening model
        iter                  A_solv                     rms
   LPB:       -0.307434742394771E+00   0.331561243229571E+00
   LPB:    0  -0.307434303530039E+00   0.331269678780202E+00   0.152196E-03   0.000000E+00   0.378926E+02   0.576710E-02
   LPB:    1  -0.307007132956678E+00   0.469692549792308E-01   0.102727E-01   0.000000E+00   0.737078E+02  -0.131829E-18
   LPB:    2  -0.306951872493255E+00   0.106836152251221E-01   0.133960E-01   0.992028E-01   0.239640E+03  -0.873158E-16
   LPB:    3  -0.306944701104970E+00   0.372021274656675E-02   0.208285E-01   0.834652E-01   0.191542E+03  -0.987012E-16
   LPB:    4  -0.306942424199557E+00   0.212552573895046E-02   0.285336E-01   0.231762E+00   0.311954E+03  -0.633061E-16
   LPB:    5  -0.306941469083880E+00   0.216898225283655E-02   0.296167E-01   0.404140E+00   0.313293E+03  -0.700002E-16
   LPB:    6  -0.306940994801318E+00   0.247963560733536E-02   0.278510E-01   0.528052E+00   0.208988E+03  -0.660179E-16
   LPB:    7  -0.306940719226452E+00   0.164759644339697E-02   0.255154E-01   0.634222E+00   0.170673E+03  -0.597039E-16
  Finished solving LPB equations
  A_corr:   -0.213009625728221     
 End minimization
 Ecorr=   1754.15441738555     
 A_corr= -0.213009625728221     
 Ecorr_band=  -1754.36742701128     
 End Solvation calculations
RMM:  42    -0.178507194571E+03    0.18254E-02   -0.56132E-05  2887   0.969E-03    0.478E-01
 Begin Solvation calculations
  rms_SCF =   1.802984534398989E-002 tol =   1.802984534398990E-003
 Begin minimization
 Creating dielectric and ionic cavities
  area:      178.871468107953     
  volume:    818.749930400787     
  Acav:     9.390752075667522E-002
  Solving linear dielectric/ionic screening model
        iter                  A_solv                     rms
   LPB:       -0.307628409595095E+00   0.274284424985037E+00
   LPB:    0  -0.307628401649311E+00   0.274297742227997E+00  -0.204790E-04   0.000000E+00   0.378920E+02  -0.775992E-03
   LPB:    1  -0.307346419999849E+00   0.368721811145553E-01   0.100389E-01   0.000000E+00   0.743615E+02   0.665797E-20
   LPB:    2  -0.307311040185050E+00   0.833303030303219E-02   0.136273E-01   0.924298E-01   0.225823E+03   0.103065E-17
   LPB:    3  -0.307306827032141E+00   0.281171951374660E-02   0.201352E-01   0.805946E-01   0.190026E+03   0.480966E-17
   LPB:    4  -0.307305654436695E+00   0.204226311050826E-02   0.274455E-01   0.204186E+00   0.314667E+03   0.702700E-17
   LPB:    5  -0.307305087549241E+00   0.233701009433807E-02   0.308094E-01   0.430662E+00   0.196913E+03  -0.250012E-16
   LPB:    6  -0.307304711035514E+00   0.228598963242439E-02   0.285671E-01   0.716311E+00   0.154126E+03  -0.461356E-16
   LPB:    7  -0.307304429674374E+00   0.127332974775791E-02   0.287328E-01   0.742970E+00   0.146972E+03  -0.627220E-16
  Finished solving LPB equations
  A_corr:   -0.213396908917699     
 End minimization
 Ecorr=   1754.11842748469     
 A_corr= -0.213396908917699     
 Ecorr_band=  -1754.33182439361     
 End Solvation calculations
RMM:  43    -0.178506035435E+03    0.11591E-02   -0.46732E-05  2746   0.109E-02    0.348E-01
 Begin Solvation calculations
  rms_SCF =   1.802984534398989E-002 tol =   1.802984534398990E-003
 Begin minimization
 Creating dielectric and ionic cavities
  area:      178.842706623322     
  volume:    818.763797579479     
  Acav:     9.389242097724379E-002
  Solving linear dielectric/ionic screening model
        iter                  A_solv                     rms
   LPB:       -0.307884895058630E+00   0.251254113319588E+00
   LPB:    0  -0.307883987845312E+00   0.250891987622724E+00  -0.218826E-03   0.000000E+00   0.378913E+02  -0.829163E-02
   LPB:    1  -0.307659392079058E+00   0.307847625504243E-01   0.964820E-02   0.000000E+00   0.766362E+02   0.359932E-18
   LPB:    2  -0.307633785321204E+00   0.678926246753404E-02   0.139712E-01   0.787344E-01   0.204190E+03   0.157430E-16
   LPB:    3  -0.307630993629688E+00   0.218087757377464E-02   0.196907E-01   0.773547E-01   0.187965E+03   0.258156E-16
   LPB:    4  -0.307630270652989E+00   0.189154131746876E-02   0.266518E-01   0.191333E+00   0.348069E+03  -0.668154E-18
   LPB:    5  -0.307629915636889E+00   0.211292007886539E-02   0.298573E-01   0.438329E+00   0.151425E+03  -0.175680E-16
   LPB:    6  -0.307629644087455E+00   0.183329473837753E-02   0.294039E-01   0.776688E+00   0.152802E+03  -0.290466E-16
   LPB:    7  -0.307629412436934E+00   0.101493542221953E-02   0.321292E-01   0.780708E+00   0.125502E+03  -0.420370E-16
  Finished solving LPB equations
  A_corr:   -0.213736991459690     
 End minimization
 Ecorr=   1754.05766813003     
 A_corr= -0.213736991459690     
 Ecorr_band=  -1754.27140512149     
 End Solvation calculations
RMM:  44    -0.178505271429E+03    0.76401E-03   -0.42975E-05  2689   0.106E-02    0.221E-01
 Begin Solvation calculations
  rms_SCF =   1.802984534398989E-002 tol =   1.802984534398990E-003
 Begin minimization
 Creating dielectric and ionic cavities
  area:      178.833196566905     
  volume:    818.756521080605     
  Acav:     9.388742819762511E-002
  Solving linear dielectric/ionic screening model
        iter                  A_solv                     rms
   LPB:       -0.308072704159606E+00   0.154311621962712E+00
   LPB:    0  -0.308070661804107E+00   0.151579171951648E+00  -0.328329E-03   0.000000E+00   0.378917E+02  -0.124409E-01
   LPB:    1  -0.307989332678968E+00   0.189615753673926E-01   0.953145E-02   0.000000E+00   0.770185E+02  -0.892602E-18
   LPB:    2  -0.307979940629779E+00   0.350871537223471E-02   0.143615E-01   0.766431E-01   0.174199E+03   0.203548E-16
   LPB:    3  -0.307978946366646E+00   0.100705270606012E-02   0.194625E-01   0.781166E-01   0.257170E+03   0.667018E-16
   LPB:    4  -0.307978656084246E+00   0.692616896925707E-03   0.290530E-01   0.195581E+00   0.299797E+03   0.715887E-16
  Finished solving LPB equations
  A_corr:   -0.214091227886620     
 End minimization
 Ecorr=   1753.97128435721     
 A_corr= -0.214091227886620     
 Ecorr_band=  -1754.18537558510     
 End Solvation calculations
RMM:  45    -0.178504963631E+03    0.30780E-03   -0.24909E-05  2269   0.889E-03    0.136E-01
 Begin Solvation calculations
  rms_SCF =   1.802984534398989E-002 tol =   1.802984534398990E-003
 Begin minimization
 Creating dielectric and ionic cavities
  area:      178.838120500034     
  volume:    818.752517369380     
  Acav:     9.389001326251774E-002
  Solving linear dielectric/ionic screening model
        iter                  A_solv                     rms
   LPB:       -0.308447819374695E+00   0.141231115853279E+00
   LPB:    0  -0.308444074484119E+00   0.135424360063357E+00  -0.444592E-03   0.000000E+00   0.378919E+02  -0.168464E-01
   LPB:    1  -0.308377001778206E+00   0.180456263419621E-01   0.965186E-02   0.000000E+00   0.762530E+02   0.965670E-18
   LPB:    2  -0.308369199946687E+00   0.364611051189937E-02   0.141214E-01   0.795029E-01   0.163276E+03  -0.312401E-16
   LPB:    3  -0.308368240084606E+00   0.150306164222971E-02   0.207218E-01   0.838424E-01   0.214766E+03  -0.522560E-17
   LPB:    4  -0.308367777858285E+00   0.154376880885143E-02   0.336620E-01   0.296437E+00   0.143974E+03  -0.181156E-17
  Finished solving LPB equations
  A_corr:   -0.214477764595768     
 End minimization
 Ecorr=   1753.84322052481     
 A_corr= -0.214477764595768     
 Ecorr_band=  -1754.05769828941     
 End Solvation calculations
RMM:  46    -0.178504847609E+03    0.11602E-03   -0.17214E-05  2151   0.675E-03    0.739E-02
 Begin Solvation calculations
  rms_SCF =   1.802984534398989E-002 tol =   1.802984534398990E-003
 Begin minimization
 Creating dielectric and ionic cavities
  area:      178.849527648023     
  volume:    818.745248634693     
  Acav:     9.389600201521209E-002
  Solving linear dielectric/ionic screening model
        iter                  A_solv                     rms
   LPB:       -0.308790753870815E+00   0.100322992262487E+00
   LPB:    0  -0.308780481444790E+00   0.753432081614984E-01  -0.736337E-03   0.000000E+00   0.378922E+02  -0.279014E-01
   LPB:    1  -0.308747899146458E+00   0.148802316108513E-01   0.101093E-01   0.000000E+00   0.882021E+02   0.195682E-17
   LPB:    2  -0.308745349975791E+00   0.315087015033470E-02   0.120400E-01   0.656915E-01   0.118419E+03   0.985879E-16
   LPB:    3  -0.308744866443900E+00   0.171894922021277E-02   0.228291E-01   0.100038E+00   0.162001E+03   0.223697E-15
   LPB:    4  -0.308744562159752E+00   0.210232802923550E-02   0.356963E-01   0.402457E+00   0.671910E+02   0.238799E-15
   LPB:    5  -0.308744334621361E+00   0.159004385919202E-02   0.276075E-01   0.966878E+00   0.255501E+03   0.243410E-15
  Finished solving LPB equations
  A_corr:   -0.214848332606149     
 End minimization
 Ecorr=   1753.64041802519     
 A_corr= -0.214848332606149     
 Ecorr_band=  -1753.85526635779     
 End Solvation calculations
RMM:  47    -0.178504860667E+03   -0.13057E-04   -0.11956E-05  2163   0.502E-03    0.528E-02
 Begin Solvation calculations
  rms_SCF =   1.802984534398989E-002 tol =   1.802984534398990E-003
 Begin minimization
 Creating dielectric and ionic cavities
  area:      178.859115732077     
  volume:    818.738274413692     
  Acav:     9.390103575934022E-002
  Solving linear dielectric/ionic screening model
        iter                  A_solv                     rms
   LPB:       -0.309092179187699E+00   0.831989442723767E-01
   LPB:    0  -0.309086724287934E+00   0.657302185282195E-01  -0.536576E-03   0.000000E+00   0.378925E+02  -0.203322E-01
   LPB:    1  -0.309066513654920E+00   0.105409253809039E-01   0.984519E-02   0.000000E+00   0.778041E+02  -0.167631E-17
   LPB:    2  -0.309064766540491E+00   0.300614681795525E-02   0.128208E-01   0.663822E-01   0.126265E+03   0.722992E-16
   LPB:    3  -0.309064536238469E+00   0.149405851777225E-02   0.184099E-01   0.917992E-01   0.155830E+03   0.802507E-16
   LPB:    4  -0.309064403959375E+00   0.141732519613242E-02   0.339292E-01   0.311653E+00   0.650429E+02   0.833566E-16
  Finished solving LPB equations
  A_corr:   -0.215163368200034     
 End minimization
 Ecorr=   1753.49256239249     
 A_corr= -0.215163368200034     
 Ecorr_band=  -1753.70772576069     
 End Solvation calculations
RMM:  48    -0.178504862598E+03   -0.19314E-05   -0.80786E-06  2111   0.370E-03
 Begin Solvation calculations
  rms_SCF =   1.802984534398989E-002 tol =   1.802984534398990E-003
 Begin minimization
 Creating dielectric and ionic cavities
  area:      178.870135105697     
  volume:    818.722969074372     
  Acav:     9.390682093049087E-002
  Solving linear dielectric/ionic screening model
        iter                  A_solv                     rms
   LPB:       -0.309518039486150E+00   0.980569670664746E-01
   LPB:    0  -0.309511305160472E+00   0.788802285463673E-01  -0.596185E-03   0.000000E+00   0.378933E+02  -0.225914E-01
   LPB:    1  -0.309482889427807E+00   0.124235855344358E-01   0.976018E-02   0.000000E+00   0.777359E+02   0.524080E-18
   LPB:    2  -0.309480314053481E+00   0.393397614801817E-02   0.132946E-01   0.665372E-01   0.121626E+03  -0.100004E-15
   LPB:    3  -0.309479913586659E+00   0.217199752936925E-02   0.192384E-01   0.107457E+00   0.143068E+03  -0.107976E-15
   LPB:    4  -0.309479704131266E+00   0.146453311687153E-02   0.291485E-01   0.345204E+00   0.732092E+02  -0.108242E-15
  Finished solving LPB equations
  A_corr:   -0.215572883200775     
 End minimization
 Ecorr=   1753.30238226572     
 A_corr= -0.215572883200775     
 Ecorr_band=  -1753.51795514892     
 End Solvation calculations
   1 F= -.17850486E+03 E0= -.17848578E+03  d E =-.178505E+03
quench:  g(F)=  0.000E+00 g(S)=  0.000E+00 dE (1.order)= 0.000E+00
 bond charge predicted
       N       E                     dE             d eps       ncg     rms          rms(c)
 Begin Solvation calculations
  rms_SCF =   1.802984534398989E-002 tol =   1.802984534398990E-003
 Begin minimization
 Creating dielectric and ionic cavities
  area:      178.932162714204     
  volume:    818.779854292779     
  Acav:     9.393938542495724E-002
  Solving linear dielectric/ionic screening model
        iter                  A_solv                     rms
   LPB:       -0.316806387878622E+00   0.743259897500710E-02
   LPB:    0  -0.316806387627021E+00   0.744451352663254E-02   0.364422E-05   0.000000E+00   0.378906E+02   0.138082E-03
   LPB:    1  -0.310465320765726E+00   0.257827359201630E-02   0.159142E-01   0.000000E+00   0.884621E+06  -0.144077E-20
   LPB:    2  -0.309742281027105E+00   0.272084712622071E-02   0.276772E-01   0.655636E-01   0.271085E+06  -0.371021E-17
   LPB:    3  -0.309503725627519E+00   0.497827330885233E-02   0.325932E-01   0.280171E+00   0.584350E+05  -0.623835E-17
   LPB:    4  -0.309404913491530E+00   0.142118483221452E-01   0.345165E-01   0.391129E+00   0.911464E+04  -0.290967E-16
   LPB:    5  -0.309362365744530E+00   0.329893102501033E-01   0.314376E-01   0.472764E+00   0.558897E+03  -0.312644E-16
   LPB:    6  -0.309343347191752E+00   0.220633993528358E-01   0.183886E-01   0.764190E+00   0.200465E+03  -0.524999E-16
   LPB:    7  -0.309325983374819E+00   0.502665471795046E-02   0.279603E-01   0.600447E+00   0.703611E+03  -0.305136E-16
   LPB:    8  -0.309314861072052E+00   0.387345031821762E-02   0.381445E-01   0.469525E+00   0.287248E+04  -0.207181E-16
   LPB:    9  -0.309308273688134E+00   0.763640597101515E-02   0.371378E-01   0.608323E+00   0.872634E+03  -0.235190E-16
   LPB:   10  -0.309304773388959E+00   0.792824787656041E-02   0.269884E-01   0.731193E+00   0.202126E+03  -0.499900E-17
   LPB:   11  -0.309302047104800E+00   0.366469678396249E-02   0.279990E-01   0.750757E+00   0.350144E+03   0.723514E-16
   LPB:   12  -0.309299925007275E+00   0.193263254697942E-02   0.363271E-01   0.599938E+00   0.930706E+03   0.205963E-15
   LPB:   13  -0.309298505582486E+00   0.189016900827165E-02   0.359313E-01   0.676245E+00   0.172133E+04   0.334921E-15
   LPB:   14  -0.309297542657504E+00   0.140315189892149E-02   0.328024E-01   0.743100E+00   0.125749E+04   0.437531E-15
  Finished solving LPB equations
  A_corr:   -0.215358157232547     
 End minimization
 Ecorr=   1753.18804356811     
 A_corr= -0.215358157232547     
 Ecorr_band=  -1753.40340172535     
 End Solvation calculations
DAV:   1    -0.178513143987E+03   -0.82833E-02   -0.50120E-01  3810   0.995E-01    0.532E-01
 Begin Solvation calculations
  rms_SCF =   1.802984534398989E-002 tol =   1.802984534398990E-003
 Begin minimization
 Creating dielectric and ionic cavities
  area:      178.966204895056     
  volume:    817.896746635988     
  Acav:     9.395725756990424E-002
  Solving linear dielectric/ionic screening model
        iter                  A_solv                     rms
   LPB:       -0.347442011555655E+00   0.240915357586674E+01
   LPB:    0  -0.342455366613609E+00   0.202866469551220E+01  -0.162150E-01   0.000000E+00   0.379320E+02  -0.615066E+00
   LPB:    1  -0.322508728102108E+00   0.311263524262131E+00   0.100182E-01   0.000000E+00   0.908200E+02   0.309156E-16
   LPB:    2  -0.320184314598081E+00   0.738253508709743E-01   0.137868E-01   0.846780E-01   0.305441E+03   0.219654E-14
   LPB:    3  -0.319706927968687E+00   0.713257483412228E-01   0.231249E-01   0.122444E+00   0.415143E+03   0.226948E-14
   LPB:    4  -0.319552661569304E+00   0.379481517719252E-01   0.200924E-01   0.371919E+00   0.154560E+03   0.224379E-14
   LPB:    5  -0.319467382114123E+00   0.152524810629157E-01   0.266903E-01   0.416153E+00   0.469375E+03   0.268957E-14
   LPB:    6  -0.319425214359580E+00   0.779923659388918E-02   0.319885E-01   0.412568E+00   0.425515E+03   0.285632E-14
   LPB:    7  -0.319403268882729E+00   0.530325706463848E-02   0.322621E-01   0.516020E+00   0.718980E+03   0.284642E-14
   LPB:    8  -0.319390484121291E+00   0.359491402653463E-02   0.336621E-01   0.558340E+00   0.666721E+03   0.283822E-14
   LPB:    9  -0.319382707344718E+00   0.277745465141277E-02   0.353029E-01   0.580012E+00   0.693736E+03   0.281905E-14
   LPB:   10  -0.319378112529341E+00   0.245450691826868E-02   0.345834E-01   0.603131E+00   0.701995E+03   0.281049E-14
   LPB:   11  -0.319375325836213E+00   0.220211574818736E-02   0.340674E-01   0.615673E+00   0.763122E+03   0.280935E-14
   LPB:   12  -0.319373478809400E+00   0.160774526249234E-02   0.341791E-01   0.660636E+00   0.624120E+03   0.280935E-14
  Finished solving LPB equations
  A_corr:   -0.225416221239496     
 End minimization
 Ecorr=   1753.35626849295     
 A_corr= -0.225416221239496     
 Ecorr_band=  -1753.58168471419     
 End Solvation calculations
RMM:   2    -0.178564640471E+03   -0.51496E-01   -0.36889E-02  3702   0.255E-01    0.264E+00
 Begin Solvation calculations
  rms_SCF =   1.802984534398989E-002 tol =   1.802984534398990E-003
 Begin minimization
 Creating dielectric and ionic cavities
  area:      184.126291865803     
  volume:    818.585576326317     
  Acav:     9.666630322954654E-002
  Solving linear dielectric/ionic screening model
        iter                  A_solv                     rms
   LPB:       -0.336893366062438E+00   0.235932690847534E+01
   LPB:    0  -0.335489490950382E+00   0.226416449309869E+01   0.860719E-02   0.000000E+00   0.378997E+02   0.326210E+00
   LPB:    1  -0.317445775937010E+00   0.207963606123358E+00   0.902638E-02   0.000000E+00   0.854985E+02  -0.245339E-16
   LPB:    2  -0.315872371519109E+00   0.564125654782381E-01   0.148655E-01   0.529480E-01   0.230349E+03  -0.222692E-14
   LPB:    3  -0.315628810458284E+00   0.474136510738985E-01   0.230301E-01   0.999197E-01   0.209390E+03  -0.182632E-14
   LPB:    4  -0.315549057224866E+00   0.281192714220193E-01   0.221861E-01   0.339903E+00   0.174686E+03  -0.151662E-14
   LPB:    5  -0.315504944201798E+00   0.123245729185396E-01   0.253086E-01   0.484876E+00   0.433547E+03  -0.147853E-14
   LPB:    6  -0.315479192387704E+00   0.721141834523404E-02   0.322198E-01   0.458550E+00   0.488430E+03  -0.166669E-14
   LPB:    7  -0.315464643385715E+00   0.509884362470951E-02   0.323784E-01   0.562202E+00   0.733053E+03  -0.199694E-14
   LPB:    8  -0.315455846186461E+00   0.285792819917481E-02   0.342506E-01   0.571609E+00   0.895435E+03  -0.223059E-14
   LPB:    9  -0.315450361739438E+00   0.209827730488357E-02   0.366241E-01   0.583029E+00   0.148651E+04  -0.237180E-14
   LPB:   10  -0.315447039083990E+00   0.210757895358556E-02   0.357796E-01   0.620131E+00   0.156679E+04  -0.244526E-14
   LPB:   11  -0.315444899857458E+00   0.198273416198870E-02   0.349226E-01   0.659631E+00   0.140881E+04  -0.249066E-14
   LPB:   12  -0.315443477910034E+00   0.147548432231640E-02   0.337673E-01   0.687443E+00   0.124747E+04  -0.252023E-14
  Finished solving LPB equations
  A_corr:   -0.218777174680487     
 End minimization
 Ecorr=   1752.49036825418     
 A_corr= -0.218777174680487     
 Ecorr_band=  -1752.70914542886     
 End Solvation calculations
RMM:   3    -0.178526627621E+03    0.38013E-01   -0.15583E-02  3706   0.217E-01    0.131E+00
 Begin Solvation calculations
  rms_SCF =   1.802984534398989E-002 tol =   1.802984534398990E-003
 Begin minimization
 Creating dielectric and ionic cavities
  area:      179.027297363751     
  volume:    818.563358365818     
  Acav:     9.398933111596937E-002
  Solving linear dielectric/ionic screening model
        iter                  A_solv                     rms
   LPB:       -0.317008720071511E+00   0.890088335676596E+00
   LPB:    0  -0.316947178818052E+00   0.877479866254553E+00   0.180208E-02   0.000000E+00   0.379007E+02   0.683002E-01
   LPB:    1  -0.314358458479088E+00   0.892946777812018E-01   0.890226E-02   0.000000E+00   0.843057E+02   0.289720E-17
   LPB:    2  -0.314095997391525E+00   0.130613320787893E-01   0.164787E-01   0.547720E-01   0.159705E+03   0.559059E-15
   LPB:    3  -0.314059789604411E+00   0.659889687119141E-02   0.236645E-01   0.960642E-01   0.399425E+03   0.686539E-15
   LPB:    4  -0.314044833549235E+00   0.913375372921648E-02   0.300910E-01   0.324845E+00   0.529455E+03   0.660604E-15
   LPB:    5  -0.314037386414057E+00   0.110336347569447E-01   0.285180E-01   0.525400E+00   0.227272E+03   0.654117E-15
   LPB:    6  -0.314032496884567E+00   0.695782217467052E-02   0.269234E-01   0.695451E+00   0.203625E+03   0.612700E-15
   LPB:    7  -0.314029032619693E+00   0.298653632671498E-02   0.304876E-01   0.625677E+00   0.464895E+03   0.412122E-15
   LPB:    8  -0.314026880435314E+00   0.148996143347561E-02   0.323211E-01   0.586011E+00   0.171660E+04   0.216632E-15
  Finished solving LPB equations
  A_corr:   -0.220037549319345     
 End minimization
 Ecorr=   1752.58875531626     
 A_corr= -0.220037549319345     
 Ecorr_band=  -1752.80879286558     
 End Solvation calculations
RMM:   4    -0.178511761627E+03    0.14866E-01   -0.40764E-03  3708   0.139E-01    0.210E-01
 Begin Solvation calculations
  rms_SCF =   1.802984534398989E-002 tol =   1.802984534398990E-003
 Begin minimization
 Creating dielectric and ionic cavities
  area:      178.869969272805     
  volume:    818.488290960283     
  Acav:     9.390673386822240E-002
  Solving linear dielectric/ionic screening model
        iter                  A_solv                     rms
   LPB:       -0.315777688992207E+00   0.220606064234712E+00
   LPB:    0  -0.315671170401335E+00   0.111269739488590E+00  -0.237074E-02   0.000000E+00   0.379043E+02  -0.898611E-01
   LPB:    1  -0.315505699956906E+00   0.283123591702575E-01   0.136163E-01   0.000000E+00   0.966842E+02   0.391608E-17
   LPB:    2  -0.315488270566833E+00   0.845193947054531E-02   0.153947E-01   0.931640E-01   0.240812E+03   0.235835E-15
   LPB:    3  -0.315483029509478E+00   0.302411467172175E-02   0.243539E-01   0.190081E+00   0.222247E+03   0.287397E-15
   LPB:    4  -0.315480541231847E+00   0.491740690479703E-02   0.321103E-01   0.360084E+00   0.656134E+03   0.304157E-15
   LPB:    5  -0.315479370866791E+00   0.759881121476794E-02   0.230658E-01   0.654786E+00   0.225466E+03   0.310606E-15
   LPB:    6  -0.315478354758095E+00   0.330538640838374E-02   0.237957E-01   0.841568E+00   0.150017E+03   0.313626E-15
   LPB:    7  -0.315477449020776E+00   0.126092021154471E-02   0.356281E-01   0.595343E+00   0.825998E+03   0.310721E-15
  Finished solving LPB equations
  A_corr:   -0.221570715152554     
 End minimization
 Ecorr=   1752.54316893816     
 A_corr= -0.221570715152554     
 Ecorr_band=  -1752.76473965331     
 End Solvation calculations
RMM:   5    -0.178511423911E+03    0.33772E-03   -0.92661E-04  3704   0.627E-02    0.183E-01
 Begin Solvation calculations
  rms_SCF =   1.802984534398989E-002 tol =   1.802984534398990E-003
 Begin minimization
 Creating dielectric and ionic cavities
  area:      178.842528017760     
  volume:    818.536790183070     
  Acav:     9.389232720932382E-002
  Solving linear dielectric/ionic screening model
        iter                  A_solv                     rms
   LPB:       -0.318368983734681E+00   0.227233026818110E+00
   LPB:    0  -0.318322925520102E+00   0.172745903282262E+00  -0.155897E-02   0.000000E+00   0.379020E+02  -0.590880E-01
   LPB:    1  -0.317854513392795E+00   0.768503941056064E-01   0.136403E-01   0.000000E+00   0.138201E+03  -0.889975E-18
   LPB:    2  -0.317807009696589E+00   0.170131444246063E-01   0.124436E-01   0.111167E+00   0.130384E+03  -0.452877E-15
   LPB:    3  -0.317791661729764E+00   0.763301122695507E-02   0.205959E-01   0.195205E+00   0.457158E+03  -0.508114E-15
   LPB:    4  -0.317787159232059E+00   0.705402211408852E-02   0.240823E-01   0.250891E+00   0.176563E+03  -0.516509E-15
   LPB:    5  -0.317785026392698E+00   0.529026424615627E-02   0.229411E-01   0.497265E+00   0.341025E+03  -0.543491E-15
   LPB:    6  -0.317783575712413E+00   0.212729130606616E-02   0.307000E-01   0.508266E+00   0.128471E+03  -0.560149E-15
[...]
   LPB:    2  -0.383166307876800E+00   0.211183887931626E-03   0.261825E-01   0.530245E-01   0.219381E+06  -0.246767E-18
   LPB:    3  -0.383163948910962E+00   0.294252865820191E-03   0.321883E-01   0.243114E+00   0.773275E+05   0.181916E-17
   LPB:    4  -0.383162944598165E+00   0.657202896231758E-03   0.354136E-01   0.386968E+00   0.180634E+05   0.461684E-18
   LPB:    5  -0.383162455847973E+00   0.157984559551611E-02   0.361384E-01   0.476891E+00   0.186605E+04  -0.549440E-18
   LPB:    6  -0.383162231888084E+00   0.270100461361823E-02   0.283252E-01   0.584629E+00   0.289908E+03  -0.546327E-17
   LPB:    7  -0.383162095099174E+00   0.142472693102779E-02   0.202298E-01   0.855187E+00   0.225178E+03  -0.404216E-17
   LPB:    8  -0.383161986866454E+00   0.126431791375887E-02   0.296126E-01   0.540534E+00   0.516547E+03  -0.979273E-17
   LPB:    9  -0.383161925895090E+00   0.113225149971658E-02   0.247894E-01   0.672943E+00   0.199467E+03  -0.155587E-16
   LPB:   10  -0.383161877564116E+00   0.383884370123568E-03   0.271005E-01   0.725083E+00   0.363999E+03  -0.134638E-16
   LPB:   11  -0.383161842626466E+00   0.122739426939379E-03   0.377014E-01   0.519624E+00   0.234351E+04  -0.173568E-19
  Finished solving LPB equations
  A_corr:   -0.287592404719785     
 End minimization
 Ecorr=   1734.86384947246     
 A_corr= -0.287592404719785     
 Ecorr_band=  -1735.15144187718     
 End Solvation calculations
DAV:   1    -0.178546746182E+03   -0.24255E-04   -0.49923E-03  3810   0.105E-01    0.428E-02
 Begin Solvation calculations
  rms_SCF =   1.341112520515906E-003 tol =   1.341112520515906E-004
 Begin minimization
 Creating dielectric and ionic cavities
  area:      182.036498508029     
  volume:    820.610079126954     
  Acav:     9.556916171671501E-002
  Solving linear dielectric/ionic screening model
        iter                  A_solv                     rms
   LPB:       -0.383911416453520E+00   0.121785114741543E+00
   LPB:    0  -0.383898175855579E+00   0.101125500789281E+00  -0.836942E-03   0.000000E+00   0.378048E+02  -0.316404E-01
   LPB:    1  -0.383845872223388E+00   0.171016869539098E-01   0.102322E-01   0.000000E+00   0.909355E+02  -0.986352E-18
   LPB:    2  -0.383838794537556E+00   0.474476848365990E-02   0.144728E-01   0.956703E-01   0.304614E+03  -0.137259E-15
   LPB:    3  -0.383837116198177E+00   0.428261337702413E-02   0.229544E-01   0.149511E+00   0.352939E+03  -0.186822E-15
   LPB:    4  -0.383836539857890E+00   0.235544359879668E-02   0.206637E-01   0.381466E+00   0.168371E+03  -0.193972E-15
   LPB:    5  -0.383836215523021E+00   0.906188793801585E-03   0.266597E-01   0.436183E+00   0.428576E+03  -0.206507E-15
   LPB:    6  -0.383836046876028E+00   0.459634218158152E-03   0.331051E-01   0.418740E+00   0.529248E+03  -0.226651E-15
   LPB:    7  -0.383835958246608E+00   0.332946663324678E-03   0.330166E-01   0.526941E+00   0.791136E+03  -0.240613E-15
   LPB:    8  -0.383835906305662E+00   0.242427527706649E-03   0.334072E-01   0.579194E+00   0.773735E+03  -0.248624E-15
   LPB:    9  -0.383835873991007E+00   0.189887569425235E-03   0.352931E-01   0.588897E+00   0.831994E+03  -0.254441E-15
   LPB:   10  -0.383835853725516E+00   0.166941460358628E-03   0.352969E-01   0.627063E+00   0.845830E+03  -0.258238E-15
   LPB:   11  -0.383835841047968E+00   0.143606102517975E-03   0.341708E-01   0.646188E+00   0.951636E+03  -0.260558E-15
   LPB:   12  -0.383835832515131E+00   0.106528232866906E-03   0.349095E-01   0.658826E+00   0.811625E+03  -0.261841E-15
  Finished solving LPB equations
  A_corr:   -0.288266670798417     
 End minimization
 Ecorr=   1734.86227328479     
 A_corr= -0.288266670798417     
 Ecorr_band=  -1735.15053995559     
 End Solvation calculations
RMM:   2    -0.178547008701E+03   -0.26252E-03   -0.31616E-04  3404   0.258E-02    0.198E-01
 Begin Solvation calculations
  rms_SCF =   1.341112520515906E-003 tol =   1.341112520515906E-004
 Begin minimization
 Creating dielectric and ionic cavities
  area:      182.043158931068     
  volume:    820.653995598182     
  Acav:     9.557265843881071E-002
  Solving linear dielectric/ionic screening model
        iter                  A_solv                     rms
   LPB:       -0.383475545540827E+00   0.139567586183746E+00
   LPB:    0  -0.383466933060263E+00   0.128846467434690E+00   0.675021E-03   0.000000E+00   0.378027E+02   0.255177E-01
   LPB:    1  -0.383402014384388E+00   0.133654880968420E-01   0.935084E-02   0.000000E+00   0.872175E+02  -0.294272E-18
   LPB:    2  -0.383395566223761E+00   0.381316290608739E-02   0.145452E-01   0.638552E-01   0.283167E+03  -0.724527E-16
   LPB:    3  -0.383394339510362E+00   0.356104575629001E-02   0.237428E-01   0.116546E+00   0.275984E+03  -0.111530E-15
   LPB:    4  -0.383393932529721E+00   0.194157767990321E-02   0.212665E-01   0.370396E+00   0.165255E+03  -0.961821E-16
   LPB:    5  -0.383393701195386E+00   0.794896608987855E-03   0.263363E-01   0.458995E+00   0.515052E+03  -0.993782E-16
   LPB:    6  -0.383393568764356E+00   0.469955139795759E-03   0.332024E-01   0.454083E+00   0.509286E+03  -0.955696E-16
   LPB:    7  -0.383393491919341E+00   0.356367039133311E-03   0.333200E-01   0.578216E+00   0.780702E+03  -0.925210E-16
   LPB:    8  -0.383393445372305E+00   0.219022278334946E-03   0.340874E-01   0.592090E+00   0.846620E+03  -0.892818E-16
   LPB:    9  -0.383393415762710E+00   0.163619568477389E-03   0.364716E-01   0.594538E+00   0.122182E+04  -0.870429E-16
   LPB:   10  -0.383393396921526E+00   0.156995358757213E-03   0.360071E-01   0.644529E+00   0.141559E+04  -0.865410E-16
   LPB:   11  -0.383393385355819E+00   0.141297319842392E-03   0.340666E-01   0.648817E+00   0.139790E+04  -0.861652E-16
   LPB:   12  -0.383393377663130E+00   0.107769946611294E-03   0.343806E-01   0.659055E+00   0.123076E+04  -0.859109E-16
  Finished solving LPB equations
  A_corr:   -0.287820719224319     
 End minimization
 Ecorr=   1734.83801952060     
 A_corr= -0.287820719224319     
 Ecorr_band=  -1735.12584023983     
 End Solvation calculations
RMM:   3    -0.178546800588E+03    0.20811E-03   -0.85612E-05  2786   0.187E-02    0.761E-02
 Begin Solvation calculations
  rms_SCF =   1.341112520515906E-003 tol =   1.341112520515906E-004
 Begin minimization
 Creating dielectric and ionic cavities
  area:      182.037005979623     
  volume:    820.651772039753     
  Acav:     9.556942813930186E-002
  Solving linear dielectric/ionic screening model
        iter                  A_solv                     rms
   LPB:       -0.383334346476037E+00   0.634985447830598E-01
   LPB:    0  -0.383334342132944E+00   0.634710587243055E-01   0.151584E-04   0.000000E+00   0.378028E+02   0.573029E-03
   LPB:    1  -0.383320658288070E+00   0.614646658606275E-02   0.891669E-02   0.000000E+00   0.853607E+02  -0.127874E-20
   LPB:    2  -0.383319354873479E+00   0.108048691911004E-02   0.160778E-01   0.528265E-01   0.180573E+03  -0.139703E-16
   LPB:    3  -0.383319160125552E+00   0.585293671927102E-03   0.242380E-01   0.991107E-01   0.274055E+03  -0.156351E-16
   LPB:    4  -0.383319076553594E+00   0.432762096517831E-03   0.324209E-01   0.320818E+00   0.595433E+03  -0.208052E-16
   LPB:    5  -0.383319033208584E+00   0.552029264842016E-03   0.321985E-01   0.522239E+00   0.630662E+03  -0.291267E-16
   LPB:    6  -0.383319006644976E+00   0.558170575936792E-03   0.284889E-01   0.692641E+00   0.287382E+03  -0.271319E-16
   LPB:    7  -0.383318989372948E+00   0.396366883058554E-03   0.274046E-01   0.675941E+00   0.306876E+03  -0.295261E-16
   LPB:    8  -0.383318978189769E+00   0.188288544509928E-03   0.292976E-01   0.605637E+00   0.381249E+03  -0.277932E-16
   LPB:    9  -0.383318970669367E+00   0.898541434250828E-04   0.351752E-01   0.560107E+00   0.139933E+04  -0.257929E-16
  Finished solving LPB equations
  A_corr:   -0.287749542530065     
 End minimization
 Ecorr=   1734.85802481712     
 A_corr= -0.287749542530065     
 Ecorr_band=  -1735.14577435965     
 End Solvation calculations
RMM:   4    -0.178546755196E+03    0.45392E-04   -0.22046E-05  2204   0.135E-02    0.301E-02
 Begin Solvation calculations
  rms_SCF =   1.341112520515906E-003 tol =   1.341112520515906E-004
 Begin minimization
 Creating dielectric and ionic cavities
  area:      182.037697227584     
  volume:    820.643688279229     
  Acav:     9.556979104448173E-002
  Solving linear dielectric/ionic screening model
        iter                  A_solv                     rms
   LPB:       -0.383426839975513E+00   0.212220345837868E-01
   LPB:    0  -0.383426282811082E+00   0.162972403056801E-01  -0.171689E-03   0.000000E+00   0.378032E+02  -0.649039E-02
   LPB:    1  -0.383425152165587E+00   0.254028721256628E-02   0.100350E-01   0.000000E+00   0.757637E+02  -0.475761E-18
   LPB:    2  -0.383424970197996E+00   0.850271153417891E-03   0.156662E-01   0.103091E+00   0.164550E+03  -0.633182E-17
   LPB:    3  -0.383424946180183E+00   0.608313689984868E-03   0.187978E-01   0.110001E+00   0.175668E+03  -0.884084E-17
   LPB:    4  -0.383424935030954E+00   0.232579477827357E-03   0.225649E-01   0.386710E+00   0.179171E+03  -0.997696E-17
   LPB:    5  -0.383424928405729E+00   0.111239275597257E-03   0.321934E-01   0.416507E+00   0.487660E+03  -0.837334E-17
  Finished solving LPB equations
  A_corr:   -0.287855137361248     
 End minimization
 Ecorr=   1734.86502725951     
 A_corr= -0.287855137361248     
 Ecorr_band=  -1735.15288239687     
 End Solvation calculations
RMM:   5    -0.178546752011E+03    0.31852E-05   -0.92104E-06  2028   0.606E-03
 Begin Solvation calculations
  rms_SCF =   1.341112520515906E-003 tol =   1.341112520515906E-004
 Begin minimization
 Creating dielectric and ionic cavities
  area:      182.036628038302     
  volume:    820.648122875452     
  Acav:     9.556922972010840E-002
  Solving linear dielectric/ionic screening model
        iter                  A_solv                     rms
   LPB:       -0.383478565199287E+00   0.394996084114495E-02
   LPB:    0  -0.383478547668029E+00   0.389289259984960E-02   0.304550E-04   0.000000E+00   0.378030E+02   0.115129E-02
   LPB:    1  -0.383478350275221E+00   0.196629636813761E-02   0.125648E-01   0.000000E+00   0.163227E+03  -0.201530E-19
   LPB:    2  -0.383478313030580E+00   0.271948771702593E-03   0.135267E-01   0.175265E+00   0.154597E+03  -0.115984E-19
   LPB:    3  -0.383478301973632E+00   0.175402407942261E-03   0.261122E-01   0.153787E+00   0.426414E+03  -0.269219E-17
   LPB:    4  -0.383478296291585E+00   0.249500510072063E-03   0.318517E-01   0.421290E+00   0.563739E+03  -0.361598E-17
   LPB:    5  -0.383478293029070E+00   0.236220199837477E-03   0.277143E-01   0.659898E+00   0.114576E+03  -0.406757E-17
   LPB:    6  -0.383478290615742E+00   0.129338205737028E-03   0.287694E-01   0.712584E+00   0.328162E+03  -0.410067E-17
  Finished solving LPB equations
  A_corr:   -0.287909060895633     
 End minimization
 Ecorr=   1734.83717371751     
 A_corr= -0.287909060895633     
 Ecorr_band=  -1735.12508277840     
 End Solvation calculations
 239 F= -.17854675E+03 E0= -.17852741E+03  d E =-.340039E-04
quench:  g(F)=  0.000E+00 g(S)=  0.000E+00 dE (1.order)= 0.000E+00
 bond charge predicted
       N       E                     dE             d eps       ncg     rms          rms(c)
 Begin Solvation calculations
  rms_SCF =   1.341112520515906E-003 tol =   1.341112520515906E-004
 Begin minimization
 Creating dielectric and ionic cavities
  area:      182.047189742739     
  volume:    820.654743972855     
  Acav:     9.557477461493794E-002
  Solving linear dielectric/ionic screening model
        iter                  A_solv                     rms
   LPB:       -0.383565267780641E+00   0.931515864436860E-03
   LPB:    0  -0.383565267775417E+00   0.937846134052541E-03   0.525706E-06   0.000000E+00   0.378027E+02   0.198731E-04
   LPB:    1  -0.383489613836334E+00   0.434434130682593E-03   0.153077E-01   0.000000E+00   0.681232E+06   0.607858E-21
   LPB:    2  -0.383483425037981E+00   0.405593610531940E-03   0.258018E-01   0.485328E-01   0.796467E+05   0.439378E-18
   LPB:    3  -0.383481639636396E+00   0.749327337612600E-03   0.316796E-01   0.234963E+00   0.208202E+05  -0.279506E-18
   LPB:    4  -0.383480900630927E+00   0.159938337089437E-02   0.343413E-01   0.381835E+00   0.219790E+04  -0.933135E-18
   LPB:    5  -0.383480572762659E+00   0.265726441557567E-02   0.297048E-01   0.512911E+00   0.330177E+03   0.130437E-16
   LPB:    6  -0.383480395582848E+00   0.170884031706413E-02   0.214105E-01   0.749746E+00   0.209231E+03   0.488132E-16
   LPB:    7  -0.383480263703469E+00   0.153585881182155E-02   0.278002E-01   0.573247E+00   0.464872E+03   0.572390E-16
   LPB:    8  -0.383480191754262E+00   0.139919641557428E-02   0.230501E-01   0.657997E+00   0.204030E+03   0.682801E-16
   LPB:    9  -0.383480132600317E+00   0.435452557397475E-03   0.257455E-01   0.736088E+00   0.374210E+03   0.732371E-16
   LPB:   10  -0.383480089010859E+00   0.122585715506041E-03   0.382908E-01   0.495456E+00   0.231593E+04   0.731698E-16
  Finished solving LPB equations
  A_corr:   -0.287905314395921     
 End minimization
 Ecorr=   1734.83805928187     
 A_corr= -0.287905314395921     
 Ecorr_band=  -1735.12596459626     
 End Solvation calculations
DAV:   1    -0.178546764984E+03   -0.97886E-05   -0.46370E-03  3696   0.106E-01    0.209E-02
 Begin Solvation calculations
  rms_SCF =   1.341112520515906E-003 tol =   1.341112520515906E-004
 Begin minimization
 Creating dielectric and ionic cavities
  area:      182.047197871627     
  volume:    820.640906310103     
  Acav:     9.557477888260409E-002
  Solving linear dielectric/ionic screening model
        iter                  A_solv                     rms
   LPB:       -0.383698019204435E+00   0.298139808305837E-01
   LPB:    0  -0.383696283982759E+00   0.175032859290043E-01  -0.302989E-03   0.000000E+00   0.378033E+02  -0.114540E-01
   LPB:    1  -0.383694093434110E+00   0.383405828942037E-02   0.119693E-01   0.000000E+00   0.757678E+02   0.341397E-18
   LPB:    2  -0.383693744342086E+00   0.172983676414389E-02   0.145633E-01   0.130977E+00   0.278800E+03  -0.327385E-17
   LPB:    3  -0.383693670099569E+00   0.135845014687733E-02   0.194527E-01   0.159218E+00   0.146193E+03  -0.347404E-17
   LPB:    4  -0.383693632063761E+00   0.419147765981939E-03   0.214172E-01   0.465327E+00   0.187840E+03  -0.104477E-18
   LPB:    5  -0.383693609061847E+00   0.199792444582013E-03   0.305267E-01   0.424282E+00   0.710482E+03   0.205577E-17
   LPB:    6  -0.383693593791541E+00   0.117389414911191E-03   0.368793E-01   0.549516E+00   0.541172E+03   0.388097E-17
  Finished solving LPB equations
  A_corr:   -0.288118814908937     
 End minimization
 Ecorr=   1734.84543974292     
 A_corr= -0.288118814908937     
 Ecorr_band=  -1735.13355855783     
 End Solvation calculations
RMM:   2    -0.178546795749E+03   -0.30764E-04   -0.13342E-04  2653   0.185E-02    0.515E-02
 Begin Solvation calculations
  rms_SCF =   1.341112520515906E-003 tol =   1.341112520515906E-004
 Begin minimization
 Creating dielectric and ionic cavities
  area:      182.045422376900     
  volume:    820.654276844914     
  Acav:     9.557384674787256E-002
  Solving linear dielectric/ionic screening model
        iter                  A_solv                     rms
   LPB:       -0.383578372439793E+00   0.342268205688886E-01
   LPB:    0  -0.383577505244881E+00   0.299590370365875E-01   0.214196E-03   0.000000E+00   0.378027E+02   0.809720E-02
   LPB:    1  -0.383574317054656E+00   0.347001812267912E-02   0.909866E-02   0.000000E+00   0.820072E+02   0.195714E-18
   LPB:    2  -0.383573935929866E+00   0.922354417626127E-03   0.169356E-01   0.642243E-01   0.140567E+03  -0.143139E-16
   LPB:    3  -0.383573884796088E+00   0.810175994405627E-03   0.207082E-01   0.109723E+00   0.236477E+03  -0.305665E-16
   LPB:    4  -0.383573862391089E+00   0.396841199060917E-03   0.217084E-01   0.417977E+00   0.201478E+03  -0.342635E-16
   LPB:    5  -0.383573852330495E+00   0.190307256546519E-03   0.272438E-01   0.357797E+00   0.330416E+03  -0.284627E-16
   LPB:    6  -0.383573846468223E+00   0.114363740074356E-03   0.327548E-01   0.484658E+00   0.798050E+03  -0.212993E-16
  Finished solving LPB equations
  A_corr:   -0.287999999720351     
 End minimization
 Ecorr=   1734.82684405052     
 A_corr= -0.287999999720351     
 Ecorr_band=  -1735.11484405024     
 End Solvation calculations
RMM:   3    -0.178546782830E+03    0.12919E-04   -0.17569E-05  2108   0.914E-03    0.310E-02
 Begin Solvation calculations
  rms_SCF =   1.341112520515906E-003 tol =   1.341112520515906E-004
 Begin minimization
 Creating dielectric and ionic cavities
  area:      182.045407593837     
  volume:    820.659359689131     
  Acav:     9.557383898676415E-002
  Solving linear dielectric/ionic screening model
        iter                  A_solv                     rms
   LPB:       -0.383603065959695E+00   0.392420841283743E-01
   LPB:    0  -0.383603029520113E+00   0.391603807045011E-01   0.439078E-04   0.000000E+00   0.378025E+02   0.165982E-02
   LPB:    1  -0.383598045474909E+00   0.386474763782815E-02   0.886643E-02   0.000000E+00   0.826835E+02   0.255448E-19
   LPB:    2  -0.383597594542278E+00   0.777075309969373E-03   0.160175E-01   0.500822E-01   0.154576E+03  -0.600066E-18
   LPB:    3  -0.383597541455417E+00   0.492466986436168E-03   0.222038E-01   0.849267E-01   0.192304E+03  -0.111963E-17
   LPB:    4  -0.383597525226372E+00   0.370230756463119E-03   0.251521E-01   0.269872E+00   0.237464E+03  -0.478334E-17
   LPB:    5  -0.383597518495591E+00   0.242704714653383E-03   0.235714E-01   0.442549E+00   0.217417E+03  -0.698695E-17
   LPB:    6  -0.383597514115183E+00   0.139475004986004E-03   0.289036E-01   0.530741E+00   0.345005E+03  -0.623314E-17
   LPB:    7  -0.383597510828094E+00   0.943709009720683E-04   0.354382E-01   0.612037E+00   0.390767E+03  -0.422049E-17
  Finished solving LPB equations
  A_corr:   -0.288023671841330     
 End minimization
 Ecorr=   1734.80288847383     
 A_corr= -0.288023671841330     
 Ecorr_band=  -1735.09091214567     
 End Solvation calculations
RMM:   4    -0.178546784780E+03   -0.19504E-05   -0.59853E-06  1974   0.489E-03
 Begin Solvation calculations
  rms_SCF =   1.341112520515906E-003 tol =   1.341112520515906E-004
 Begin minimization
 Creating dielectric and ionic cavities
  area:      182.048443566616     
  volume:    820.654418900865     
  Acav:     9.557543287247326E-002
  Solving linear dielectric/ionic screening model
        iter                  A_solv                     rms
   LPB:       -0.383723128306860E+00   0.288313735865199E-01
   LPB:    0  -0.383722708587678E+00   0.260355429184525E-01  -0.149016E-03   0.000000E+00   0.378027E+02  -0.563321E-02
   LPB:    1  -0.383719859758011E+00   0.306064333767045E-02   0.937866E-02   0.000000E+00   0.917572E+02  -0.328531E-18
   LPB:    2  -0.383719604275463E+00   0.617377420559265E-03   0.138070E-01   0.609168E-01   0.250619E+03   0.209990E-16
   LPB:    3  -0.383719560908746E+00   0.654916630263041E-03   0.237736E-01   0.985824E-01   0.519531E+03   0.198137E-16
   LPB:    4  -0.383719546297910E+00   0.364645652914040E-03   0.209417E-01   0.382474E+00   0.141688E+03   0.239785E-16
   LPB:    5  -0.383719538285344E+00   0.167629889461180E-03   0.263534E-01   0.435784E+00   0.570262E+03   0.301340E-16
   LPB:    6  -0.383719533845869E+00   0.853922443762832E-04   0.326797E-01   0.446806E+00   0.339829E+03   0.329410E-16
  Finished solving LPB equations
  A_corr:   -0.288144100973396     
 End minimization
 Ecorr=   1734.79521968167     
 A_corr= -0.288144100973396     
 Ecorr_band=  -1735.08336378264     
 End Solvation calculations
 240 F= -.17854678E+03 E0= -.17852743E+03  d E =-.327693E-04
quench:  g(F)=  0.000E+00 g(S)=  0.000E+00 dE (1.order)= 0.000E+00
 reached required accuracy - stopping structural energy minimisation
