 vasp.5.4.4.18Apr17-6-g9f103f2a35 (build Feb 06 2024 13:54:16) complex          
  
 POSCAR found type information on POSCAR  Pd N  O 
 05/POSCAR found :  3 types and      40 ions
 scaLAPACK will be used

 ----------------------------------------------------------------------------- 
|                                                                             |
|  ADVICE TO THIS USER RUNNING 'VASP/VAMP'   (HEAR YOUR MASTER'S VOICE ...):  |
|                                                                             |
|      You enforced a specific xc-type in the INCAR file,                     |
|      a different type was found on the POTCAR file                          |
|          I HOPE YOU KNOW, WHAT YOU ARE  DOING                               |
|                                                                             |
 ----------------------------------------------------------------------------- 

 LDA part: xc-table for Pade appr. of Perdew
 POSCAR found type information on POSCAR  Pd N  O 
 00/POSCAR found :  3 types and      40 ions
 POSCAR found type information on POSCAR  Pd N  O 
 06/POSCAR found :  3 types and      40 ions
 Jacobian:    21.0960049830057     
 POSCAR, INCAR and KPOINTS ok, starting setup
 FFT: planning ...
 WAVECAR not read
 entering main loop
       N       E                     dE             d eps       ncg     rms          rms(c)
DAV:   1     0.203063651731E+04    0.20306E+04   -0.13219E+05  2790   0.932E+02
DAV:   2    -0.431769812607E+02   -0.20738E+04   -0.19413E+04  3177   0.257E+02
DAV:   3    -0.184630426710E+03   -0.14145E+03   -0.12738E+03  3168   0.617E+01
DAV:   4    -0.189856164728E+03   -0.52257E+01   -0.49719E+01  3231   0.121E+01
DAV:   5    -0.190056229106E+03   -0.20006E+00   -0.19755E+00  3258   0.242E+00    0.356E+01
RMM:   6    -0.188800385834E+03    0.12558E+01   -0.32420E+01  2778   0.118E+01    0.294E+01
RMM:   7    -0.280733555172E+03   -0.91933E+02   -0.42911E+01  2794   0.939E+00    0.677E+01
RMM:   8    -0.204442775257E+03    0.76291E+02   -0.28778E+01  2777   0.879E+00    0.412E+01
RMM:   9    -0.184670501156E+03    0.19772E+02   -0.19178E+01  2778   0.811E+00    0.168E+01
RMM:  10    -0.185541153855E+03   -0.87065E+00   -0.11047E+01  2777   0.615E+00    0.174E+01
RMM:  11    -0.183140446426E+03    0.24007E+01   -0.41708E+00  2779   0.386E+00    0.125E+01
RMM:  12    -0.182007729824E+03    0.11327E+01   -0.17770E+00  2779   0.253E+00    0.687E+00
RMM:  13    -0.181874455046E+03    0.13327E+00   -0.67187E-01  2781   0.150E+00    0.624E+00
RMM:  14    -0.181733179575E+03    0.14128E+00   -0.32447E-01  2779   0.108E+00    0.467E+00
RMM:  15    -0.181661213798E+03    0.71966E-01   -0.20909E-01  2780   0.868E-01    0.354E+00
RMM:  16    -0.181600254367E+03    0.60959E-01   -0.87256E-02  2780   0.568E-01    0.232E+00
RMM:  17    -0.181581535744E+03    0.18719E-01   -0.32639E-02  2777   0.344E-01    0.182E+00
RMM:  18    -0.181568839635E+03    0.12696E-01   -0.23531E-02  2782   0.282E-01    0.122E+00
RMM:  19    -0.181564131461E+03    0.47082E-02   -0.22304E-02  2780   0.280E-01    0.107E+00
RMM:  20    -0.181554911700E+03    0.92198E-02   -0.99388E-03  2771   0.189E-01    0.466E-01
RMM:  21    -0.181553517185E+03    0.13945E-02   -0.21575E-03  2756   0.880E-02    0.356E-01
RMM:  22    -0.181552522404E+03    0.99478E-03   -0.10710E-03  2734   0.630E-02    0.253E-01
RMM:  23    -0.181552425362E+03    0.97042E-04   -0.90379E-04  2715   0.577E-02
   1 F= -.18155243E+03 E0= -.18155178E+03  d E =-.181552E+03
quench:  g(F)=  0.000E+00 g(S)=  0.000E+00 dE (1.order)= 0.000E+00
 bond charge predicted
       N       E                     dE             d eps       ncg     rms          rms(c)
DAV:   1    -0.181556092254E+03   -0.35699E-02   -0.61645E-02  2865   0.452E-01    0.440E-01
RMM:   2    -0.182241806058E+03   -0.68571E+00   -0.76038E-02  2778   0.440E-01    0.956E+00
RMM:   3    -0.181556993387E+03    0.68481E+00   -0.57233E-02  2781   0.431E-01    0.843E-01
RMM:   4    -0.181555666223E+03    0.13272E-02   -0.90165E-03  2772   0.244E-01    0.306E-01
RMM:   5    -0.181555979685E+03   -0.31346E-03   -0.14001E-03  2771   0.743E-02    0.342E-01
RMM:   6    -0.181555463417E+03    0.51627E-03   -0.55772E-04  2421   0.474E-02    0.209E-01
RMM:   7    -0.181555558101E+03   -0.94684E-04   -0.14724E-04  1549   0.265E-02
   2 F= -.18155556E+03 E0= -.18155474E+03  d E =-.313274E-02
quench:  g(F)=  0.000E+00 g(S)=  0.000E+00 dE (1.order)= 0.000E+00
 bond charge predicted
       N       E                     dE             d eps       ncg     rms          rms(c)
DAV:   1    -0.181560280531E+03   -0.48171E-02   -0.18687E-01  2916   0.753E-01    0.270E-01
RMM:   2    -0.181735897727E+03   -0.17562E+00   -0.24823E-02  2778   0.262E-01    0.509E+00
RMM:   3    -0.181562053294E+03    0.17384E+00   -0.15934E-02  2777   0.240E-01    0.474E-01
RMM:   4    -0.181561411747E+03    0.64155E-03   -0.32415E-03  2774   0.151E-01    0.269E-01
RMM:   5    -0.181561335066E+03    0.76682E-04   -0.66387E-04  2645   0.507E-02
   3 F= -.18156134E+03 E0= -.18156038E+03  d E =-.577696E-02
quench:  g(F)=  0.000E+00 g(S)=  0.000E+00 dE (1.order)= 0.000E+00
 bond charge predicted
       N       E                     dE             d eps       ncg     rms          rms(c)
DAV:   1    -0.181564992884E+03   -0.35811E-02   -0.26061E-01  2814   0.994E-01    0.258E-01
RMM:   2    -0.181661445955E+03   -0.96453E-01   -0.19632E-02  2788   0.247E-01    0.377E+00
RMM:   3    -0.181568153366E+03    0.93293E-01   -0.92514E-03  2781   0.184E-01    0.686E-01
RMM:   4    -0.181565610808E+03    0.25426E-02   -0.30264E-03  2758   0.133E-01    0.195E-01
RMM:   5    -0.181566171417E+03   -0.56061E-03   -0.74731E-04  2666   0.556E-02    0.238E-01
RMM:   6    -0.181565940170E+03    0.23125E-03   -0.31730E-04  1777   0.371E-02    0.128E-01
RMM:   7    -0.181566177501E+03   -0.23733E-03   -0.13558E-04  1537   0.242E-02    0.130E-01
RMM:   8    -0.181566223375E+03   -0.45874E-04   -0.80166E-05  1506   0.198E-02
   4 F= -.18156622E+03 E0= -.18156536E+03  d E =-.488831E-02
quench:  g(F)=  0.000E+00 g(S)=  0.000E+00 dE (1.order)= 0.000E+00
 bond charge predicted
       N       E                     dE             d eps       ncg     rms          rms(c)
DAV:   1    -0.181569482841E+03   -0.33053E-02   -0.30124E-01  2820   0.109E+00    0.182E-01
RMM:   2    -0.181600723183E+03   -0.31240E-01   -0.11682E-02  2799   0.186E-01    0.213E+00
RMM:   3    -0.181569621844E+03    0.31101E-01   -0.28569E-03  2773   0.105E-01    0.209E-01
RMM:   4    -0.181570504419E+03   -0.88258E-03   -0.12777E-03  2757   0.808E-02    0.247E-01
RMM:   5    -0.181570269811E+03    0.23461E-03   -0.44508E-04  2112   0.424E-02    0.141E-01
RMM:   6    -0.181570243205E+03    0.26606E-04   -0.21048E-04  1570   0.310E-02
   5 F= -.18157024E+03 E0= -.18156941E+03  d E =-.401983E-02
quench:  g(F)=  0.000E+00 g(S)=  0.000E+00 dE (1.order)= 0.000E+00
 bond charge predicted
       N       E                     dE             d eps       ncg     rms          rms(c)
DAV:   1    -0.181572848925E+03   -0.25791E-02   -0.36277E-01  2808   0.120E+00    0.198E-01
RMM:   2    -0.181584443505E+03   -0.11595E-01   -0.11417E-02  2800   0.188E-01    0.124E+00
RMM:   3    -0.181573856869E+03    0.10587E-01   -0.14551E-03  2756   0.720E-02    0.338E-01
RMM:   4    -0.181574058717E+03   -0.20185E-03   -0.13980E-03  2733   0.761E-02    0.292E-01
RMM:   5    -0.181573709277E+03    0.34944E-03   -0.42977E-04  2063   0.428E-02    0.148E-01
RMM:   6    -0.181573700976E+03    0.83016E-05   -0.25763E-04  1614   0.341E-02
   6 F= -.18157370E+03 E0= -.18157272E+03  d E =-.345777E-02
quench:  g(F)=  0.000E+00 g(S)=  0.000E+00 dE (1.order)= 0.000E+00
 bond charge predicted
       N       E                     dE             d eps       ncg     rms          rms(c)
DAV:   1    -0.181575566590E+03   -0.18573E-02   -0.39893E-01  2796   0.126E+00    0.213E-01
RMM:   2    -0.181578784879E+03   -0.32183E-02   -0.12498E-02  2795   0.200E-01    0.578E-01
RMM:   3    -0.181580721968E+03   -0.19371E-02   -0.16242E-03  2783   0.721E-02    0.834E-01
RMM:   4    -0.181577003087E+03    0.37189E-02   -0.12183E-03  2728   0.670E-02    0.383E-01
RMM:   5    -0.181576583863E+03    0.41922E-03   -0.81912E-04  2731   0.601E-02    0.205E-01
RMM:   6    -0.181576392669E+03    0.19119E-03   -0.36649E-04  1948   0.395E-02    0.115E-01
RMM:   7    -0.181576419671E+03   -0.27002E-04   -0.18021E-04  1536   0.282E-02
   7 F= -.18157642E+03 E0= -.18157547E+03  d E =-.271870E-02
quench:  g(F)=  0.000E+00 g(S)=  0.000E+00 dE (1.order)= 0.000E+00
 bond charge predicted
       N       E                     dE             d eps       ncg     rms          rms(c)
DAV:   1    -0.181577403348E+03   -0.10107E-02   -0.36066E-01  2796   0.117E+00    0.178E-01
RMM:   2    -0.181580316333E+03   -0.29130E-02   -0.10472E-02  2793   0.176E-01    0.565E-01
RMM:   3    -0.181579619733E+03    0.69660E-03   -0.89558E-04  2689   0.536E-02    0.519E-01
RMM:   4    -0.181578277956E+03    0.13418E-02   -0.82464E-04  2724   0.581E-02    0.194E-01
RMM:   5    -0.181578409487E+03   -0.13153E-03   -0.47093E-04  2158   0.435E-02    0.206E-01
RMM:   6    -0.181578153214E+03    0.25627E-03   -0.26620E-04  1611   0.346E-02    0.962E-02
RMM:   7    -0.181578223523E+03   -0.70309E-04   -0.12376E-04  1507   0.238E-02
   8 F= -.18157822E+03 E0= -.18157732E+03  d E =-.180385E-02
quench:  g(F)=  0.000E+00 g(S)=  0.000E+00 dE (1.order)= 0.000E+00
 bond charge predicted
       N       E                     dE             d eps       ncg     rms          rms(c)
DAV:   1    -0.181578770980E+03   -0.61777E-03   -0.14628E-01  2844   0.701E-01    0.132E-01
RMM:   2    -0.181579860015E+03   -0.10890E-02   -0.62484E-03  2780   0.121E-01    0.323E-01
RMM:   3    -0.181580709927E+03   -0.84991E-03   -0.50601E-04  2143   0.390E-02    0.501E-01
RMM:   4    -0.181579312005E+03    0.13979E-02   -0.50405E-04  2287   0.447E-02    0.223E-01
RMM:   5    -0.181579094633E+03    0.21737E-03   -0.26754E-04  1637   0.362E-02    0.881E-02
RMM:   6    -0.181579168183E+03   -0.73550E-04   -0.16024E-04  1536   0.273E-02
   9 F= -.18157917E+03 E0= -.18157834E+03  d E =-.944661E-03
quench:  g(F)=  0.000E+00 g(S)=  0.000E+00 dE (1.order)= 0.000E+00
 bond charge predicted
       N       E                     dE             d eps       ncg     rms          rms(c)
DAV:   1    -0.181579578048E+03   -0.48341E-03   -0.45738E-02  2796   0.405E-01    0.948E-02
RMM:   2    -0.181582669486E+03   -0.30914E-02   -0.23063E-03  2776   0.893E-02    0.661E-01
RMM:   3    -0.181580719645E+03    0.19498E-02   -0.59885E-04  2446   0.456E-02    0.431E-01
RMM:   4    -0.181579629338E+03    0.10903E-02   -0.40282E-04  2000   0.441E-02    0.794E-02
RMM:   5    -0.181579703239E+03   -0.73901E-04   -0.11850E-04  1509   0.241E-02
  10 F= -.18157970E+03 E0= -.18157886E+03  d E =-.535055E-03
quench:  g(F)=  0.000E+00 g(S)=  0.000E+00 dE (1.order)= 0.000E+00
 bond charge predicted
       N       E                     dE             d eps       ncg     rms          rms(c)
DAV:   1    -0.181580050648E+03   -0.42131E-03   -0.58164E-02  2796   0.471E-01    0.851E-02
RMM:   2    -0.181580963961E+03   -0.91331E-03   -0.18083E-03  2762   0.778E-02    0.336E-01
RMM:   3    -0.181581011976E+03   -0.48015E-04   -0.29576E-04  1726   0.323E-02
  11 F= -.18158101E+03 E0= -.18158009E+03  d E =-.130874E-02
quench:  g(F)=  0.000E+00 g(S)=  0.000E+00 dE (1.order)= 0.000E+00
 bond charge predicted
       N       E                     dE             d eps       ncg     rms          rms(c)
DAV:   1    -0.181580379391E+03    0.58457E-03   -0.84691E-02  2796   0.581E-01    0.124E-01
RMM:   2    -0.181583277392E+03   -0.28980E-02   -0.33710E-03  2780   0.114E-01    0.612E-01
RMM:   3    -0.181582532972E+03    0.74442E-03   -0.83388E-04  2676   0.535E-02    0.576E-01
RMM:   4    -0.181580505542E+03    0.20274E-02   -0.47511E-04  2155   0.467E-02    0.118E-01
RMM:   5    -0.181580737735E+03   -0.23219E-03   -0.18731E-04  1566   0.306E-02    0.140E-01
RMM:   6    -0.181580616956E+03    0.12078E-03   -0.11259E-04  1506   0.240E-02    0.602E-02
RMM:   7    -0.181580627663E+03   -0.10707E-04   -0.47044E-05  1415   0.150E-02
  12 F= -.18158063E+03 E0= -.18157976E+03  d E =0.384313E-03
quench:  g(F)=  0.000E+00 g(S)=  0.000E+00 dE (1.order)= 0.000E+00
 bond charge predicted
       N       E                     dE             d eps       ncg     rms          rms(c)
DAV:   1    -0.181580884884E+03   -0.26793E-03   -0.11394E-01  2784   0.647E-01    0.952E-02
RMM:   2    -0.181581358423E+03   -0.47354E-03   -0.29524E-03  2732   0.912E-02    0.184E-01
RMM:   3    -0.181582234152E+03   -0.87573E-03   -0.28638E-04  1667   0.309E-02    0.424E-01
RMM:   4    -0.181581082053E+03    0.11521E-02   -0.21149E-04  1584   0.309E-02    0.104E-01
RMM:   5    -0.181581158770E+03   -0.76716E-04   -0.12463E-04  1527   0.263E-02
  13 F= -.18158116E+03 E0= -.18158024E+03  d E =-.531107E-03
quench:  g(F)=  0.000E+00 g(S)=  0.000E+00 dE (1.order)= 0.000E+00
 bond charge predicted
       N       E                     dE             d eps       ncg     rms          rms(c)
DAV:   1    -0.181581214616E+03   -0.13256E-03   -0.14851E-01  2796   0.736E-01    0.121E-01
RMM:   2    -0.181582087714E+03   -0.87310E-03   -0.40651E-03  2783   0.108E-01    0.288E-01
RMM:   3    -0.181581458520E+03    0.62919E-03   -0.49464E-04  2208   0.438E-02    0.139E-01
RMM:   4    -0.181583480174E+03   -0.20217E-02   -0.28585E-04  1747   0.313E-02    0.546E-01
RMM:   5    -0.181581481834E+03    0.19983E-02   -0.27139E-04  1708   0.346E-02    0.135E-01
RMM:   6    -0.181581527633E+03   -0.45799E-04   -0.14682E-04  1542   0.292E-02
  14 F= -.18158153E+03 E0= -.18158066E+03  d E =-.368863E-03
quench:  g(F)=  0.000E+00 g(S)=  0.000E+00 dE (1.order)= 0.000E+00
 bond charge predicted
       N       E                     dE             d eps       ncg     rms          rms(c)
DAV:   1    -0.181581437871E+03    0.43963E-04   -0.18442E-01  2784   0.813E-01    0.130E-01
RMM:   2    -0.181582403643E+03   -0.96577E-03   -0.48836E-03  2792   0.116E-01    0.290E-01
RMM:   3    -0.181583384061E+03   -0.98042E-03   -0.47680E-04  2143   0.380E-02    0.505E-01
RMM:   4    -0.181581816290E+03    0.15678E-02   -0.48513E-04  2215   0.437E-02    0.184E-01
RMM:   5    -0.181581814226E+03    0.20642E-05   -0.21152E-04  1575   0.338E-02
  15 F= -.18158181E+03 E0= -.18158099E+03  d E =-.286593E-03
quench:  g(F)=  0.000E+00 g(S)=  0.000E+00 dE (1.order)= 0.000E+00
 bond charge predicted
       N       E                     dE             d eps       ncg     rms          rms(c)
DAV:   1    -0.181581453078E+03    0.36321E-03   -0.22128E-01  2772   0.884E-01    0.145E-01
RMM:   2    -0.181582347353E+03   -0.89428E-03   -0.58674E-03  2798   0.126E-01    0.262E-01
RMM:   3    -0.181584146981E+03   -0.17996E-02   -0.76041E-04  2662   0.489E-02    0.604E-01
RMM:   4    -0.181581926788E+03    0.22202E-02   -0.40723E-04  2033   0.401E-02    0.207E-01
RMM:   5    -0.181581931543E+03   -0.47548E-05   -0.32349E-04  1724   0.403E-02
  16 F= -.18158193E+03 E0= -.18158109E+03  d E =-.117317E-03
quench:  g(F)=  0.000E+00 g(S)=  0.000E+00 dE (1.order)= 0.000E+00
 bond charge predicted
       N       E                     dE             d eps       ncg     rms          rms(c)
DAV:   1    -0.181581293445E+03    0.63334E-03   -0.25493E-01  2772   0.953E-01    0.170E-01
RMM:   2    -0.181583923449E+03   -0.26300E-02   -0.73760E-03  2790   0.141E-01    0.558E-01
RMM:   3    -0.181583848118E+03    0.75331E-04   -0.89523E-04  2681   0.521E-02
  17 F= -.18158385E+03 E0= -.18158292E+03  d E =-.191658E-02
quench:  g(F)=  0.000E+00 g(S)=  0.000E+00 dE (1.order)= 0.000E+00
 bond charge predicted
       N       E                     dE             d eps       ncg     rms          rms(c)
DAV:   1    -0.181580696689E+03    0.32268E-02   -0.26693E-01  2772   0.102E+00    0.263E-01
RMM:   2    -0.181593671717E+03   -0.12975E-01   -0.15364E-02  2778   0.245E-01    0.128E+00
RMM:   3    -0.181594084514E+03   -0.41280E-03   -0.49169E-03  2771   0.129E-01    0.142E+00
RMM:   4    -0.181580640433E+03    0.13444E-01   -0.22473E-03  2734   0.997E-02    0.208E-01
RMM:   5    -0.181581348012E+03   -0.70758E-03   -0.77884E-04  2703   0.606E-02    0.212E-01
RMM:   6    -0.181581233613E+03    0.11440E-03   -0.30899E-04  1730   0.360E-02    0.139E-01
RMM:   7    -0.181581247739E+03   -0.14127E-04   -0.19351E-04  1559   0.301E-02
  18 F= -.18158125E+03 E0= -.18158045E+03  d E =0.260038E-02
quench:  g(F)=  0.000E+00 g(S)=  0.000E+00 dE (1.order)= 0.000E+00
 bond charge predicted
       N       E                     dE             d eps       ncg     rms          rms(c)
DAV:   1    -0.181580548892E+03    0.68472E-03   -0.13149E-01  2772   0.638E-01    0.133E-01
RMM:   2    -0.181581828340E+03   -0.12794E-02   -0.56140E-03  2724   0.109E-01    0.379E-01
RMM:   3    -0.181581785911E+03    0.42428E-04   -0.41785E-04  1883   0.355E-02
  19 F= -.18158179E+03 E0= -.18158103E+03  d E =-.538172E-03
quench:  g(F)=  0.000E+00 g(S)=  0.000E+00 dE (1.order)= 0.000E+00
 bond charge predicted
       N       E                     dE             d eps       ncg     rms          rms(c)
DAV:   1    -0.181581057232E+03    0.77111E-03   -0.15945E-02  2772   0.313E-01    0.195E-01
RMM:   2    -0.181622184493E+03   -0.41127E-01   -0.88749E-03  2774   0.178E-01    0.245E+00
RMM:   3    -0.181585276798E+03    0.36908E-01   -0.52023E-03  2758   0.137E-01    0.874E-01
RMM:   4    -0.181580765598E+03    0.45112E-02   -0.23300E-03  2736   0.113E-01    0.113E-01
RMM:   5    -0.181581042967E+03   -0.27737E-03   -0.31487E-04  1840   0.382E-02    0.119E-01
RMM:   6    -0.181580966028E+03    0.76939E-04   -0.11250E-04  1519   0.231E-02
  20 F= -.18158097E+03 E0= -.18158017E+03  d E =0.819883E-03
quench:  g(F)=  0.000E+00 g(S)=  0.000E+00 dE (1.order)= 0.000E+00
 bond charge predicted
       N       E                     dE             d eps       ncg     rms          rms(c)
DAV:   1    -0.181580817841E+03    0.22513E-03   -0.21328E-02  2784   0.275E-01    0.636E-02
RMM:   2    -0.181581446806E+03   -0.62897E-03   -0.90107E-04  2138   0.530E-02    0.286E-01
RMM:   3    -0.181581293443E+03    0.15336E-03   -0.16898E-04  1536   0.258E-02    0.272E-01
RMM:   4    -0.181580843341E+03    0.45010E-03   -0.14098E-04  1553   0.261E-02    0.670E-02
RMM:   5    -0.181580875096E+03   -0.31755E-04   -0.60277E-05  1463   0.175E-02
  21 F= -.18158088E+03 E0= -.18158013E+03  d E =0.909320E-04
quench:  g(F)=  0.000E+00 g(S)=  0.000E+00 dE (1.order)= 0.000E+00
 bond charge predicted
       N       E                     dE             d eps       ncg     rms          rms(c)
DAV:   1    -0.181580628836E+03    0.21450E-03   -0.26538E-02  2784   0.310E-01    0.629E-02
RMM:   2    -0.181581753778E+03   -0.11249E-02   -0.91601E-04  2192   0.526E-02    0.395E-01
RMM:   3    -0.181580862542E+03    0.89124E-03   -0.18612E-04  1556   0.280E-02    0.207E-01
RMM:   4    -0.181580666446E+03    0.19610E-03   -0.12664E-04  1543   0.256E-02    0.700E-02
RMM:   5    -0.181580690660E+03   -0.24214E-04   -0.53433E-05  1462   0.166E-02
  22 F= -.18158069E+03 E0= -.18157993E+03  d E =0.184436E-03
quench:  g(F)=  0.000E+00 g(S)=  0.000E+00 dE (1.order)= 0.000E+00
 bond charge predicted
       N       E                     dE             d eps       ncg     rms          rms(c)
DAV:   1    -0.181580389601E+03    0.27684E-03   -0.40052E-02  2772   0.380E-01    0.765E-02
RMM:   2    -0.181582593529E+03   -0.22039E-02   -0.14075E-03  2549   0.624E-02    0.554E-01
RMM:   3    -0.181580498813E+03    0.20947E-02   -0.27124E-04  1678   0.328E-02    0.179E-01
RMM:   4    -0.181580482032E+03    0.16781E-04   -0.21293E-04  1601   0.331E-02
  23 F= -.18158048E+03 E0= -.18157968E+03  d E =0.208628E-03
quench:  g(F)=  0.000E+00 g(S)=  0.000E+00 dE (1.order)= 0.000E+00
 bond charge predicted
       N       E                     dE             d eps       ncg     rms          rms(c)
DAV:   1    -0.181580072633E+03    0.42618E-03   -0.55500E-02  2772   0.449E-01    0.104E-01
RMM:   2    -0.181585487065E+03   -0.54144E-02   -0.25959E-03  2775   0.916E-02    0.876E-01
RMM:   3    -0.181580582245E+03    0.49048E-02   -0.75528E-04  2574   0.530E-02    0.352E-01
RMM:   4    -0.181580120733E+03    0.46151E-03   -0.40300E-04  2017   0.463E-02    0.941E-02
RMM:   5    -0.181580177456E+03   -0.56723E-04   -0.14365E-04  1518   0.254E-02
  24 F= -.18158018E+03 E0= -.18157936E+03  d E =0.304577E-03
quench:  g(F)=  0.000E+00 g(S)=  0.000E+00 dE (1.order)= 0.000E+00
 bond charge predicted
       N       E                     dE             d eps       ncg     rms          rms(c)
DAV:   1    -0.181579699125E+03    0.42161E-03   -0.72846E-02  2772   0.515E-01    0.111E-01
RMM:   2    -0.181586380459E+03   -0.66813E-02   -0.30227E-03  2775   0.940E-02    0.969E-01
RMM:   3    -0.181579842007E+03    0.65385E-02   -0.76406E-04  2588   0.531E-02    0.251E-01
RMM:   4    -0.181579831102E+03    0.10904E-04   -0.48797E-04  2210   0.490E-02
  25 F= -.18157983E+03 E0= -.18157907E+03  d E =0.346353E-03
quench:  g(F)=  0.000E+00 g(S)=  0.000E+00 dE (1.order)= 0.000E+00
 bond charge predicted
       N       E                     dE             d eps       ncg     rms          rms(c)
DAV:   1    -0.181579286908E+03    0.55510E-03   -0.91239E-02  2772   0.579E-01    0.139E-01
RMM:   2    -0.181586683528E+03   -0.73966E-02   -0.43441E-03  2777   0.120E-01    0.103E+00
RMM:   3    -0.181580737724E+03    0.59458E-02   -0.12046E-03  2732   0.649E-02    0.515E-01
RMM:   4    -0.181579357672E+03    0.13801E-02   -0.83004E-04  2710   0.623E-02    0.117E-01
RMM:   5    -0.181579473950E+03   -0.11628E-03   -0.19766E-04  1578   0.302E-02    0.123E-01
RMM:   6    -0.181579460777E+03    0.13172E-04   -0.13167E-04  1519   0.254E-02
  26 F= -.18157946E+03 E0= -.18157867E+03  d E =0.370325E-03
quench:  g(F)=  0.000E+00 g(S)=  0.000E+00 dE (1.order)= 0.000E+00
 bond charge predicted
       N       E                     dE             d eps       ncg     rms          rms(c)
DAV:   1    -0.181578824048E+03    0.64990E-03   -0.10915E-01  2772   0.631E-01    0.122E-01
RMM:   2    -0.181581863701E+03   -0.30397E-02   -0.37422E-03  2776   0.102E-01    0.625E-01
RMM:   3    -0.181579871794E+03    0.19919E-02   -0.62167E-04  2457   0.462E-02    0.425E-01
RMM:   4    -0.181579045868E+03    0.82593E-03   -0.53372E-04  2335   0.486E-02    0.146E-01
RMM:   5    -0.181579080764E+03   -0.34897E-04   -0.16884E-04  1589   0.274E-02
  27 F= -.18157908E+03 E0= -.18157828E+03  d E =0.380013E-03
quench:  g(F)=  0.000E+00 g(S)=  0.000E+00 dE (1.order)= 0.000E+00
 bond charge predicted
       N       E                     dE             d eps       ncg     rms          rms(c)
DAV:   1    -0.181578334383E+03    0.71148E-03   -0.12431E-01  2772   0.672E-01    0.139E-01
RMM:   2    -0.181588747077E+03   -0.10413E-01   -0.49460E-03  2778   0.120E-01    0.122E+00
RMM:   3    -0.181578714314E+03    0.10033E-01   -0.12636E-03  2738   0.690E-02    0.336E-01
RMM:   4    -0.181578604103E+03    0.11021E-03   -0.70843E-04  2643   0.600E-02    0.148E-01
RMM:   5    -0.181578593358E+03    0.10745E-04   -0.18341E-04  1591   0.274E-02
  28 F= -.18157859E+03 E0= -.18157781E+03  d E =0.487406E-03
quench:  g(F)=  0.000E+00 g(S)=  0.000E+00 dE (1.order)= 0.000E+00
 bond charge predicted
       N       E                     dE             d eps       ncg     rms          rms(c)
DAV:   1    -0.181577910115E+03    0.69399E-03   -0.13782E-01  2772   0.713E-01    0.159E-01
RMM:   2    -0.181588693042E+03   -0.10783E-01   -0.60189E-03  2778   0.134E-01    0.122E+00
RMM:   3    -0.181579257022E+03    0.94360E-02   -0.15159E-03  2750   0.741E-02    0.523E-01
RMM:   4    -0.181578088519E+03    0.11685E-02   -0.10057E-03  2726   0.694E-02    0.151E-01
RMM:   5    -0.181578200398E+03   -0.11188E-03   -0.23802E-04  1618   0.316E-02    0.147E-01
RMM:   6    -0.181578142394E+03    0.58004E-04   -0.15095E-04  1527   0.275E-02
  29 F= -.18157814E+03 E0= -.18157743E+03  d E =0.450964E-03
quench:  g(F)=  0.000E+00 g(S)=  0.000E+00 dE (1.order)= 0.000E+00
 bond charge predicted
       N       E                     dE             d eps       ncg     rms          rms(c)
DAV:   1    -0.181577409279E+03    0.79112E-03   -0.13218E-01  2772   0.685E-01    0.128E-01
RMM:   2    -0.181578344284E+03   -0.93500E-03   -0.40939E-03  2770   0.103E-01    0.313E-01
RMM:   3    -0.181579487857E+03   -0.11436E-02   -0.50364E-04  2228   0.395E-02    0.526E-01
RMM:   4    -0.181577778752E+03    0.17091E-02   -0.53412E-04  2353   0.452E-02    0.208E-01
RMM:   5    -0.181577728482E+03    0.50270E-04   -0.23028E-04  1609   0.345E-02
  30 F= -.18157773E+03 E0= -.18157703E+03  d E =0.413912E-03
quench:  g(F)=  0.000E+00 g(S)=  0.000E+00 dE (1.order)= 0.000E+00
 bond charge predicted
       N       E                     dE             d eps       ncg     rms          rms(c)
DAV:   1    -0.181577200309E+03    0.57844E-03   -0.86825E-02  2772   0.548E-01    0.124E-01
RMM:   2    -0.181582926589E+03   -0.57263E-02   -0.37634E-03  2779   0.102E-01    0.882E-01
RMM:   3    -0.181577805408E+03    0.51212E-02   -0.79267E-04  2626   0.537E-02    0.358E-01
RMM:   4    -0.181577384943E+03    0.42047E-03   -0.58947E-04  2422   0.515E-02    0.163E-01
RMM:   5    -0.181577352668E+03    0.32275E-04   -0.19648E-04  1582   0.305E-02
  31 F= -.18157735E+03 E0= -.18157659E+03  d E =0.375814E-03
quench:  g(F)=  0.000E+00 g(S)=  0.000E+00 dE (1.order)= 0.000E+00
 bond charge predicted
       N       E                     dE             d eps       ncg     rms          rms(c)
DAV:   1    -0.181577389439E+03   -0.44962E-05   -0.41806E-03  2817   0.134E-01    0.771E-02
RMM:   2    -0.181583730429E+03   -0.63410E-02   -0.13860E-03  2765   0.690E-02    0.955E-01
RMM:   3    -0.181577505467E+03    0.62250E-02   -0.68166E-04  2518   0.503E-02    0.253E-01
RMM:   4    -0.181577378219E+03    0.12725E-03   -0.36921E-04  1963   0.440E-02    0.592E-02
RMM:   5    -0.181577398660E+03   -0.20441E-04   -0.58268E-05  1475   0.161E-02
  32 F= -.18157740E+03 E0= -.18157665E+03  d E =-.459920E-04
quench:  g(F)=  0.000E+00 g(S)=  0.000E+00 dE (1.order)= 0.000E+00
 bond charge predicted
       N       E                     dE             d eps       ncg     rms          rms(c)
DAV:   1    -0.181577316870E+03    0.61349E-04   -0.67306E-03  2772   0.152E-01    0.458E-02
RMM:   2    -0.181578975854E+03   -0.16590E-02   -0.45194E-04  1868   0.379E-02    0.492E-01
RMM:   3    -0.181577303200E+03    0.16727E-02   -0.18213E-04  1554   0.290E-02    0.121E-01
RMM:   4    -0.181577333170E+03   -0.29970E-04   -0.85765E-05  1526   0.227E-02
  33 F= -.18157733E+03 E0= -.18157652E+03  d E =0.654904E-04
quench:  g(F)=  0.000E+00 g(S)=  0.000E+00 dE (1.order)= 0.000E+00
 bond charge predicted
       N       E                     dE             d eps       ncg     rms          rms(c)
DAV:   1    -0.181577206082E+03    0.97118E-04   -0.87587E-03  2772   0.182E-01    0.488E-02
RMM:   2    -0.181578175245E+03   -0.96916E-03   -0.49829E-04  1997   0.429E-02    0.375E-01
RMM:   3    -0.181577416235E+03    0.75901E-03   -0.17437E-04  1550   0.278E-02    0.215E-01
RMM:   4    -0.181577208149E+03    0.20809E-03   -0.10485E-04  1536   0.241E-02    0.367E-02
RMM:   5    -0.181577227974E+03   -0.19825E-04   -0.31307E-05  1413   0.118E-02
  34 F= -.18157723E+03 E0= -.18157644E+03  d E =0.105195E-03
quench:  g(F)=  0.000E+00 g(S)=  0.000E+00 dE (1.order)= 0.000E+00
 bond charge predicted
       N       E                     dE             d eps       ncg     rms          rms(c)
DAV:   1    -0.181577063888E+03    0.14426E-03   -0.13358E-02  2772   0.223E-01    0.480E-02
RMM:   2    -0.181579020198E+03   -0.19563E-02   -0.59384E-04  2059   0.419E-02    0.525E-01
RMM:   3    -0.181576990054E+03    0.20301E-02   -0.18947E-04  1557   0.295E-02    0.902E-02
RMM:   4    -0.181577094009E+03   -0.10396E-03   -0.10008E-04  1532   0.240E-02    0.547E-02
RMM:   5    -0.181577088931E+03    0.50780E-05   -0.27852E-05  1441   0.113E-02
  35 F= -.18157709E+03 E0= -.18157630E+03  d E =0.139043E-03
quench:  g(F)=  0.000E+00 g(S)=  0.000E+00 dE (1.order)= 0.000E+00
 bond charge predicted
       N       E                     dE             d eps       ncg     rms          rms(c)
DAV:   1    -0.181576906454E+03    0.18756E-03   -0.19199E-02  2772   0.266E-01    0.586E-02
RMM:   2    -0.181577796664E+03   -0.89021E-03   -0.79246E-04  2233   0.501E-02    0.351E-01
RMM:   3    -0.181577208179E+03    0.58848E-03   -0.18577E-04  1556   0.282E-02    0.247E-01
RMM:   4    -0.181576929308E+03    0.27887E-03   -0.12712E-04  1547   0.258E-02    0.602E-02
RMM:   5    -0.181576944498E+03   -0.15190E-04   -0.40823E-05  1439   0.141E-02
  36 F= -.18157694E+03 E0= -.18157615E+03  d E =0.144433E-03
quench:  g(F)=  0.000E+00 g(S)=  0.000E+00 dE (1.order)= 0.000E+00
 bond charge predicted
       N       E                     dE             d eps       ncg     rms          rms(c)
DAV:   1    -0.181576728226E+03    0.20108E-03   -0.25614E-02  2772   0.308E-01    0.680E-02
RMM:   2    -0.181580626091E+03   -0.38979E-02   -0.12159E-03  2648   0.588E-02    0.736E-01
RMM:   3    -0.181576644359E+03    0.39817E-02   -0.36933E-04  1964   0.386E-02    0.139E-01
RMM:   4    -0.181576775108E+03   -0.13075E-03   -0.20095E-04  1577   0.338E-02    0.715E-02
RMM:   5    -0.181576772213E+03    0.28948E-05   -0.52152E-05  1459   0.158E-02
  37 F= -.18157677E+03 E0= -.18157597E+03  d E =0.172285E-03
quench:  g(F)=  0.000E+00 g(S)=  0.000E+00 dE (1.order)= 0.000E+00
 bond charge predicted
       N       E                     dE             d eps       ncg     rms          rms(c)
DAV:   1    -0.181576543742E+03    0.23137E-03   -0.32871E-02  2772   0.349E-01    0.806E-02
RMM:   2    -0.181578267273E+03   -0.17235E-02   -0.14905E-03  2736   0.690E-02    0.487E-01
RMM:   3    -0.181577243403E+03    0.10239E-02   -0.37920E-04  1979   0.380E-02    0.367E-01
RMM:   4    -0.181576564516E+03    0.67889E-03   -0.24328E-04  1643   0.353E-02    0.795E-02
RMM:   5    -0.181576603939E+03   -0.39423E-04   -0.74949E-05  1490   0.196E-02
  38 F= -.18157660E+03 E0= -.18157581E+03  d E =0.168275E-03
quench:  g(F)=  0.000E+00 g(S)=  0.000E+00 dE (1.order)= 0.000E+00
 bond charge predicted
       N       E                     dE             d eps       ncg     rms          rms(c)
DAV:   1    -0.181576343626E+03    0.22089E-03   -0.40135E-02  2772   0.385E-01    0.879E-02
RMM:   2    -0.181584371704E+03   -0.80281E-02   -0.20914E-03  2755   0.767E-02    0.106E+00
RMM:   3    -0.181576166669E+03    0.82050E-02   -0.73688E-04  2562   0.534E-02    0.161E-01
RMM:   4    -0.181576417673E+03   -0.25100E-03   -0.34557E-04  1884   0.435E-02    0.901E-02
RMM:   5    -0.181576398769E+03    0.18904E-04   -0.76590E-05  1499   0.194E-02
  39 F= -.18157640E+03 E0= -.18157561E+03  d E =0.205170E-03
quench:  g(F)=  0.000E+00 g(S)=  0.000E+00 dE (1.order)= 0.000E+00
 bond charge predicted
       N       E                     dE             d eps       ncg     rms          rms(c)
DAV:   1    -0.181576152634E+03    0.26504E-03   -0.48534E-02  2772   0.424E-01    0.978E-02
RMM:   2    -0.181577785255E+03   -0.16326E-02   -0.21843E-03  2774   0.841E-02    0.457E-01
RMM:   3    -0.181577123488E+03    0.66177E-03   -0.60603E-04  2481   0.476E-02    0.425E-01
RMM:   4    -0.181576212924E+03    0.91056E-03   -0.22375E-04  1631   0.332E-02    0.113E-01
RMM:   5    -0.181576238405E+03   -0.25481E-04   -0.93265E-05  1540   0.225E-02
  40 F= -.18157624E+03 E0= -.18157545E+03  d E =0.160364E-03
quench:  g(F)=  0.000E+00 g(S)=  0.000E+00 dE (1.order)= 0.000E+00
 bond charge predicted
       N       E                     dE             d eps       ncg     rms          rms(c)
DAV:   1    -0.181575957979E+03    0.25494E-03   -0.53798E-02  2772   0.446E-01    0.100E-01
RMM:   2    -0.181584448485E+03   -0.84905E-02   -0.26907E-03  2774   0.878E-02    0.108E+00
RMM:   3    -0.181575910302E+03    0.85382E-02   -0.83876E-04  2618   0.565E-02    0.215E-01
RMM:   4    -0.181576059298E+03   -0.14900E-03   -0.46069E-04  2154   0.488E-02    0.993E-02
RMM:   5    -0.181576041443E+03    0.17855E-04   -0.92390E-05  1515   0.203E-02
  41 F= -.18157604E+03 E0= -.18157524E+03  d E =0.196962E-03
quench:  g(F)=  0.000E+00 g(S)=  0.000E+00 dE (1.order)= 0.000E+00
 bond charge predicted
       N       E                     dE             d eps       ncg     rms          rms(c)
DAV:   1    -0.181575776574E+03    0.28272E-03   -0.51620E-02  2772   0.434E-01    0.100E-01
RMM:   2    -0.181577616705E+03   -0.18401E-02   -0.23749E-03  2772   0.854E-02    0.493E-01
RMM:   3    -0.181576955576E+03    0.66113E-03   -0.50402E-04  2249   0.427E-02    0.451E-01
RMM:   4    -0.181575886759E+03    0.10688E-02   -0.38780E-04  1992   0.420E-02    0.125E-01
RMM:   5    -0.181575887841E+03   -0.10823E-05   -0.12711E-04  1543   0.247E-02
  42 F= -.18157589E+03 E0= -.18157503E+03  d E =0.153602E-03
quench:  g(F)=  0.000E+00 g(S)=  0.000E+00 dE (1.order)= 0.000E+00
 bond charge predicted
       N       E                     dE             d eps       ncg     rms          rms(c)
DAV:   1    -0.181575855357E+03    0.31402E-04   -0.73821E-03  2772   0.156E-01    0.718E-02
RMM:   2    -0.181586590445E+03   -0.10735E-01   -0.16644E-03  2751   0.698E-02    0.123E+00
RMM:   3    -0.181575582481E+03    0.11008E-01   -0.92806E-04  2618   0.600E-02    0.161E-01
RMM:   4    -0.181575859941E+03   -0.27746E-03   -0.28061E-04  1766   0.430E-02    0.526E-02
RMM:   5    -0.181575874588E+03   -0.14647E-04   -0.45550E-05  1486   0.146E-02
  43 F= -.18157587E+03 E0= -.18157503E+03  d E =0.132535E-04
quench:  g(F)=  0.000E+00 g(S)=  0.000E+00 dE (1.order)= 0.000E+00
 bond charge predicted
       N       E                     dE             d eps       ncg     rms          rms(c)
DAV:   1    -0.181575821254E+03    0.38687E-04   -0.41193E-03  2784   0.127E-01    0.415E-02
RMM:   2    -0.181576831127E+03   -0.10099E-02   -0.34079E-04  1762   0.364E-02    0.381E-01
RMM:   3    -0.181575927620E+03    0.90351E-03   -0.15984E-04  1546   0.274E-02    0.188E-01
RMM:   4    -0.181575809811E+03    0.11781E-03   -0.80917E-05  1524   0.216E-02    0.312E-02
RMM:   5    -0.181575828551E+03   -0.18740E-04   -0.19340E-05  1410   0.977E-03
  44 F= -.18157583E+03 E0= -.18157499E+03  d E =0.460368E-04
quench:  g(F)=  0.000E+00 g(S)=  0.000E+00 dE (1.order)= 0.000E+00
 bond charge predicted
       N       E                     dE             d eps       ncg     rms          rms(c)
DAV:   1    -0.181575763474E+03    0.46337E-04   -0.64977E-03  2772   0.156E-01    0.362E-02
RMM:   2    -0.181577314679E+03   -0.15512E-02   -0.33181E-04  1686   0.319E-02    0.467E-01
RMM:   3    -0.181575696404E+03    0.16183E-02   -0.13872E-04  1540   0.259E-02    0.617E-02
RMM:   4    -0.181575782574E+03   -0.86170E-04   -0.64203E-05  1505   0.193E-02
  45 F= -.18157578E+03 E0= -.18157492E+03  d E =0.459763E-04
quench:  g(F)=  0.000E+00 g(S)=  0.000E+00 dE (1.order)= 0.000E+00
 bond charge predicted
       N       E                     dE             d eps       ncg     rms          rms(c)
DAV:   1    -0.181575688359E+03    0.80449E-05   -0.96372E-03  2772   0.190E-01    0.378E-02
RMM:   2    -0.181576172454E+03   -0.48409E-03   -0.32271E-04  1665   0.314E-02    0.259E-01
RMM:   3    -0.181575707355E+03    0.46510E-03   -0.69794E-05  1495   0.181E-02    0.919E-02
RMM:   4    -0.181575713214E+03   -0.58587E-05   -0.46932E-05  1474   0.159E-02
  46 F= -.18157571E+03 E0= -.18157487E+03  d E =0.693609E-04
quench:  g(F)=  0.000E+00 g(S)=  0.000E+00 dE (1.order)= 0.000E+00
 bond charge predicted
       N       E                     dE             d eps       ncg     rms          rms(c)
DAV:   1    -0.181575614109E+03    0.93245E-04   -0.13554E-02  2772   0.226E-01    0.530E-02
RMM:   2    -0.181576813324E+03   -0.11992E-02   -0.61966E-04  2116   0.453E-02    0.411E-01
RMM:   3    -0.181575794150E+03    0.10192E-02   -0.18280E-04  1554   0.282E-02    0.198E-01
RMM:   4    -0.181575619153E+03    0.17500E-03   -0.11657E-04  1536   0.249E-02    0.589E-02
RMM:   5    -0.181575633706E+03   -0.14553E-04   -0.39031E-05  1452   0.142E-02
  47 F= -.18157563E+03 E0= -.18157478E+03  d E =0.795073E-04
quench:  g(F)=  0.000E+00 g(S)=  0.000E+00 dE (1.order)= 0.000E+00
 bond charge predicted
       N       E                     dE             d eps       ncg     rms          rms(c)
DAV:   1    -0.181575542359E+03    0.76794E-04   -0.17879E-02  2784   0.260E-01    0.568E-02
RMM:   2    -0.181578162030E+03   -0.26197E-02   -0.80628E-04  2319   0.469E-02    0.597E-01
RMM:   3    -0.181575466754E+03    0.26953E-02   -0.23594E-04  1620   0.320E-02    0.101E-01
RMM:   4    -0.181575584098E+03   -0.11734E-03   -0.15603E-04  1557   0.289E-02    0.721E-02
RMM:   5    -0.181575575603E+03    0.84953E-05   -0.41541E-05  1452   0.144E-02
  48 F= -.18157558E+03 E0= -.18157473E+03  d E =0.581035E-04
quench:  g(F)=  0.000E+00 g(S)=  0.000E+00 dE (1.order)= 0.000E+00
 bond charge predicted
       N       E                     dE             d eps       ncg     rms          rms(c)
DAV:   1    -0.181575471396E+03    0.11270E-03   -0.22279E-02  2772   0.290E-01    0.639E-02
RMM:   2    -0.181576196111E+03   -0.72471E-03   -0.91590E-04  2346   0.536E-02    0.306E-01
RMM:   3    -0.181576092330E+03    0.10378E-03   -0.23427E-04  1598   0.309E-02    0.321E-01
RMM:   4    -0.181575489916E+03    0.60241E-03   -0.14446E-04  1543   0.264E-02    0.837E-02
RMM:   5    -0.181575502768E+03   -0.12852E-04   -0.57185E-05  1478   0.182E-02
  49 F= -.18157550E+03 E0= -.18157465E+03  d E =0.728346E-04
quench:  g(F)=  0.000E+00 g(S)=  0.000E+00 dE (1.order)= 0.000E+00
 bond charge predicted
       N       E                     dE             d eps       ncg     rms          rms(c)
DAV:   1    -0.181575407624E+03    0.82292E-04   -0.26922E-02  2772   0.317E-01    0.704E-02
RMM:   2    -0.181579874312E+03   -0.44667E-02   -0.12837E-03  2634   0.594E-02    0.782E-01
RMM:   3    -0.181575307210E+03    0.45671E-02   -0.40510E-04  2039   0.402E-02    0.131E-01
RMM:   4    -0.181575467075E+03   -0.15987E-03   -0.22519E-04  1609   0.350E-02    0.859E-02
RMM:   5    -0.181575455195E+03    0.11881E-04   -0.58751E-05  1464   0.173E-02
  50 F= -.18157546E+03 E0= -.18157460E+03  d E =0.475736E-04
quench:  g(F)=  0.000E+00 g(S)=  0.000E+00 dE (1.order)= 0.000E+00
 bond charge predicted
       N       E                     dE             d eps       ncg     rms          rms(c)
DAV:   1    -0.181575374331E+03    0.92744E-04   -0.31086E-02  2772   0.342E-01    0.800E-02
RMM:   2    -0.181577532184E+03   -0.21579E-02   -0.14515E-03  2712   0.663E-02    0.545E-01
RMM:   3    -0.181576010646E+03    0.15215E-02   -0.39925E-04  2019   0.389E-02    0.344E-01
RMM:   4    -0.181575387979E+03    0.62267E-03   -0.28079E-04  1739   0.370E-02    0.969E-02
RMM:   5    -0.181575413270E+03   -0.25291E-04   -0.83289E-05  1512   0.217E-02
  51 F= -.18157541E+03 E0= -.18157454E+03  d E =0.419250E-04
quench:  g(F)=  0.000E+00 g(S)=  0.000E+00 dE (1.order)= 0.000E+00
 bond charge predicted
       N       E                     dE             d eps       ncg     rms          rms(c)
DAV:   1    -0.181575321743E+03    0.66236E-04   -0.32614E-02  2772   0.349E-01    0.817E-02
RMM:   2    -0.181582658119E+03   -0.73364E-02   -0.18609E-03  2731   0.720E-02    0.100E+00
RMM:   3    -0.181575180714E+03    0.74774E-02   -0.64810E-04  2476   0.500E-02    0.156E-01
RMM:   4    -0.181575376604E+03   -0.19589E-03   -0.32052E-04  1820   0.414E-02    0.874E-02
RMM:   5    -0.181575372933E+03    0.36713E-05   -0.71924E-05  1498   0.190E-02
  52 F= -.18157537E+03 E0= -.18157450E+03  d E =0.403367E-04
quench:  g(F)=  0.000E+00 g(S)=  0.000E+00 dE (1.order)= 0.000E+00
 bond charge predicted
       N       E                     dE             d eps       ncg     rms          rms(c)
DAV:   1    -0.181575313046E+03    0.63558E-04   -0.19341E-02  2772   0.261E-01    0.790E-02
RMM:   2    -0.181577838460E+03   -0.25254E-02   -0.14748E-03  2738   0.687E-02    0.591E-01
RMM:   3    -0.181576168166E+03    0.16703E-02   -0.48723E-04  2222   0.424E-02    0.392E-01
RMM:   4    -0.181575263487E+03    0.90468E-03   -0.28641E-04  1766   0.376E-02    0.740E-02
RMM:   5    -0.181575347908E+03   -0.84421E-04   -0.76279E-05  1519   0.215E-02
  53 F= -.18157535E+03 E0= -.18157445E+03  d E =0.250247E-04
quench:  g(F)=  0.000E+00 g(S)=  0.000E+00 dE (1.order)= 0.000E+00
 bond charge predicted
       N       E                     dE             d eps       ncg     rms          rms(c)
DAV:   1    -0.181575355129E+03   -0.91642E-04   -0.33540E-03  2796   0.113E-01    0.496E-02
RMM:   2    -0.181580556032E+03   -0.52009E-02   -0.79291E-04  2537   0.484E-02    0.851E-01
RMM:   3    -0.181575189986E+03    0.53660E-02   -0.42924E-04  2108   0.414E-02    0.118E-01
RMM:   4    -0.181575346068E+03   -0.15608E-03   -0.15597E-04  1554   0.314E-02    0.359E-02
RMM:   5    -0.181575359483E+03   -0.13415E-04   -0.26668E-05  1454   0.111E-02
  54 F= -.18157536E+03 E0= -.18157446E+03  d E =-.115751E-04
quench:  g(F)=  0.000E+00 g(S)=  0.000E+00 dE (1.order)= 0.000E+00
 bond charge predicted
       N       E                     dE             d eps       ncg     rms          rms(c)
DAV:   1    -0.181575339253E+03    0.68158E-05   -0.38876E-03  2772   0.122E-01    0.313E-02
RMM:   2    -0.181575821249E+03   -0.48200E-03   -0.19630E-04  1601   0.265E-02    0.261E-01
RMM:   3    -0.181575408165E+03    0.41308E-03   -0.74738E-05  1498   0.188E-02    0.126E-01
RMM:   4    -0.181575336244E+03    0.71922E-04   -0.42168E-05  1485   0.151E-02
  55 F= -.18157534E+03 E0= -.18157438E+03  d E =0.232396E-04
quench:  g(F)=  0.000E+00 g(S)=  0.000E+00 dE (1.order)= 0.000E+00
 bond charge predicted
       N       E                     dE             d eps       ncg     rms          rms(c)
DAV:   1    -0.181575310947E+03    0.97218E-04   -0.55969E-03  2772   0.145E-01    0.313E-02
RMM:   2    -0.181575783694E+03   -0.47275E-03   -0.22085E-04  1597   0.279E-02    0.264E-01
RMM:   3    -0.181575328313E+03    0.45538E-03   -0.67613E-05  1494   0.182E-02    0.887E-02
RMM:   4    -0.181575325957E+03    0.23559E-05   -0.40001E-05  1465   0.151E-02
  56 F= -.18157533E+03 E0= -.18157440E+03  d E =0.102866E-04
quench:  g(F)=  0.000E+00 g(S)=  0.000E+00 dE (1.order)= 0.000E+00
 bond charge predicted
       N       E                     dE             d eps       ncg     rms          rms(c)
DAV:   1    -0.181575282398E+03    0.45915E-04   -0.84299E-03  2772   0.179E-01    0.394E-02
RMM:   2    -0.181575622039E+03   -0.33964E-03   -0.32562E-04  1675   0.335E-02    0.212E-01
RMM:   3    -0.181575483675E+03    0.13836E-03   -0.91385E-05  1497   0.204E-02    0.184E-01
RMM:   4    -0.181575288580E+03    0.19509E-03   -0.56525E-05  1499   0.168E-02    0.508E-02
RMM:   5    -0.181575294756E+03   -0.61766E-05   -0.22292E-05  1414   0.112E-02
  57 F= -.18157529E+03 E0= -.18157436E+03  d E =0.312007E-04
quench:  g(F)=  0.000E+00 g(S)=  0.000E+00 dE (1.order)= 0.000E+00
 bond charge predicted
       N       E                     dE             d eps       ncg     rms          rms(c)
DAV:   1    -0.181575251146E+03    0.37433E-04   -0.11880E-02  2772   0.212E-01    0.459E-02
RMM:   2    -0.181576483591E+03   -0.12324E-02   -0.50945E-04  1900   0.395E-02    0.411E-01
RMM:   3    -0.181575282951E+03    0.12006E-02   -0.13873E-04  1533   0.252E-02    0.120E-01
RMM:   4    -0.181575274679E+03    0.82720E-05   -0.95089E-05  1522   0.223E-02
  58 F= -.18157527E+03 E0= -.18157429E+03  d E =0.200769E-04
quench:  g(F)=  0.000E+00 g(S)=  0.000E+00 dE (1.order)= 0.000E+00
 bond charge predicted
       N       E                     dE             d eps       ncg     rms          rms(c)
DAV:   1    -0.181575192126E+03    0.90826E-04   -0.15607E-02  2772   0.243E-01    0.523E-02
RMM:   2    -0.181577565429E+03   -0.23733E-02   -0.72136E-04  2316   0.478E-02    0.577E-01
RMM:   3    -0.181575114757E+03    0.24507E-02   -0.23815E-04  1623   0.328E-02    0.122E-01
RMM:   4    -0.181575223726E+03   -0.10897E-03   -0.12504E-04  1548   0.272E-02    0.622E-02
RMM:   5    -0.181575218175E+03    0.55515E-05   -0.32150E-05  1455   0.121E-02
  59 F= -.18157522E+03 E0= -.18157427E+03  d E =0.565046E-04
quench:  g(F)=  0.000E+00 g(S)=  0.000E+00 dE (1.order)= 0.000E+00
 bond charge predicted
       N       E                     dE             d eps       ncg     rms          rms(c)
DAV:   1    -0.181575153652E+03    0.70075E-04   -0.20535E-02  2772   0.280E-01    0.565E-02
RMM:   2    -0.181575740291E+03   -0.58664E-03   -0.74295E-04  2050   0.481E-02    0.275E-01
RMM:   3    -0.181575452980E+03    0.28731E-03   -0.14002E-04  1534   0.242E-02    0.224E-01
RMM:   4    -0.181575198959E+03    0.25402E-03   -0.13076E-04  1556   0.252E-02    0.741E-02
RMM:   5    -0.181575181986E+03    0.16974E-04   -0.38018E-05  1432   0.143E-02
  60 F= -.18157518E+03 E0= -.18157424E+03  d E =0.361890E-04
quench:  g(F)=  0.000E+00 g(S)=  0.000E+00 dE (1.order)= 0.000E+00
 bond charge predicted
       N       E                     dE             d eps       ncg     rms          rms(c)
DAV:   1    -0.181575088745E+03    0.11021E-03   -0.26055E-02  2772   0.313E-01    0.650E-02
RMM:   2    -0.181576073169E+03   -0.98442E-03   -0.10530E-03  2524   0.583E-02    0.351E-01
RMM:   3    -0.181575560223E+03    0.51295E-03   -0.22499E-04  1592   0.300E-02    0.298E-01
RMM:   4    -0.181575125777E+03    0.43445E-03   -0.16791E-04  1563   0.292E-02    0.823E-02
RMM:   5    -0.181575135079E+03   -0.93019E-05   -0.53644E-05  1483   0.167E-02
  61 F= -.18157514E+03 E0= -.18157416E+03  d E =0.469070E-04
quench:  g(F)=  0.000E+00 g(S)=  0.000E+00 dE (1.order)= 0.000E+00
 bond charge predicted
       N       E                     dE             d eps       ncg     rms          rms(c)
DAV:   1    -0.181574989438E+03    0.13634E-03   -0.33724E-02  2772   0.357E-01    0.688E-02
RMM:   2    -0.181576916760E+03   -0.19273E-02   -0.12550E-03  2626   0.618E-02    0.515E-01
RMM:   3    -0.181575077704E+03    0.18391E-02   -0.23461E-04  1615   0.314E-02    0.169E-01
RMM:   4    -0.181575066361E+03    0.11343E-04   -0.21021E-04  1584   0.331E-02
  62 F= -.18157507E+03 E0= -.18157408E+03  d E =0.687182E-04
quench:  g(F)=  0.000E+00 g(S)=  0.000E+00 dE (1.order)= 0.000E+00
 bond charge predicted
       N       E                     dE             d eps       ncg     rms          rms(c)
DAV:   1    -0.181574803096E+03    0.27461E-03   -0.41600E-02  2772   0.394E-01    0.748E-02
RMM:   2    -0.181579606772E+03   -0.48037E-02   -0.16330E-03  2766   0.727E-02    0.825E-01
RMM:   3    -0.181574662353E+03    0.49444E-02   -0.46222E-04  2175   0.435E-02    0.122E-01
RMM:   4    -0.181574910273E+03   -0.24792E-03   -0.22855E-04  1612   0.362E-02    0.941E-02
RMM:   5    -0.181574874659E+03    0.35613E-04   -0.65787E-05  1464   0.181E-02
  63 F= -.18157487E+03 E0= -.18157392E+03  d E =0.191701E-03
quench:  g(F)=  0.000E+00 g(S)=  0.000E+00 dE (1.order)= 0.000E+00
 bond charge predicted
       N       E                     dE             d eps       ncg     rms          rms(c)
DAV:   1    -0.181574596645E+03    0.31363E-03   -0.54707E-02  2772   0.454E-01    0.867E-02
RMM:   2    -0.181578439199E+03   -0.38426E-02   -0.20991E-03  2787   0.817E-02    0.715E-01
RMM:   3    -0.181574918682E+03    0.35205E-02   -0.47183E-04  2197   0.424E-02    0.271E-01
RMM:   4    -0.181574681429E+03    0.23725E-03   -0.34425E-04  1870   0.405E-02    0.122E-01
RMM:   5    -0.181574665735E+03    0.15694E-04   -0.97793E-05  1541   0.227E-02
  64 F= -.18157467E+03 E0= -.18157368E+03  d E =0.208925E-03
quench:  g(F)=  0.000E+00 g(S)=  0.000E+00 dE (1.order)= 0.000E+00
 bond charge predicted
       N       E                     dE             d eps       ncg     rms          rms(c)
DAV:   1    -0.181574134480E+03    0.54695E-03   -0.71174E-02  2772   0.510E-01    0.886E-02
RMM:   2    -0.181576762201E+03   -0.26277E-02   -0.22499E-03  2795   0.873E-02    0.594E-01
RMM:   3    -0.181574496358E+03    0.22658E-02   -0.36836E-04  1938   0.379E-02    0.254E-01
RMM:   4    -0.181574295599E+03    0.20076E-03   -0.33403E-04  1839   0.397E-02    0.119E-01
RMM:   5    -0.181574264213E+03    0.31387E-04   -0.96658E-05  1498   0.220E-02
  65 F= -.18157426E+03 E0= -.18157330E+03  d E =0.401522E-03
quench:  g(F)=  0.000E+00 g(S)=  0.000E+00 dE (1.order)= 0.000E+00
 bond charge predicted
       N       E                     dE             d eps       ncg     rms          rms(c)
DAV:   1    -0.181573249772E+03    0.10458E-02   -0.97383E-02  2772   0.586E-01    0.102E-01
RMM:   2    -0.181579436567E+03   -0.61868E-02   -0.31820E-03  2794   0.102E-01    0.920E-01
RMM:   3    -0.181573427206E+03    0.60094E-02   -0.64252E-04  2496   0.497E-02    0.229E-01
RMM:   4    -0.181573432817E+03   -0.56116E-05   -0.38143E-04  1956   0.434E-02
  66 F= -.18157343E+03 E0= -.18157232E+03  d E =0.831396E-03
quench:  g(F)=  0.000E+00 g(S)=  0.000E+00 dE (1.order)= 0.000E+00
 bond charge predicted
       N       E                     dE             d eps       ncg     rms          rms(c)
DAV:   1    -0.181571360936E+03    0.20663E-02   -0.13121E-01  2772   0.672E-01    0.142E-01
RMM:   2    -0.181583422347E+03   -0.12061E-01   -0.53846E-03  2785   0.135E-01    0.129E+00
RMM:   3    -0.181572100555E+03    0.11322E-01   -0.13679E-03  2740   0.719E-02    0.386E-01
RMM:   4    -0.181571539727E+03    0.56083E-03   -0.79846E-04  2686   0.632E-02    0.140E-01
RMM:   5    -0.181571664337E+03   -0.12461E-03   -0.21107E-04  1613   0.301E-02    0.136E-01
RMM:   6    -0.181571583176E+03    0.81161E-04   -0.17166E-04  1539   0.291E-02
  67 F= -.18157158E+03 E0= -.18157060E+03  d E =0.184964E-02
quench:  g(F)=  0.000E+00 g(S)=  0.000E+00 dE (1.order)= 0.000E+00
 bond charge predicted
       N       E                     dE             d eps       ncg     rms          rms(c)
DAV:   1    -0.181567099227E+03    0.45651E-02   -0.18608E-01  2772   0.736E-01    0.163E-01
RMM:   2    -0.181567799600E+03   -0.70037E-03   -0.55720E-03  2776   0.114E-01    0.232E-01
RMM:   3    -0.181569578221E+03   -0.17786E-02   -0.81133E-04  2717   0.521E-02    0.582E-01
RMM:   4    -0.181568165175E+03    0.14130E-02   -0.52468E-04  2281   0.436E-02    0.366E-01
RMM:   5    -0.181567521567E+03    0.64361E-03   -0.45525E-04  2079   0.451E-02    0.162E-01
RMM:   6    -0.181567415621E+03    0.10595E-03   -0.16601E-04  1554   0.285E-02    0.724E-02
RMM:   7    -0.181567442181E+03   -0.26560E-04   -0.91161E-05  1470   0.201E-02
  68 F= -.18156744E+03 E0= -.18156646E+03  d E =0.414100E-02
quench:  g(F)=  0.000E+00 g(S)=  0.000E+00 dE (1.order)= 0.000E+00
 bond charge predicted
       N       E                     dE             d eps       ncg     rms          rms(c)
DAV:   1    -0.181568860091E+03   -0.14445E-02   -0.32321E-02  2796   0.323E-01    0.608E-02
RMM:   2    -0.181569081368E+03   -0.22128E-03   -0.11195E-03  2155   0.580E-02    0.144E-01
RMM:   3    -0.181568958712E+03    0.12266E-03   -0.17270E-04  1535   0.286E-02    0.884E-02
RMM:   4    -0.181569243812E+03   -0.28510E-03   -0.66151E-05  1478   0.154E-02    0.221E-01
RMM:   5    -0.181568916758E+03    0.32705E-03   -0.52689E-05  1472   0.161E-02    0.457E-02
RMM:   6    -0.181568924552E+03   -0.77945E-05   -0.28645E-05  1412   0.127E-02
  69 F= -.18156892E+03 E0= -.18156792E+03  d E =-.148237E-02
quench:  g(F)=  0.000E+00 g(S)=  0.000E+00 dE (1.order)= 0.000E+00
 bond charge predicted
       N       E                     dE             d eps       ncg     rms          rms(c)
DAV:   1    -0.181567334096E+03    0.15827E-02   -0.26491E-02  2796   0.275E-01    0.707E-02
RMM:   2    -0.181570256893E+03   -0.29228E-02   -0.14205E-03  2666   0.645E-02    0.637E-01
RMM:   3    -0.181567606067E+03    0.26508E-02   -0.35477E-04  1930   0.366E-02    0.240E-01
RMM:   4    -0.181567353784E+03    0.25228E-03   -0.20122E-04  1571   0.333E-02    0.627E-02
RMM:   5    -0.181567397474E+03   -0.43689E-04   -0.78184E-05  1485   0.196E-02
  70 F= -.18156740E+03 E0= -.18156640E+03  d E =0.152708E-02
quench:  g(F)=  0.000E+00 g(S)=  0.000E+00 dE (1.order)= 0.000E+00
 bond charge predicted
       N       E                     dE             d eps       ncg     rms          rms(c)
DAV:   1    -0.181568233531E+03   -0.87975E-03   -0.32612E-02  2772   0.305E-01    0.600E-02
RMM:   2    -0.181568673551E+03   -0.44002E-03   -0.13966E-03  2124   0.591E-02    0.213E-01
RMM:   3    -0.181568611363E+03    0.62188E-04   -0.12412E-04  1517   0.222E-02
  71 F= -.18156861E+03 E0= -.18156758E+03  d E =-.121389E-02
quench:  g(F)=  0.000E+00 g(S)=  0.000E+00 dE (1.order)= 0.000E+00
 bond charge predicted
       N       E                     dE             d eps       ncg     rms          rms(c)
DAV:   1    -0.181568602943E+03    0.70608E-04   -0.30181E-02  2772   0.296E-01    0.102E-01
RMM:   2    -0.181577450196E+03   -0.88473E-02   -0.33402E-03  2775   0.101E-01    0.114E+00
RMM:   3    -0.181568821360E+03    0.86288E-02   -0.10260E-03  2684   0.630E-02    0.306E-01
RMM:   4    -0.181568718606E+03    0.10275E-03   -0.59367E-04  2459   0.553E-02    0.991E-02
RMM:   5    -0.181568660098E+03    0.58508E-04   -0.84850E-05  1521   0.175E-02
  72 F= -.18156866E+03 E0= -.18156764E+03  d E =-.487351E-04
quench:  g(F)=  0.000E+00 g(S)=  0.000E+00 dE (1.order)= 0.000E+00
 bond charge predicted
       N       E                     dE             d eps       ncg     rms          rms(c)
DAV:   1    -0.181567450527E+03    0.12681E-02   -0.26191E-02  2790   0.229E-01    0.714E-02
RMM:   2    -0.181567940410E+03   -0.48988E-03   -0.14216E-03  2319   0.604E-02    0.232E-01
RMM:   3    -0.181567512483E+03    0.42793E-03   -0.27689E-04  1633   0.353E-02    0.116E-01
RMM:   4    -0.181567878824E+03   -0.36634E-03   -0.93801E-05  1523   0.201E-02    0.236E-01
RMM:   5    -0.181567480630E+03    0.39819E-03   -0.59268E-05  1479   0.166E-02    0.544E-02
RMM:   6    -0.181567496453E+03   -0.15823E-04   -0.41072E-05  1448   0.148E-02
  73 F= -.18156750E+03 E0= -.18156648E+03  d E =0.116365E-02
quench:  g(F)=  0.000E+00 g(S)=  0.000E+00 dE (1.order)= 0.000E+00
 bond charge predicted
       N       E                     dE             d eps       ncg     rms          rms(c)
DAV:   1    -0.181568668968E+03   -0.11883E-02   -0.33280E-02  2784   0.250E-01    0.771E-02
RMM:   2    -0.181571662987E+03   -0.29940E-02   -0.16995E-03  2462   0.608E-02    0.642E-01
RMM:   3    -0.181568604201E+03    0.30588E-02   -0.27323E-04  1699   0.344E-02    0.110E-01
RMM:   4    -0.181568742697E+03   -0.13850E-03   -0.20853E-04  1598   0.324E-02    0.876E-02
RMM:   5    -0.181568712821E+03    0.29876E-04   -0.80371E-05  1469   0.197E-02
  74 F= -.18156871E+03 E0= -.18156773E+03  d E =-.121637E-02
quench:  g(F)=  0.000E+00 g(S)=  0.000E+00 dE (1.order)= 0.000E+00
 bond charge predicted
       N       E                     dE             d eps       ncg     rms          rms(c)
DAV:   1    -0.181567955042E+03    0.78766E-03   -0.26418E-02  2784   0.230E-01    0.827E-02
RMM:   2    -0.181569220581E+03   -0.12655E-02   -0.19300E-03  2734   0.764E-02    0.386E-01
RMM:   3    -0.181568873871E+03    0.34671E-03   -0.48339E-04  2207   0.425E-02    0.389E-01
RMM:   4    -0.181568017907E+03    0.85596E-03   -0.18153E-04  1569   0.299E-02    0.114E-01
RMM:   5    -0.181568013170E+03    0.47367E-05   -0.88698E-05  1504   0.222E-02
  75 F= -.18156801E+03 E0= -.18156699E+03  d E =0.699651E-03
quench:  g(F)=  0.000E+00 g(S)=  0.000E+00 dE (1.order)= 0.000E+00
 bond charge predicted
       N       E                     dE             d eps       ncg     rms          rms(c)
DAV:   1    -0.181567695028E+03    0.32288E-03   -0.30278E-02  2772   0.243E-01    0.623E-02
RMM:   2    -0.181568008397E+03   -0.31337E-03   -0.17260E-03  2056   0.592E-02    0.163E-01
RMM:   3    -0.181568286277E+03   -0.27788E-03   -0.13604E-04  1518   0.225E-02    0.275E-01
RMM:   4    -0.181567804659E+03    0.48162E-03   -0.10506E-04  1531   0.218E-02    0.883E-02
RMM:   5    -0.181567789340E+03    0.15320E-04   -0.59625E-05  1477   0.180E-02
  76 F= -.18156779E+03 E0= -.18156679E+03  d E =0.223830E-03
quench:  g(F)=  0.000E+00 g(S)=  0.000E+00 dE (1.order)= 0.000E+00
 bond charge predicted
       N       E                     dE             d eps       ncg     rms          rms(c)
DAV:   1    -0.181568932819E+03   -0.11282E-02   -0.30857E-02  2772   0.255E-01    0.727E-02
RMM:   2    -0.181569912209E+03   -0.97939E-03   -0.17617E-03  2526   0.676E-02    0.340E-01
RMM:   3    -0.181569704102E+03    0.20811E-03   -0.27713E-04  1718   0.324E-02    0.344E-01
RMM:   4    -0.181569000464E+03    0.70364E-03   -0.17525E-04  1560   0.295E-02    0.867E-02
RMM:   5    -0.181569029308E+03   -0.28845E-04   -0.82190E-05  1491   0.206E-02
  77 F= -.18156903E+03 E0= -.18156801E+03  d E =-.123997E-02
quench:  g(F)=  0.000E+00 g(S)=  0.000E+00 dE (1.order)= 0.000E+00
 bond charge predicted
       N       E                     dE             d eps       ncg     rms          rms(c)
DAV:   1    -0.181567349728E+03    0.16507E-02   -0.25298E-02  2772   0.238E-01    0.617E-02
RMM:   2    -0.181567603358E+03   -0.25363E-03   -0.10561E-03  1923   0.510E-02    0.157E-01
RMM:   3    -0.181567782349E+03   -0.17899E-03   -0.16173E-04  1520   0.268E-02    0.236E-01
RMM:   4    -0.181567433647E+03    0.34870E-03   -0.63430E-05  1494   0.165E-02    0.866E-02
RMM:   5    -0.181567430145E+03    0.35016E-05   -0.51759E-05  1474   0.163E-02
  78 F= -.18156743E+03 E0= -.18156643E+03  d E =0.159916E-02
quench:  g(F)=  0.000E+00 g(S)=  0.000E+00 dE (1.order)= 0.000E+00
 bond charge predicted
       N       E                     dE             d eps       ncg     rms          rms(c)
DAV:   1    -0.181567956243E+03   -0.52260E-03   -0.32561E-02  2772   0.249E-01    0.693E-02
RMM:   2    -0.181568813919E+03   -0.85768E-03   -0.16230E-03  2149   0.599E-02    0.324E-01
RMM:   3    -0.181568276236E+03    0.53768E-03   -0.16748E-04  1562   0.260E-02    0.217E-01
RMM:   4    -0.181568074021E+03    0.20221E-03   -0.14082E-04  1549   0.264E-02    0.934E-02
RMM:   5    -0.181568039332E+03    0.34689E-04   -0.70112E-05  1481   0.180E-02
  79 F= -.18156804E+03 E0= -.18156704E+03  d E =-.609187E-03
quench:  g(F)=  0.000E+00 g(S)=  0.000E+00 dE (1.order)= 0.000E+00
 bond charge predicted
       N       E                     dE             d eps       ncg     rms          rms(c)
DAV:   1    -0.181569083113E+03   -0.10091E-02   -0.31613E-02  2778   0.250E-01    0.807E-02
RMM:   2    -0.181570407350E+03   -0.13242E-02   -0.20016E-03  2732   0.742E-02    0.401E-01
RMM:   3    -0.181570129791E+03    0.27756E-03   -0.37103E-04  1986   0.359E-02    0.404E-01
RMM:   4    -0.181569106970E+03    0.10228E-02   -0.23069E-04  1621   0.327E-02    0.891E-02
RMM:   5    -0.181569169475E+03   -0.62505E-04   -0.96333E-05  1526   0.229E-02
  80 F= -.18156917E+03 E0= -.18156817E+03  d E =-.113014E-02
quench:  g(F)=  0.000E+00 g(S)=  0.000E+00 dE (1.order)= 0.000E+00
 bond charge predicted
       N       E                     dE             d eps       ncg     rms          rms(c)
DAV:   1    -0.181567398169E+03    0.17088E-02   -0.24642E-02  2772   0.235E-01    0.629E-02
RMM:   2    -0.181567746369E+03   -0.34820E-03   -0.10350E-03  2013   0.531E-02    0.197E-01
RMM:   3    -0.181567529111E+03    0.21726E-03   -0.19813E-04  1550   0.310E-02    0.123E-01
RMM:   4    -0.181567562591E+03   -0.33479E-04   -0.49724E-05  1476   0.143E-02
  81 F= -.18156756E+03 E0= -.18156650E+03  d E =0.160688E-02
quench:  g(F)=  0.000E+00 g(S)=  0.000E+00 dE (1.order)= 0.000E+00
 bond charge predicted
       N       E                     dE             d eps       ncg     rms          rms(c)
DAV:   1    -0.181567137658E+03    0.39145E-03   -0.33155E-02  2772   0.258E-01    0.881E-02
RMM:   2    -0.181568069762E+03   -0.93210E-03   -0.23681E-03  2746   0.797E-02    0.333E-01
RMM:   3    -0.181567453509E+03    0.61625E-03   -0.45866E-04  2161   0.426E-02    0.231E-01
RMM:   4    -0.181567355998E+03    0.97511E-04   -0.11296E-04  1544   0.232E-02
  82 F= -.18156736E+03 E0= -.18156635E+03  d E =0.206592E-03
quench:  g(F)=  0.000E+00 g(S)=  0.000E+00 dE (1.order)= 0.000E+00
 bond charge predicted
       N       E                     dE             d eps       ncg     rms          rms(c)
DAV:   1    -0.181569424516E+03   -0.19710E-02   -0.34977E-02  2772   0.292E-01    0.877E-02
RMM:   2    -0.181570196208E+03   -0.77169E-03   -0.18196E-03  2750   0.721E-02    0.293E-01
RMM:   3    -0.181569798223E+03    0.39798E-03   -0.45054E-04  2130   0.414E-02    0.242E-01
RMM:   4    -0.181569511738E+03    0.28648E-03   -0.92623E-05  1533   0.206E-02    0.122E-01
RMM:   5    -0.181569520064E+03   -0.83257E-05   -0.95709E-05  1513   0.213E-02
  83 F= -.18156952E+03 E0= -.18156855E+03  d E =-.216407E-02
quench:  g(F)=  0.000E+00 g(S)=  0.000E+00 dE (1.order)= 0.000E+00
 bond charge predicted
       N       E                     dE             d eps       ncg     rms          rms(c)
DAV:   1    -0.181568835157E+03    0.67658E-03   -0.22883E-02  2790   0.217E-01    0.640E-02
RMM:   2    -0.181569499417E+03   -0.66426E-03   -0.11721E-03  2003   0.538E-02    0.290E-01
RMM:   3    -0.181569308600E+03    0.19082E-03   -0.17149E-04  1549   0.258E-02    0.263E-01
RMM:   4    -0.181568889691E+03    0.41891E-03   -0.12537E-04  1546   0.249E-02    0.783E-02
RMM:   5    -0.181568889530E+03    0.16189E-06   -0.58019E-05  1473   0.172E-02
  84 F= -.18156889E+03 E0= -.18156788E+03  d E =0.630535E-03
quench:  g(F)=  0.000E+00 g(S)=  0.000E+00 dE (1.order)= 0.000E+00
 bond charge predicted
       N       E                     dE             d eps       ncg     rms          rms(c)
DAV:   1    -0.181567066120E+03    0.18236E-02   -0.25319E-02  2772   0.244E-01    0.716E-02
RMM:   2    -0.181567546112E+03   -0.47999E-03   -0.12014E-03  2313   0.582E-02    0.240E-01
RMM:   3    -0.181567221874E+03    0.32424E-03   -0.25331E-04  1601   0.338E-02    0.153E-01
RMM:   4    -0.181567212391E+03    0.94832E-05   -0.66567E-05  1501   0.169E-02
  85 F= -.18156721E+03 E0= -.18156614E+03  d E =0.167714E-02
quench:  g(F)=  0.000E+00 g(S)=  0.000E+00 dE (1.order)= 0.000E+00
 bond charge predicted
       N       E                     dE             d eps       ncg     rms          rms(c)
DAV:   1    -0.181569023929E+03   -0.18021E-02   -0.34715E-02  2772   0.288E-01    0.949E-02
RMM:   2    -0.181570707289E+03   -0.16834E-02   -0.23237E-03  2769   0.851E-02    0.456E-01
RMM:   3    -0.181570511870E+03    0.19542E-03   -0.63493E-04  2505   0.466E-02    0.483E-01
RMM:   4    -0.181568975079E+03    0.15368E-02   -0.22459E-04  1625   0.322E-02    0.768E-02
RMM:   5    -0.181569131549E+03   -0.15647E-03   -0.11882E-04  1536   0.258E-02    0.830E-02
RMM:   6    -0.181569078029E+03    0.53520E-04   -0.46671E-05  1410   0.153E-02
  86 F= -.18156908E+03 E0= -.18156806E+03  d E =-.186564E-02
quench:  g(F)=  0.000E+00 g(S)=  0.000E+00 dE (1.order)= 0.000E+00
 bond charge predicted
       N       E                     dE             d eps       ncg     rms          rms(c)
DAV:   1    -0.181567569371E+03    0.15622E-02   -0.24941E-02  2772   0.230E-01    0.694E-02
RMM:   2    -0.181567901913E+03   -0.33254E-03   -0.11900E-03  2211   0.560E-02    0.194E-01
RMM:   3    -0.181567692401E+03    0.20951E-03   -0.23774E-04  1585   0.330E-02    0.124E-01
RMM:   4    -0.181567876511E+03   -0.18411E-03   -0.72174E-05  1497   0.165E-02    0.194E-01
RMM:   5    -0.181567620951E+03    0.25556E-03   -0.59376E-05  1478   0.167E-02    0.532E-02
RMM:   6    -0.181567625880E+03   -0.49293E-05   -0.31571E-05  1427   0.130E-02
  87 F= -.18156763E+03 E0= -.18156658E+03  d E =0.145215E-02
quench:  g(F)=  0.000E+00 g(S)=  0.000E+00 dE (1.order)= 0.000E+00
 bond charge predicted
       N       E                     dE             d eps       ncg     rms          rms(c)
DAV:   1    -0.181567440568E+03    0.18038E-03   -0.31549E-02  2772   0.238E-01    0.713E-02
RMM:   2    -0.181567779048E+03   -0.33848E-03   -0.16540E-03  2126   0.603E-02    0.186E-01
RMM:   3    -0.181567730760E+03    0.48288E-04   -0.20142E-04  1550   0.300E-02
  88 F= -.18156773E+03 E0= -.18156675E+03  d E =-.104881E-03
quench:  g(F)=  0.000E+00 g(S)=  0.000E+00 dE (1.order)= 0.000E+00
 bond charge predicted
       N       E                     dE             d eps       ncg     rms          rms(c)
DAV:   1    -0.181569607128E+03   -0.18281E-02   -0.35922E-02  2799   0.312E-01    0.176E-01
RMM:   2    -0.181639270900E+03   -0.69664E-01   -0.95179E-03  2772   0.170E-01    0.318E+00
RMM:   3    -0.181569413298E+03    0.69858E-01   -0.65313E-03  2772   0.154E-01    0.420E-01
RMM:   4    -0.181569522406E+03   -0.10911E-03   -0.14906E-03  2748   0.102E-01    0.117E-01
RMM:   5    -0.181569590455E+03   -0.68049E-04   -0.17199E-04  1614   0.269E-02
  89 F= -.18156959E+03 E0= -.18156860E+03  d E =-.185969E-02
quench:  g(F)=  0.000E+00 g(S)=  0.000E+00 dE (1.order)= 0.000E+00
 bond charge predicted
       N       E                     dE             d eps       ncg     rms          rms(c)
DAV:   1    -0.181567823074E+03    0.16993E-02   -0.23017E-02  2844   0.236E-01    0.804E-02
RMM:   2    -0.181569245443E+03   -0.14224E-02   -0.14954E-03  2765   0.703E-02    0.447E-01
RMM:   3    -0.181569188334E+03    0.57109E-04   -0.45501E-04  2164   0.396E-02
  90 F= -.18156919E+03 E0= -.18156821E+03  d E =0.402121E-03
quench:  g(F)=  0.000E+00 g(S)=  0.000E+00 dE (1.order)= 0.000E+00
 bond charge predicted
       N       E                     dE             d eps       ncg     rms          rms(c)
DAV:   1    -0.181564019679E+03    0.52258E-02   -0.80194E-02  2772   0.489E-01    0.125E-01
RMM:   2    -0.181564599850E+03   -0.58017E-03   -0.32913E-03  2754   0.938E-02    0.229E-01
RMM:   3    -0.181565499895E+03   -0.90004E-03   -0.48043E-04  2193   0.406E-02    0.447E-01
RMM:   4    -0.181564514454E+03    0.98544E-03   -0.27939E-04  1721   0.332E-02    0.240E-01
RMM:   5    -0.181564219575E+03    0.29488E-03   -0.26201E-04  1643   0.350E-02    0.731E-02
RMM:   6    -0.181564280171E+03   -0.60595E-04   -0.10799E-04  1517   0.222E-02
  91 F= -.18156428E+03 E0= -.18156321E+03  d E =0.490816E-02
quench:  g(F)=  0.000E+00 g(S)=  0.000E+00 dE (1.order)= 0.000E+00
 bond charge predicted
       N       E                     dE             d eps       ncg     rms          rms(c)
DAV:   1    -0.181557239826E+03    0.69797E-02   -0.21015E-01  2772   0.750E-01    0.185E-01
RMM:   2    -0.181566687807E+03   -0.94480E-02   -0.10764E-02  2778   0.154E-01    0.115E+00
RMM:   3    -0.181558084429E+03    0.86034E-02   -0.13493E-03  2759   0.696E-02    0.344E-01
RMM:   4    -0.181558194768E+03   -0.11034E-03   -0.91966E-04  2714   0.646E-02    0.288E-01
RMM:   5    -0.181557588659E+03    0.60611E-03   -0.42009E-04  1899   0.409E-02    0.902E-02
RMM:   6    -0.181557853715E+03   -0.26506E-03   -0.29948E-04  1734   0.362E-02    0.190E-01
RMM:   7    -0.181557602860E+03    0.25086E-03   -0.18118E-04  1547   0.304E-02    0.665E-02
RMM:   8    -0.181557589650E+03    0.13209E-04   -0.54823E-05  1443   0.153E-02
  92 F= -.18155759E+03 E0= -.18155662E+03  d E =0.669052E-02
quench:  g(F)=  0.000E+00 g(S)=  0.000E+00 dE (1.order)= 0.000E+00
 bond charge predicted
       N       E                     dE             d eps       ncg     rms          rms(c)
DAV:   1    -0.181543252411E+03    0.14350E-01   -0.55333E-01  2772   0.133E+00    0.261E-01
RMM:   2    -0.181549628208E+03   -0.63758E-02   -0.24546E-02  2778   0.237E-01    0.860E-01
RMM:   3    -0.181546947556E+03    0.26807E-02   -0.16469E-03  2777   0.714E-02    0.633E-01
RMM:   4    -0.181545136818E+03    0.18107E-02   -0.16051E-03  2774   0.798E-02    0.348E-01
RMM:   5    -0.181544744303E+03    0.39252E-03   -0.10354E-03  2743   0.627E-02    0.242E-01
RMM:   6    -0.181544763678E+03   -0.19375E-04   -0.76838E-04  2642   0.540E-02
  93 F= -.18154476E+03 E0= -.18154381E+03  d E =0.128260E-01
quench:  g(F)=  0.000E+00 g(S)=  0.000E+00 dE (1.order)= 0.000E+00
 bond charge predicted
       N       E                     dE             d eps       ncg     rms          rms(c)
DAV:   1    -0.181526739448E+03    0.18005E-01   -0.13061E+00  2772   0.219E+00    0.394E-01
RMM:   2    -0.181594889088E+03   -0.68150E-01   -0.49066E-02  2778   0.377E-01    0.307E+00
RMM:   3    -0.181530031994E+03    0.64857E-01   -0.67145E-03  2785   0.159E-01    0.597E-01
RMM:   4    -0.181530515230E+03   -0.48324E-03   -0.49248E-03  2773   0.147E-01    0.531E-01
RMM:   5    -0.181529110135E+03    0.14051E-02   -0.19572E-03  2782   0.818E-02    0.251E-01
RMM:   6    -0.181530113722E+03   -0.10036E-02   -0.13850E-03  2770   0.710E-02    0.403E-01
RMM:   7    -0.181528948074E+03    0.11656E-02   -0.74236E-04  2688   0.541E-02    0.173E-01
RMM:   8    -0.181528945469E+03    0.26049E-05   -0.32032E-04  1797   0.373E-02
  94 F= -.18152895E+03 E0= -.18152818E+03  d E =0.158182E-01
quench:  g(F)=  0.000E+00 g(S)=  0.000E+00 dE (1.order)= 0.000E+00
 bond charge predicted
       N       E                     dE             d eps       ncg     rms          rms(c)
DAV:   1    -0.181527743953E+03    0.12041E-02   -0.25138E+00  2772   0.306E+00    0.473E-01
RMM:   2    -0.181592711001E+03   -0.64967E-01   -0.72113E-02  2780   0.459E-01    0.298E+00
RMM:   3    -0.181532580490E+03    0.60131E-01   -0.70107E-03  2788   0.162E-01    0.642E-01
RMM:   4    -0.181534889466E+03   -0.23090E-02   -0.53374E-03  2779   0.150E-01    0.766E-01
RMM:   5    -0.181533367409E+03    0.15221E-02   -0.35881E-03  2777   0.116E-01    0.550E-01
RMM:   6    -0.181532130366E+03    0.12370E-02   -0.26637E-03  2779   0.101E-01    0.361E-01
RMM:   7    -0.181532086356E+03    0.44010E-04   -0.13140E-03  2751   0.699E-02    0.300E-01
RMM:   8    -0.181531609432E+03    0.47692E-03   -0.71884E-04  2690   0.513E-02    0.145E-01
RMM:   9    -0.181531533013E+03    0.76419E-04   -0.24903E-04  1618   0.317E-02
  95 F= -.18153153E+03 E0= -.18153098E+03  d E =-.258754E-02
quench:  g(F)=  0.000E+00 g(S)=  0.000E+00 dE (1.order)= 0.000E+00
 bond charge predicted
       N       E                     dE             d eps       ncg     rms          rms(c)
DAV:   1    -0.181533065232E+03   -0.14558E-02   -0.34130E+00  2772   0.342E+00    0.603E-01
RMM:   2    -0.181574960461E+03   -0.41895E-01   -0.12467E-01  2781   0.556E-01    0.227E+00
RMM:   3    -0.181545328806E+03    0.29632E-01   -0.78524E-03  2784   0.160E-01    0.104E+00
RMM:   4    -0.181546025193E+03   -0.69639E-03   -0.89548E-03  2778   0.185E-01    0.103E+00
RMM:   5    -0.181540606670E+03    0.54185E-02   -0.56890E-03  2780   0.147E-01    0.538E-01
RMM:   6    -0.181541422319E+03   -0.81565E-03   -0.40184E-03  2778   0.124E-01    0.573E-01
RMM:   7    -0.181539163482E+03    0.22588E-02   -0.20278E-03  2774   0.879E-02    0.250E-01
RMM:   8    -0.181538960021E+03    0.20346E-03   -0.81961E-04  2720   0.556E-02    0.161E-01
RMM:   9    -0.181538941306E+03    0.18715E-04   -0.27207E-04  1658   0.331E-02
  96 F= -.18153894E+03 E0= -.18153846E+03  d E =-.740829E-02
quench:  g(F)=  0.000E+00 g(S)=  0.000E+00 dE (1.order)= 0.000E+00
 bond charge predicted
       N       E                     dE             d eps       ncg     rms          rms(c)
DAV:   1    -0.181534769354E+03    0.41907E-02   -0.23798E+00  2772   0.311E+00    0.415E-01
RMM:   2    -0.181555801028E+03   -0.21032E-01   -0.67946E-02  2780   0.438E-01    0.158E+00
RMM:   3    -0.181552119640E+03    0.36814E-02   -0.58961E-03  2785   0.136E-01    0.138E+00
RMM:   4    -0.181541016411E+03    0.11103E-01   -0.52155E-03  2775   0.145E-01    0.616E-01
RMM:   5    -0.181540341177E+03    0.67523E-03   -0.23895E-03  2778   0.101E-01    0.471E-01
RMM:   6    -0.181540095786E+03    0.24539E-03   -0.13059E-03  2765   0.717E-02    0.385E-01
RMM:   7    -0.181539273827E+03    0.82196E-03   -0.71311E-04  2650   0.516E-02    0.170E-01
RMM:   8    -0.181539189099E+03    0.84728E-04   -0.36924E-04  1971   0.387E-02
  97 F= -.18153919E+03 E0= -.18153874E+03  d E =-.247793E-03
quench:  g(F)=  0.000E+00 g(S)=  0.000E+00 dE (1.order)= 0.000E+00
 bond charge predicted
       N       E                     dE             d eps       ncg     rms          rms(c)
DAV:   1    -0.181541527008E+03   -0.22532E-02   -0.23329E+00  2772   0.308E+00    0.410E-01
RMM:   2    -0.181547386915E+03   -0.58599E-02   -0.64520E-02  2779   0.412E-01    0.506E-01
RMM:   3    -0.181548637613E+03   -0.12507E-02   -0.65966E-03  2781   0.154E-01    0.729E-01
RMM:   4    -0.181553913224E+03   -0.52756E-02   -0.21287E-03  2780   0.771E-02    0.120E+00
RMM:   5    -0.181544888786E+03    0.90244E-02   -0.17157E-03  2770   0.857E-02    0.261E-01
RMM:   6    -0.181545200937E+03   -0.31215E-03   -0.94558E-04  2722   0.635E-02    0.261E-01
RMM:   7    -0.181544920197E+03    0.28074E-03   -0.49374E-04  2260   0.439E-02    0.170E-01
RMM:   8    -0.181544827965E+03    0.92232E-04   -0.31507E-04  1731   0.372E-02
  98 F= -.18154483E+03 E0= -.18154433E+03  d E =-.563887E-02
quench:  g(F)=  0.000E+00 g(S)=  0.000E+00 dE (1.order)= 0.000E+00
 bond charge predicted
       N       E                     dE             d eps       ncg     rms          rms(c)
DAV:   1    -0.181548692774E+03   -0.37726E-02   -0.18901E+00  2772   0.273E+00    0.374E-01
RMM:   2    -0.181553976946E+03   -0.52842E-02   -0.55404E-02  2780   0.386E-01    0.429E-01
RMM:   3    -0.181568070115E+03   -0.14093E-01   -0.65069E-03  2783   0.146E-01    0.154E+00
RMM:   4    -0.181555425305E+03    0.12645E-01   -0.25806E-03  2771   0.942E-02    0.742E-01
RMM:   5    -0.181552374759E+03    0.30505E-02   -0.21611E-03  2768   0.985E-02    0.235E-01
RMM:   6    -0.181552468930E+03   -0.94171E-04   -0.80309E-04  2701   0.567E-02
  99 F= -.18155247E+03 E0= -.18155201E+03  d E =-.764097E-02
quench:  g(F)=  0.000E+00 g(S)=  0.000E+00 dE (1.order)= 0.000E+00
 bond charge predicted
       N       E                     dE             d eps       ncg     rms          rms(c)
DAV:   1    -0.181555697554E+03   -0.33228E-02   -0.97243E-01  2772   0.190E+00    0.349E-01
RMM:   2    -0.181581506630E+03   -0.25809E-01   -0.40792E-02  2792   0.340E-01    0.188E+00
RMM:   3    -0.181570610226E+03    0.10896E-01   -0.63654E-03  2785   0.143E-01    0.141E+00
RMM:   4    -0.181558817423E+03    0.11793E-01   -0.40337E-03  2775   0.133E-01    0.478E-01
RMM:   5    -0.181557571034E+03    0.12464E-02   -0.15342E-03  2764   0.785E-02    0.192E-01
RMM:   6    -0.181557852937E+03   -0.28190E-03   -0.92827E-04  2760   0.595E-02    0.224E-01
RMM:   7    -0.181557693143E+03    0.15979E-03   -0.40727E-04  2019   0.406E-02    0.162E-01
RMM:   8    -0.181557593848E+03    0.99295E-04   -0.22761E-04  1587   0.322E-02
 100 F= -.18155759E+03 E0= -.18155694E+03  d E =-.512492E-02
quench:  g(F)=  0.000E+00 g(S)=  0.000E+00 dE (1.order)= 0.000E+00
 bond charge predicted
       N       E                     dE             d eps       ncg     rms          rms(c)
DAV:   1    -0.181560067098E+03   -0.23740E-02   -0.13106E-01  2826   0.656E-01    0.139E-01
RMM:   2    -0.181563652850E+03   -0.35858E-02   -0.68707E-03  2784   0.138E-01    0.678E-01
RMM:   3    -0.181562311337E+03    0.13415E-02   -0.86917E-04  2674   0.527E-02    0.553E-01
RMM:   4    -0.181560397368E+03    0.19140E-02   -0.69341E-04  2664   0.547E-02    0.138E-01
RMM:   5    -0.181560425076E+03   -0.27709E-04   -0.24377E-04  1627   0.327E-02
 101 F= -.18156043E+03 E0= -.18155975E+03  d E =-.283123E-02
quench:  g(F)=  0.000E+00 g(S)=  0.000E+00 dE (1.order)= 0.000E+00
 bond charge predicted
       N       E                     dE             d eps       ncg     rms          rms(c)
DAV:   1    -0.181562723211E+03   -0.23258E-02   -0.16268E-01  2772   0.792E-01    0.149E-01
RMM:   2    -0.181565400443E+03   -0.26772E-02   -0.59402E-03  2791   0.146E-01    0.561E-01
RMM:   3    -0.181563043976E+03    0.23565E-02   -0.12831E-03  2751   0.703E-02    0.249E-01
RMM:   4    -0.181564323619E+03   -0.12796E-02   -0.33200E-04  1877   0.361E-02    0.459E-01
RMM:   5    -0.181563049294E+03    0.12743E-02   -0.34121E-04  1893   0.383E-02    0.141E-01
RMM:   6    -0.181562984864E+03    0.64429E-04   -0.17273E-04  1557   0.306E-02
 102 F= -.18156298E+03 E0= -.18156230E+03  d E =-.255979E-02
quench:  g(F)=  0.000E+00 g(S)=  0.000E+00 dE (1.order)= 0.000E+00
 bond charge predicted
       N       E                     dE             d eps       ncg     rms          rms(c)
DAV:   1    -0.181565481757E+03   -0.24325E-02   -0.22669E-01  2772   0.931E-01    0.149E-01
RMM:   2    -0.181567456751E+03   -0.19750E-02   -0.68973E-03  2793   0.157E-01    0.467E-01
RMM:   3    -0.181568424038E+03   -0.96729E-03   -0.12429E-03  2758   0.655E-02    0.627E-01
RMM:   4    -0.181565773530E+03    0.26505E-02   -0.34081E-04  1879   0.388E-02    0.116E-01
RMM:   5    -0.181565932031E+03   -0.15850E-03   -0.25797E-04  1619   0.360E-02    0.103E-01
RMM:   6    -0.181565898157E+03    0.33874E-04   -0.13983E-04  1471   0.262E-02
 103 F= -.18156590E+03 E0= -.18156519E+03  d E =-.291329E-02
quench:  g(F)=  0.000E+00 g(S)=  0.000E+00 dE (1.order)= 0.000E+00
 bond charge predicted
       N       E                     dE             d eps       ncg     rms          rms(c)
DAV:   1    -0.181568328430E+03   -0.23964E-02   -0.29339E-01  2772   0.105E+00    0.146E-01
RMM:   2    -0.181569709965E+03   -0.13815E-02   -0.74365E-03  2799   0.167E-01    0.352E-01
RMM:   3    -0.181569564571E+03    0.14539E-03   -0.98013E-04  2747   0.602E-02    0.369E-01
RMM:   4    -0.181569166477E+03    0.39809E-03   -0.24634E-04  1662   0.327E-02    0.249E-01
RMM:   5    -0.181569045529E+03    0.12095E-03   -0.34135E-04  1880   0.390E-02    0.189E-01
RMM:   6    -0.181568833358E+03    0.21217E-03   -0.16920E-04  1540   0.289E-02    0.811E-02
RMM:   7    -0.181568871592E+03   -0.38234E-04   -0.97026E-05  1475   0.213E-02
 104 F= -.18156887E+03 E0= -.18156817E+03  d E =-.297343E-02
quench:  g(F)=  0.000E+00 g(S)=  0.000E+00 dE (1.order)= 0.000E+00
 bond charge predicted
       N       E                     dE             d eps       ncg     rms          rms(c)
DAV:   1    -0.181571071600E+03   -0.22382E-02   -0.36241E-01  2772   0.116E+00    0.138E-01
RMM:   2    -0.181572827841E+03   -0.17562E-02   -0.80715E-03  2799   0.179E-01    0.411E-01
RMM:   3    -0.181573626795E+03   -0.79895E-03   -0.93152E-04  2743   0.562E-02    0.567E-01
RMM:   4    -0.181571610911E+03    0.20159E-02   -0.35412E-04  1915   0.403E-02    0.118E-01
RMM:   5    -0.181571840518E+03   -0.22961E-03   -0.27098E-04  1630   0.358E-02    0.171E-01
RMM:   6    -0.181571690146E+03    0.15037E-03   -0.16035E-04  1527   0.282E-02    0.103E-01
RMM:   7    -0.181571726063E+03   -0.35917E-04   -0.89847E-05  1483   0.203E-02
 105 F= -.18157173E+03 E0= -.18157098E+03  d E =-.285447E-02
quench:  g(F)=  0.000E+00 g(S)=  0.000E+00 dE (1.order)= 0.000E+00
 bond charge predicted
       N       E                     dE             d eps       ncg     rms          rms(c)
DAV:   1    -0.181573412724E+03   -0.17226E-02   -0.40339E-01  2772   0.121E+00    0.132E-01
RMM:   2    -0.181574853730E+03   -0.14410E-02   -0.83457E-03  2801   0.188E-01    0.336E-01
RMM:   3    -0.181574338663E+03    0.51507E-03   -0.88049E-04  2732   0.571E-02    0.258E-01
RMM:   4    -0.181575017839E+03   -0.67918E-03   -0.27134E-04  1729   0.308E-02    0.410E-01
RMM:   5    -0.181574088641E+03    0.92920E-03   -0.25161E-04  1625   0.349E-02    0.143E-01
RMM:   6    -0.181574032276E+03    0.56364E-04   -0.14697E-04  1536   0.281E-02
 106 F= -.18157403E+03 E0= -.18157329E+03  d E =-.230621E-02
quench:  g(F)=  0.000E+00 g(S)=  0.000E+00 dE (1.order)= 0.000E+00
 bond charge predicted
       N       E                     dE             d eps       ncg     rms          rms(c)
[...]
 472 F= -.18156886E+03 E0= -.18156785E+03  d E =0.210676E-02
quench:  g(F)=  0.000E+00 g(S)=  0.000E+00 dE (1.order)= 0.000E+00
 bond charge predicted
       N       E                     dE             d eps       ncg     rms          rms(c)
DAV:   1    -0.181564784663E+03    0.40696E-02   -0.10161E-01  2772   0.560E-01    0.133E-01
RMM:   2    -0.181566076052E+03   -0.12914E-02   -0.38530E-03  2776   0.103E-01    0.404E-01
RMM:   3    -0.181566083672E+03   -0.76205E-05   -0.68304E-04  2573   0.494E-02
 473 F= -.18156608E+03 E0= -.18156512E+03  d E =0.277658E-02
quench:  g(F)=  0.000E+00 g(S)=  0.000E+00 dE (1.order)= 0.000E+00
 bond charge predicted
       N       E                     dE             d eps       ncg     rms          rms(c)
DAV:   1    -0.181562739944E+03    0.33361E-02   -0.17805E-01  2772   0.835E-01    0.242E-01
RMM:   2    -0.181605818570E+03   -0.43079E-01   -0.11631E-02  2780   0.207E-01    0.247E+00
RMM:   3    -0.181567536251E+03    0.38282E-01   -0.57825E-03  2762   0.140E-01    0.909E-01
RMM:   4    -0.181562940256E+03    0.45960E-02   -0.18660E-03  2752   0.105E-01    0.203E-01
RMM:   5    -0.181563383581E+03   -0.44332E-03   -0.61469E-04  2462   0.494E-02    0.211E-01
RMM:   6    -0.181563074579E+03    0.30900E-03   -0.44702E-04  2138   0.423E-02    0.118E-01
RMM:   7    -0.181563095702E+03   -0.21123E-04   -0.16637E-04  1545   0.274E-02
 474 F= -.18156310E+03 E0= -.18156209E+03  d E =0.298797E-02
quench:  g(F)=  0.000E+00 g(S)=  0.000E+00 dE (1.order)= 0.000E+00
 bond charge predicted
       N       E                     dE             d eps       ncg     rms          rms(c)
DAV:   1    -0.181565896961E+03   -0.28224E-02   -0.23142E-01  2778   0.870E-01    0.160E-01
RMM:   2    -0.181567788593E+03   -0.18916E-02   -0.67906E-03  2782   0.133E-01    0.456E-01
RMM:   3    -0.181567321424E+03    0.46717E-03   -0.53729E-04  2256   0.417E-02    0.427E-01
RMM:   4    -0.181566651877E+03    0.66955E-03   -0.59721E-04  2540   0.475E-02    0.282E-01
RMM:   5    -0.181566424081E+03    0.22780E-03   -0.36835E-04  1840   0.401E-02    0.162E-01
RMM:   6    -0.181566317619E+03    0.10646E-03   -0.24662E-04  1599   0.342E-02    0.113E-01
RMM:   7    -0.181566313187E+03    0.44325E-05   -0.11966E-04  1512   0.237E-02
 475 F= -.18156631E+03 E0= -.18156541E+03  d E =-.321748E-02
quench:  g(F)=  0.000E+00 g(S)=  0.000E+00 dE (1.order)= 0.000E+00
 bond charge predicted
       N       E                     dE             d eps       ncg     rms          rms(c)
DAV:   1    -0.181569289146E+03   -0.29715E-02   -0.24352E-01  2772   0.745E-01    0.183E-01
RMM:   2    -0.181570973189E+03   -0.16840E-02   -0.71750E-03  2769   0.115E-01    0.454E-01
RMM:   3    -0.181572142152E+03   -0.11690E-02   -0.80643E-04  2598   0.494E-02    0.626E-01
RMM:   4    -0.181570084631E+03    0.20575E-02   -0.98783E-04  2737   0.614E-02    0.298E-01
RMM:   5    -0.181569718693E+03    0.36594E-03   -0.49886E-04  2192   0.457E-02    0.139E-01
RMM:   6    -0.181569656797E+03    0.61896E-04   -0.20242E-04  1566   0.296E-02
 476 F= -.18156966E+03 E0= -.18156877E+03  d E =-.334361E-02
quench:  g(F)=  0.000E+00 g(S)=  0.000E+00 dE (1.order)= 0.000E+00
 bond charge predicted
       N       E                     dE             d eps       ncg     rms          rms(c)
DAV:   1    -0.181570626615E+03   -0.90792E-03   -0.26795E-01  2778   0.888E-01    0.205E-01
RMM:   2    -0.181577536899E+03   -0.69103E-02   -0.92770E-03  2783   0.154E-01    0.970E-01
RMM:   3    -0.181572821643E+03    0.47153E-02   -0.13679E-03  2751   0.680E-02    0.579E-01
RMM:   4    -0.181571201759E+03    0.16199E-02   -0.11773E-03  2720   0.707E-02    0.241E-01
RMM:   5    -0.181571291935E+03   -0.90176E-04   -0.54543E-04  2327   0.474E-02
 477 F= -.18157129E+03 E0= -.18157038E+03  d E =-.163514E-02
quench:  g(F)=  0.000E+00 g(S)=  0.000E+00 dE (1.order)= 0.000E+00
 bond charge predicted
       N       E                     dE             d eps       ncg     rms          rms(c)
DAV:   1    -0.181570045241E+03    0.11565E-02   -0.26148E-01  2772   0.948E-01    0.206E-01
RMM:   2    -0.181572236282E+03   -0.21910E-02   -0.84994E-03  2786   0.154E-01    0.480E-01
RMM:   3    -0.181574055350E+03   -0.18191E-02   -0.18019E-03  2786   0.781E-02    0.757E-01
RMM:   4    -0.181571341837E+03    0.27135E-02   -0.82644E-04  2600   0.539E-02    0.413E-01
RMM:   5    -0.181570585646E+03    0.75619E-03   -0.55477E-04  2415   0.504E-02    0.180E-01
RMM:   6    -0.181570550309E+03    0.35336E-04   -0.22709E-04  1598   0.331E-02
 478 F= -.18157055E+03 E0= -.18156972E+03  d E =0.741626E-03
quench:  g(F)=  0.000E+00 g(S)=  0.000E+00 dE (1.order)= 0.000E+00
 bond charge predicted
       N       E                     dE             d eps       ncg     rms          rms(c)
DAV:   1    -0.181568600691E+03    0.19850E-02   -0.33812E-01  2772   0.112E+00    0.193E-01
RMM:   2    -0.181570292191E+03   -0.16915E-02   -0.98727E-03  2790   0.161E-01    0.406E-01
RMM:   3    -0.181575078840E+03   -0.47866E-02   -0.15716E-03  2777   0.715E-02    0.931E-01
RMM:   4    -0.181569877564E+03    0.52013E-02   -0.10669E-03  2710   0.623E-02    0.389E-01
RMM:   5    -0.181569193381E+03    0.68418E-03   -0.52033E-04  2246   0.516E-02    0.138E-01
RMM:   6    -0.181569261011E+03   -0.67631E-04   -0.20788E-04  1571   0.306E-02
 479 F= -.18156926E+03 E0= -.18156837E+03  d E =0.128930E-02
quench:  g(F)=  0.000E+00 g(S)=  0.000E+00 dE (1.order)= 0.000E+00
 bond charge predicted
       N       E                     dE             d eps       ncg     rms          rms(c)
DAV:   1    -0.181568030414E+03    0.11630E-02   -0.46543E-01  2772   0.134E+00    0.215E-01
RMM:   2    -0.181570636434E+03   -0.26060E-02   -0.13314E-02  2787   0.184E-01    0.522E-01
RMM:   3    -0.181578519892E+03   -0.78835E-02   -0.21304E-03  2785   0.812E-02    0.118E+00
RMM:   4    -0.181568829719E+03    0.96902E-02   -0.16412E-03  2770   0.790E-02    0.312E-01
RMM:   5    -0.181568805587E+03    0.24132E-04   -0.65617E-04  2620   0.583E-02
 480 F= -.18156881E+03 E0= -.18156794E+03  d E =0.455424E-03
quench:  g(F)=  0.000E+00 g(S)=  0.000E+00 dE (1.order)= 0.000E+00
 bond charge predicted
       N       E                     dE             d eps       ncg     rms          rms(c)
DAV:   1    -0.181569630091E+03   -0.80037E-03   -0.60767E-01  2772   0.153E+00    0.265E-01
RMM:   2    -0.181578274235E+03   -0.86441E-02   -0.19337E-02  2782   0.220E-01    0.100E+00
RMM:   3    -0.181577335222E+03    0.93901E-03   -0.28097E-03  2785   0.965E-02    0.110E+00
RMM:   4    -0.181571676735E+03    0.56585E-02   -0.27118E-03  2773   0.104E-01    0.490E-01
RMM:   5    -0.181570119057E+03    0.15577E-02   -0.10189E-03  2741   0.694E-02    0.143E-01
RMM:   6    -0.181570421445E+03   -0.30239E-03   -0.43020E-04  2087   0.430E-02    0.167E-01
RMM:   7    -0.181570277933E+03    0.14351E-03   -0.20274E-04  1554   0.306E-02    0.925E-02
RMM:   8    -0.181570279735E+03   -0.18019E-05   -0.10561E-04  1481   0.220E-02
 481 F= -.18157028E+03 E0= -.18156950E+03  d E =-.147415E-02
quench:  g(F)=  0.000E+00 g(S)=  0.000E+00 dE (1.order)= 0.000E+00
 bond charge predicted
       N       E                     dE             d eps       ncg     rms          rms(c)
DAV:   1    -0.181571558639E+03   -0.12807E-02   -0.67211E-01  2772   0.156E+00    0.261E-01
RMM:   2    -0.181573753727E+03   -0.21951E-02   -0.18964E-02  2784   0.208E-01    0.354E-01
RMM:   3    -0.181585487805E+03   -0.11734E-01   -0.27467E-03  2781   0.891E-02    0.140E+00
RMM:   4    -0.181572982717E+03    0.12505E-01   -0.18059E-03  2776   0.837E-02    0.392E-01
RMM:   5    -0.181572598133E+03    0.38458E-03   -0.10941E-03  2761   0.725E-02    0.173E-01
RMM:   6    -0.181572578517E+03    0.19615E-04   -0.31551E-04  1776   0.361E-02
 482 F= -.18157258E+03 E0= -.18157175E+03  d E =-.229878E-02
quench:  g(F)=  0.000E+00 g(S)=  0.000E+00 dE (1.order)= 0.000E+00
 bond charge predicted
       N       E                     dE             d eps       ncg     rms          rms(c)
DAV:   1    -0.181573715071E+03   -0.11169E-02   -0.34366E-01  2772   0.109E+00    0.205E-01
RMM:   2    -0.181579758701E+03   -0.60436E-02   -0.98990E-03  2789   0.169E-01    0.918E-01
RMM:   3    -0.181576602902E+03    0.31558E-02   -0.16663E-03  2765   0.745E-02    0.672E-01
RMM:   4    -0.181574565607E+03    0.20373E-02   -0.14117E-03  2737   0.768E-02    0.316E-01
RMM:   5    -0.181574104948E+03    0.46066E-03   -0.52395E-04  2227   0.467E-02    0.158E-01
RMM:   6    -0.181574098925E+03    0.60233E-05   -0.24703E-04  1627   0.336E-02
 483 F= -.18157410E+03 E0= -.18157330E+03  d E =-.152041E-02
quench:  g(F)=  0.000E+00 g(S)=  0.000E+00 dE (1.order)= 0.000E+00
 bond charge predicted
       N       E                     dE             d eps       ncg     rms          rms(c)
DAV:   1    -0.181574568063E+03   -0.46312E-03   -0.10365E-01  2772   0.601E-01    0.101E-01
RMM:   2    -0.181575957003E+03   -0.13889E-02   -0.31657E-03  2780   0.109E-01    0.415E-01
RMM:   3    -0.181576319577E+03   -0.36257E-03   -0.56697E-04  2410   0.434E-02    0.518E-01
RMM:   4    -0.181574711629E+03    0.16079E-02   -0.49279E-04  2236   0.450E-02    0.146E-01
RMM:   5    -0.181574640926E+03    0.70703E-04   -0.11374E-04  1543   0.254E-02
 484 F= -.18157464E+03 E0= -.18157389E+03  d E =-.542001E-03
quench:  g(F)=  0.000E+00 g(S)=  0.000E+00 dE (1.order)= 0.000E+00
 bond charge predicted
       N       E                     dE             d eps       ncg     rms          rms(c)
DAV:   1    -0.181574774676E+03   -0.63047E-04   -0.32738E-02  2772   0.339E-01    0.691E-02
RMM:   2    -0.181576998418E+03   -0.22237E-02   -0.14977E-03  2750   0.720E-02    0.542E-01
RMM:   3    -0.181575187727E+03    0.18107E-02   -0.31284E-04  1815   0.334E-02    0.266E-01
RMM:   4    -0.181574816785E+03    0.37094E-03   -0.21839E-04  1587   0.338E-02    0.580E-02
RMM:   5    -0.181574861110E+03   -0.44326E-04   -0.61441E-05  1459   0.173E-02
 485 F= -.18157486E+03 E0= -.18157409E+03  d E =-.220185E-03
quench:  g(F)=  0.000E+00 g(S)=  0.000E+00 dE (1.order)= 0.000E+00
 bond charge predicted
       N       E                     dE             d eps       ncg     rms          rms(c)
DAV:   1    -0.181574916767E+03   -0.99982E-04   -0.72618E-03  2772   0.168E-01    0.388E-02
RMM:   2    -0.181575724667E+03   -0.80790E-03   -0.40908E-04  1796   0.400E-02    0.342E-01
RMM:   3    -0.181575122130E+03    0.60254E-03   -0.14701E-04  1537   0.261E-02    0.193E-01
RMM:   4    -0.181574917276E+03    0.20485E-03   -0.70482E-05  1512   0.200E-02    0.282E-02
RMM:   5    -0.181574941943E+03   -0.24667E-04   -0.19207E-05  1407   0.103E-02
 486 F= -.18157494E+03 E0= -.18157417E+03  d E =-.808330E-04
quench:  g(F)=  0.000E+00 g(S)=  0.000E+00 dE (1.order)= 0.000E+00
 bond charge predicted
       N       E                     dE             d eps       ncg     rms          rms(c)
DAV:   1    -0.181574988738E+03   -0.71461E-04   -0.95088E-03  2772   0.192E-01    0.277E-02
RMM:   2    -0.181575793982E+03   -0.80524E-03   -0.25248E-04  1599   0.302E-02    0.336E-01
RMM:   3    -0.181574957906E+03    0.83608E-03   -0.87227E-05  1500   0.207E-02    0.504E-02
RMM:   4    -0.181575006343E+03   -0.48437E-04   -0.36472E-05  1477   0.147E-02
 487 F= -.18157501E+03 E0= -.18157422E+03  d E =-.643996E-04
quench:  g(F)=  0.000E+00 g(S)=  0.000E+00 dE (1.order)= 0.000E+00
 bond charge predicted
       N       E                     dE             d eps       ncg     rms          rms(c)
DAV:   1    -0.181575034656E+03   -0.76750E-04   -0.14151E-02  2772   0.233E-01    0.344E-02
RMM:   2    -0.181575806841E+03   -0.77219E-03   -0.37699E-04  1700   0.359E-02    0.331E-01
RMM:   3    -0.181575017727E+03    0.78911E-03   -0.97830E-05  1502   0.219E-02    0.711E-02
RMM:   4    -0.181575057331E+03   -0.39603E-04   -0.50028E-05  1480   0.169E-02
 488 F= -.18157506E+03 E0= -.18157425E+03  d E =-.509875E-04
quench:  g(F)=  0.000E+00 g(S)=  0.000E+00 dE (1.order)= 0.000E+00
 bond charge predicted
       N       E                     dE             d eps       ncg     rms          rms(c)
DAV:   1    -0.181575070712E+03   -0.52984E-04   -0.19681E-02  2772   0.275E-01    0.507E-02
RMM:   2    -0.181576368663E+03   -0.12980E-02   -0.72918E-04  2359   0.496E-02    0.424E-01
RMM:   3    -0.181575232860E+03    0.11358E-02   -0.19944E-04  1567   0.293E-02    0.209E-01
RMM:   4    -0.181575086758E+03    0.14610E-03   -0.11810E-04  1544   0.259E-02    0.437E-02
RMM:   5    -0.181575104372E+03   -0.17614E-04   -0.33764E-05  1437   0.126E-02
 489 F= -.18157510E+03 E0= -.18157431E+03  d E =-.470417E-04
quench:  g(F)=  0.000E+00 g(S)=  0.000E+00 dE (1.order)= 0.000E+00
 bond charge predicted
       N       E                     dE             d eps       ncg     rms          rms(c)
DAV:   1    -0.181575096397E+03   -0.96386E-05   -0.26038E-02  2772   0.316E-01    0.533E-02
RMM:   2    -0.181577272742E+03   -0.21763E-02   -0.86260E-04  2387   0.504E-02    0.546E-01
RMM:   3    -0.181575050724E+03    0.22220E-02   -0.21886E-04  1581   0.310E-02    0.116E-01
RMM:   4    -0.181575143642E+03   -0.92919E-04   -0.13470E-04  1550   0.276E-02
 490 F= -.18157514E+03 E0= -.18157435E+03  d E =-.392702E-04
quench:  g(F)=  0.000E+00 g(S)=  0.000E+00 dE (1.order)= 0.000E+00
 bond charge predicted
       N       E                     dE             d eps       ncg     rms          rms(c)
DAV:   1    -0.181575087365E+03   -0.36642E-04   -0.32044E-02  2772   0.349E-01    0.645E-02
RMM:   2    -0.181579070410E+03   -0.39830E-02   -0.12086E-03  2641   0.588E-02    0.751E-01
RMM:   3    -0.181574984771E+03    0.40856E-02   -0.39367E-04  2012   0.400E-02    0.134E-01
RMM:   4    -0.181575158636E+03   -0.17387E-03   -0.16987E-04  1552   0.320E-02    0.845E-02
RMM:   5    -0.181575140700E+03    0.17936E-04   -0.52495E-05  1471   0.163E-02
 491 F= -.18157514E+03 E0= -.18157433E+03  d E =0.294250E-05
quench:  g(F)=  0.000E+00 g(S)=  0.000E+00 dE (1.order)= 0.000E+00
 bond charge predicted
       N       E                     dE             d eps       ncg     rms          rms(c)
DAV:   1    -0.181575094306E+03    0.64330E-04   -0.37915E-02  2772   0.380E-01    0.642E-02
RMM:   2    -0.181576033456E+03   -0.93915E-03   -0.10927E-03  2195   0.537E-02    0.350E-01
RMM:   3    -0.181575230291E+03    0.80316E-03   -0.15546E-04  1556   0.256E-02    0.164E-01
RMM:   4    -0.181575179003E+03    0.51288E-04   -0.14420E-04  1554   0.270E-02
 492 F= -.18157518E+03 E0= -.18157439E+03  d E =-.383033E-04
quench:  g(F)=  0.000E+00 g(S)=  0.000E+00 dE (1.order)= 0.000E+00
 bond charge predicted
       N       E                     dE             d eps       ncg     rms          rms(c)
DAV:   1    -0.181575058575E+03    0.17172E-03   -0.40756E-02  2772   0.392E-01    0.799E-02
RMM:   2    -0.181580338597E+03   -0.52800E-02   -0.17163E-03  2768   0.712E-02    0.865E-01
RMM:   3    -0.181574996835E+03    0.53418E-02   -0.57603E-04  2391   0.478E-02    0.195E-01
RMM:   4    -0.181575140227E+03   -0.14339E-03   -0.25465E-04  1682   0.390E-02    0.798E-02
RMM:   5    -0.181575158736E+03   -0.18508E-04   -0.65248E-05  1481   0.173E-02
 493 F= -.18157516E+03 E0= -.18157433E+03  d E =0.202676E-04
quench:  g(F)=  0.000E+00 g(S)=  0.000E+00 dE (1.order)= 0.000E+00
 bond charge predicted
       N       E                     dE             d eps       ncg     rms          rms(c)
DAV:   1    -0.181575067872E+03    0.72355E-04   -0.39647E-02  2772   0.390E-01    0.878E-02
RMM:   2    -0.181581704659E+03   -0.66368E-02   -0.21051E-03  2776   0.776E-02    0.962E-01
RMM:   3    -0.181575006427E+03    0.66982E-02   -0.66485E-04  2509   0.513E-02    0.210E-01
RMM:   4    -0.181575144215E+03   -0.13779E-03   -0.35538E-04  1889   0.437E-02    0.104E-01
RMM:   5    -0.181575111702E+03    0.32513E-04   -0.82802E-05  1522   0.194E-02
 494 F= -.18157511E+03 E0= -.18157427E+03  d E =0.470335E-04
quench:  g(F)=  0.000E+00 g(S)=  0.000E+00 dE (1.order)= 0.000E+00
 bond charge predicted
       N       E                     dE             d eps       ncg     rms          rms(c)
DAV:   1    -0.181575054239E+03    0.89976E-04   -0.22318E-02  2772   0.284E-01    0.809E-02
RMM:   2    -0.181577617833E+03   -0.25636E-02   -0.16294E-03  2776   0.746E-02    0.594E-01
RMM:   3    -0.181575880227E+03    0.17376E-02   -0.49451E-04  2238   0.427E-02    0.398E-01
RMM:   4    -0.181575049281E+03    0.83095E-03   -0.29525E-04  1773   0.391E-02    0.552E-02
RMM:   5    -0.181575121441E+03   -0.72160E-04   -0.73430E-05  1487   0.191E-02
 495 F= -.18157512E+03 E0= -.18157426E+03  d E =-.973865E-05
quench:  g(F)=  0.000E+00 g(S)=  0.000E+00 dE (1.order)= 0.000E+00
 bond charge predicted
       N       E                     dE             d eps       ncg     rms          rms(c)
DAV:   1    -0.181575101800E+03   -0.52519E-04   -0.46649E-03  2772   0.133E-01    0.511E-02
RMM:   2    -0.181580979775E+03   -0.58780E-02   -0.87025E-04  2619   0.504E-02    0.920E-01
RMM:   3    -0.181574833005E+03    0.61468E-02   -0.50681E-04  2272   0.456E-02    0.989E-02
RMM:   4    -0.181575110043E+03   -0.27704E-03   -0.14009E-04  1566   0.317E-02    0.441E-02
RMM:   5    -0.181575110258E+03   -0.21455E-06   -0.24537E-05  1454   0.105E-02
 496 F= -.18157511E+03 E0= -.18157427E+03  d E =0.111826E-04
quench:  g(F)=  0.000E+00 g(S)=  0.000E+00 dE (1.order)= 0.000E+00
 bond charge predicted
       N       E                     dE             d eps       ncg     rms          rms(c)
DAV:   1    -0.181575094785E+03    0.15259E-04   -0.51989E-03  2772   0.141E-01    0.383E-02
RMM:   2    -0.181575647424E+03   -0.55264E-03   -0.30117E-04  1656   0.337E-02    0.273E-01
RMM:   3    -0.181575263213E+03    0.38421E-03   -0.11773E-04  1523   0.234E-02    0.194E-01
RMM:   4    -0.181575088812E+03    0.17440E-03   -0.61607E-05  1506   0.184E-02    0.337E-02
RMM:   5    -0.181575103878E+03   -0.15067E-04   -0.16550E-05  1414   0.938E-03
 497 F= -.18157510E+03 E0= -.18157424E+03  d E =0.637975E-05
quench:  g(F)=  0.000E+00 g(S)=  0.000E+00 dE (1.order)= 0.000E+00
 bond charge predicted
       N       E                     dE             d eps       ncg     rms          rms(c)
DAV:   1    -0.181575071376E+03    0.17436E-04   -0.78627E-03  2772   0.172E-01    0.358E-02
RMM:   2    -0.181576009621E+03   -0.93825E-03   -0.31629E-04  1673   0.309E-02    0.365E-01
RMM:   3    -0.181575051051E+03    0.95857E-03   -0.10205E-04  1519   0.221E-02    0.808E-02
RMM:   4    -0.181575093342E+03   -0.42291E-04   -0.53954E-05  1488   0.176E-02
 498 F= -.18157509E+03 E0= -.18157424E+03  d E =0.105360E-04
quench:  g(F)=  0.000E+00 g(S)=  0.000E+00 dE (1.order)= 0.000E+00
 bond charge predicted
       N       E                     dE             d eps       ncg     rms          rms(c)
DAV:   1    -0.181575043385E+03    0.76662E-05   -0.11208E-02  2772   0.204E-01    0.409E-02
RMM:   2    -0.181575465866E+03   -0.42248E-03   -0.37120E-04  1715   0.334E-02    0.242E-01
RMM:   3    -0.181575148721E+03    0.31714E-03   -0.80901E-05  1495   0.191E-02    0.139E-01
RMM:   4    -0.181575069447E+03    0.79274E-04   -0.58591E-05  1497   0.173E-02
 499 F= -.18157507E+03 E0= -.18157416E+03  d E =0.238954E-04
quench:  g(F)=  0.000E+00 g(S)=  0.000E+00 dE (1.order)= 0.000E+00
 bond charge predicted
       N       E                     dE             d eps       ncg     rms          rms(c)
DAV:   1    -0.181575020874E+03    0.12785E-03   -0.15297E-02  2772   0.241E-01    0.553E-02
RMM:   2    -0.181576316731E+03   -0.12959E-02   -0.71367E-04  2277   0.484E-02    0.430E-01
RMM:   3    -0.181575178086E+03    0.11386E-02   -0.19958E-04  1573   0.296E-02    0.207E-01
RMM:   4    -0.181575044159E+03    0.13393E-03   -0.13083E-04  1552   0.270E-02    0.540E-02
RMM:   5    -0.181575050606E+03   -0.64469E-05   -0.40337E-05  1427   0.134E-02
 500 F= -.18157505E+03 E0= -.18157417E+03  d E =0.188412E-04
quench:  g(F)=  0.000E+00 g(S)=  0.000E+00 dE (1.order)= 0.000E+00
