 vasp.5.4.4.18Apr17-6-g9f103f2a35 (build Feb 06 2024 13:54:16) complex          
  
 POSCAR found type information on POSCAR  Cu Pd Cu N  O 
 03/POSCAR found :  5 types and      40 ions
 scaLAPACK will be used

 ----------------------------------------------------------------------------- 
|                                                                             |
|  ADVICE TO THIS USER RUNNING 'VASP/VAMP'   (HEAR YOUR MASTER'S VOICE ...):  |
|                                                                             |
|      You enforced a specific xc-type in the INCAR file,                     |
|      a different type was found on the POTCAR file                          |
|          I HOPE YOU KNOW, WHAT YOU ARE  DOING                               |
|                                                                             |
 ----------------------------------------------------------------------------- 

 LDA part: xc-table for Pade appr. of Perdew
 POSCAR found type information on POSCAR  Cu Pd Cu N  O 
 00/POSCAR found :  5 types and      40 ions
 POSCAR found type information on POSCAR  Cu Pd Cu N  O 
 06/POSCAR found :  5 types and      40 ions
 Jacobian:    20.5888137679208     
 POSCAR, INCAR and KPOINTS ok, starting setup
 FFT: planning ...
 WAVECAR not read
 entering main loop
       N       E                     dE             d eps       ncg     rms          rms(c)
DAV:   1     0.418321714160E+04    0.41832E+04   -0.17847E+05  4032   0.203E+03
DAV:   2     0.609294520629E+03   -0.35739E+04   -0.34451E+04  4032   0.460E+02
DAV:   3    -0.330614099001E+02   -0.64236E+03   -0.59084E+03  4779   0.232E+02
DAV:   4    -0.150663219147E+03   -0.11760E+03   -0.10370E+03  7020   0.940E+01
DAV:   5    -0.162910424203E+03   -0.12247E+02   -0.11536E+02  6273   0.312E+01    0.450E+01
RMM:   6    -0.183358253169E+03   -0.20448E+02   -0.37679E+02  4073   0.971E+01    0.510E+01
RMM:   7    -0.171657754351E+03    0.11700E+02   -0.12639E+02  4167   0.459E+01    0.355E+01
RMM:   8    -0.147281582696E+03    0.24376E+02   -0.20651E+01  4079   0.200E+01    0.251E+01
RMM:   9    -0.139771412049E+03    0.75102E+01   -0.68603E+00  4104   0.123E+01    0.148E+01
RMM:  10    -0.135456473905E+03    0.43149E+01   -0.13650E+01  4144   0.127E+01    0.831E+00
RMM:  11    -0.134493353650E+03    0.96312E+00   -0.27480E+00  4115   0.643E+00    0.454E+00
RMM:  12    -0.134384559427E+03    0.10879E+00   -0.10251E+00  4099   0.438E+00    0.371E+00
RMM:  13    -0.134473107968E+03   -0.88549E-01   -0.58143E-01  4085   0.300E+00    0.399E+00
RMM:  14    -0.134205876097E+03    0.26723E+00   -0.23145E-01  4127   0.190E+00    0.239E+00
RMM:  15    -0.134150692365E+03    0.55184E-01   -0.20163E-01  4233   0.122E+00    0.183E+00
RMM:  16    -0.134113328948E+03    0.37363E-01   -0.85857E-02  4144   0.103E+00    0.126E+00
RMM:  17    -0.134088104263E+03    0.25225E-01   -0.26224E-02  4258   0.465E-01    0.847E-01
RMM:  18    -0.134076539308E+03    0.11565E-01   -0.84236E-03  4254   0.291E-01    0.637E-01
RMM:  19    -0.134068423650E+03    0.81157E-02   -0.82179E-03  4362   0.240E-01    0.416E-01
RMM:  20    -0.134064849570E+03    0.35741E-02   -0.40073E-03  4183   0.213E-01    0.235E-01
RMM:  21    -0.134063220412E+03    0.16292E-02   -0.34110E-03  4244   0.157E-01    0.118E-01
RMM:  22    -0.134063062691E+03    0.15772E-03   -0.87172E-04  4951   0.738E-02    0.874E-02
RMM:  23    -0.134063252168E+03   -0.18948E-03   -0.30177E-04  4675   0.400E-02    0.574E-02
RMM:  24    -0.134063714261E+03   -0.46209E-03   -0.20646E-04  4053   0.374E-02    0.356E-02
RMM:  25    -0.134063986131E+03   -0.27187E-03   -0.72594E-05  3275   0.209E-02    0.362E-02
RMM:  26    -0.134064202214E+03   -0.21608E-03   -0.51263E-05  2763   0.196E-02    0.303E-02
RMM:  27    -0.134064398104E+03   -0.19589E-03   -0.45332E-05  2711   0.220E-02    0.208E-02
RMM:  28    -0.134064505429E+03   -0.10733E-03   -0.25012E-05  2479   0.166E-02    0.135E-02
RMM:  29    -0.134064560729E+03   -0.55300E-04   -0.11399E-05  2364   0.128E-02    0.120E-02
RMM:  30    -0.134064643215E+03   -0.82486E-04   -0.97568E-06  2394   0.101E-02    0.943E-03
RMM:  31    -0.134064668816E+03   -0.25601E-04   -0.53348E-06  2341   0.746E-03    0.869E-03
RMM:  32    -0.134064678855E+03   -0.10039E-04   -0.35917E-06  2305   0.788E-03    0.415E-03
RMM:  33    -0.134064689106E+03   -0.10251E-04   -0.16397E-06  2275   0.364E-03    0.306E-03
RMM:  34    -0.134064699172E+03   -0.10067E-04   -0.12458E-06  2311   0.415E-03    0.185E-03
RMM:  35    -0.134064704081E+03   -0.49085E-05   -0.75627E-07  2138   0.257E-03
   1 F= -.13406470E+03 E0= -.13405950E+03  d E =-.134065E+03
quench:  g(F)=  0.000E+00 g(S)=  0.000E+00 dE (1.order)= 0.000E+00
 bond charge predicted
       N       E                     dE             d eps       ncg     rms          rms(c)
DAV:   1    -0.134067012258E+03   -0.23131E-02   -0.68763E-01  4194   0.130E+00    0.303E-01
RMM:   2    -0.134070327508E+03   -0.33153E-02   -0.42656E-02  6047   0.377E-01    0.228E-01
RMM:   3    -0.134069320784E+03    0.10067E-02   -0.27345E-03  4562   0.136E-01    0.127E-01
RMM:   4    -0.134069282901E+03    0.37883E-04   -0.12876E-03  4102   0.148E-01    0.140E-01
RMM:   5    -0.134069027457E+03    0.25544E-03   -0.61097E-04  4093   0.116E-01    0.706E-02
RMM:   6    -0.134068916716E+03    0.11074E-03   -0.21612E-04  4066   0.597E-02    0.453E-02
RMM:   7    -0.134068871891E+03    0.44825E-04   -0.58528E-05  3348   0.363E-02    0.144E-02
RMM:   8    -0.134068875063E+03   -0.31713E-05   -0.15953E-05  2273   0.186E-02
   2 F= -.13406888E+03 E0= -.13406369E+03  d E =-.417098E-02
quench:  g(F)=  0.000E+00 g(S)=  0.000E+00 dE (1.order)= 0.000E+00
 bond charge predicted
       N       E                     dE             d eps       ncg     rms          rms(c)
DAV:   1    -0.134069880815E+03   -0.10089E-02   -0.19369E-01  4176   0.768E-01    0.148E-01
RMM:   2    -0.134070850655E+03   -0.96984E-03   -0.11394E-02  5929   0.233E-01    0.117E-01
RMM:   3    -0.134070672645E+03    0.17801E-03   -0.82641E-04  4640   0.757E-02    0.744E-02
RMM:   4    -0.134070716143E+03   -0.43498E-04   -0.27947E-04  4153   0.588E-02    0.834E-02
RMM:   5    -0.134070595569E+03    0.12057E-03   -0.14426E-04  3983   0.512E-02    0.394E-02
RMM:   6    -0.134070582345E+03    0.13224E-04   -0.94687E-05  3644   0.451E-02    0.195E-02
RMM:   7    -0.134070584007E+03   -0.16617E-05   -0.17855E-05  2380   0.202E-02
   3 F= -.13407058E+03 E0= -.13406540E+03  d E =-.170894E-02
quench:  g(F)=  0.000E+00 g(S)=  0.000E+00 dE (1.order)= 0.000E+00
 bond charge predicted
       N       E                     dE             d eps       ncg     rms          rms(c)
DAV:   1    -0.134071264336E+03   -0.68199E-03   -0.83695E-02  4149   0.545E-01    0.835E-02
RMM:   2    -0.134071670724E+03   -0.40639E-03   -0.45204E-03  4804   0.173E-01    0.656E-02
RMM:   3    -0.134071618670E+03    0.52055E-04   -0.45048E-04  4801   0.579E-02    0.469E-02
RMM:   4    -0.134071609057E+03    0.96129E-05   -0.11119E-04  3851   0.397E-02    0.410E-02
RMM:   5    -0.134071588856E+03    0.20200E-04   -0.44740E-05  3058   0.306E-02    0.252E-02
RMM:   6    -0.134071576687E+03    0.12169E-04   -0.31154E-05  2548   0.282E-02    0.133E-02
RMM:   7    -0.134071571524E+03    0.51629E-05   -0.10400E-05  2314   0.154E-02
   4 F= -.13407157E+03 E0= -.13406640E+03  d E =-.987517E-03
quench:  g(F)=  0.000E+00 g(S)=  0.000E+00 dE (1.order)= 0.000E+00
 bond charge predicted
       N       E                     dE             d eps       ncg     rms          rms(c)
DAV:   1    -0.134072085059E+03   -0.50837E-03   -0.12733E-01  4176   0.722E-01    0.867E-02
RMM:   2    -0.134072698650E+03   -0.61359E-03   -0.65446E-03  4944   0.226E-01    0.654E-02
RMM:   3    -0.134072675697E+03    0.22953E-04   -0.80350E-04  5491   0.640E-02    0.516E-02
RMM:   4    -0.134072640256E+03    0.35441E-04   -0.11981E-04  4047   0.356E-02    0.422E-02
RMM:   5    -0.134072619039E+03    0.21218E-04   -0.32819E-05  2642   0.263E-02    0.258E-02
RMM:   6    -0.134072614811E+03    0.42282E-05   -0.28591E-05  2469   0.262E-02
   5 F= -.13407261E+03 E0= -.13406745E+03  d E =-.104329E-02
quench:  g(F)=  0.000E+00 g(S)=  0.000E+00 dE (1.order)= 0.000E+00
 bond charge predicted
       N       E                     dE             d eps       ncg     rms          rms(c)
DAV:   1    -0.134072810536E+03   -0.19150E-03   -0.17515E-01  4185   0.824E-01    0.112E-01
RMM:   2    -0.134073614979E+03   -0.80444E-03   -0.90687E-03  5103   0.244E-01    0.809E-02
RMM:   3    -0.134073487896E+03    0.12708E-03   -0.82138E-04  5570   0.629E-02    0.514E-02
RMM:   4    -0.134073482657E+03    0.52393E-05   -0.14633E-04  4114   0.365E-02    0.540E-02
RMM:   5    -0.134073444458E+03    0.38198E-04   -0.57251E-05  3478   0.334E-02    0.315E-02
RMM:   6    -0.134073422925E+03    0.21534E-04   -0.40057E-05  2778   0.300E-02    0.173E-02
RMM:   7    -0.134073417031E+03    0.58932E-05   -0.14507E-05  2269   0.185E-02
   6 F= -.13407342E+03 E0= -.13406827E+03  d E =-.802221E-03
quench:  g(F)=  0.000E+00 g(S)=  0.000E+00 dE (1.order)= 0.000E+00
 bond charge predicted
       N       E                     dE             d eps       ncg     rms          rms(c)
DAV:   1    -0.134073714140E+03   -0.29122E-03   -0.98318E-02  4158   0.566E-01    0.101E-01
RMM:   2    -0.134074188717E+03   -0.47458E-03   -0.56635E-03  6087   0.162E-01    0.785E-02
RMM:   3    -0.134074089811E+03    0.98906E-04   -0.36393E-04  4657   0.454E-02    0.478E-02
RMM:   4    -0.134074112723E+03   -0.22912E-04   -0.12284E-04  4004   0.397E-02    0.572E-02
RMM:   5    -0.134074050211E+03    0.62512E-04   -0.56494E-05  3352   0.335E-02    0.248E-02
RMM:   6    -0.134074040501E+03    0.97097E-05   -0.42020E-05  2864   0.312E-02
   7 F= -.13407404E+03 E0= -.13406890E+03  d E =-.623470E-03
quench:  g(F)=  0.000E+00 g(S)=  0.000E+00 dE (1.order)= 0.000E+00
 bond charge predicted
       N       E                     dE             d eps       ncg     rms          rms(c)
DAV:   1    -0.134074376085E+03   -0.32587E-03   -0.44767E-02  4221   0.400E-01    0.657E-02
RMM:   2    -0.134074599605E+03   -0.22352E-03   -0.25870E-03  5792   0.111E-01    0.481E-02
RMM:   3    -0.134074540161E+03    0.59444E-04   -0.15565E-04  3883   0.295E-02    0.270E-02
RMM:   4    -0.134074536354E+03    0.38076E-05   -0.39940E-05  2621   0.253E-02
   8 F= -.13407454E+03 E0= -.13406940E+03  d E =-.495852E-03
quench:  g(F)=  0.000E+00 g(S)=  0.000E+00 dE (1.order)= 0.000E+00
 bond charge predicted
       N       E                     dE             d eps       ncg     rms          rms(c)
DAV:   1    -0.134074776146E+03   -0.23598E-03   -0.50523E-02  4122   0.473E-01    0.512E-02
RMM:   2    -0.134075056210E+03   -0.28006E-03   -0.26691E-03  5992   0.125E-01    0.507E-02
RMM:   3    -0.134075002695E+03    0.53516E-04   -0.17761E-04  4325   0.373E-02    0.375E-02
RMM:   4    -0.134074977273E+03    0.25422E-04   -0.29322E-05  2517   0.233E-02    0.209E-02
RMM:   5    -0.134074974650E+03    0.26224E-05   -0.19094E-05  2271   0.218E-02
   9 F= -.13407497E+03 E0= -.13406984E+03  d E =-.438297E-03
quench:  g(F)=  0.000E+00 g(S)=  0.000E+00 dE (1.order)= 0.000E+00
 bond charge predicted
       N       E                     dE             d eps       ncg     rms          rms(c)
DAV:   1    -0.134075165531E+03   -0.18826E-03   -0.80347E-02  4167   0.576E-01    0.693E-02
RMM:   2    -0.134075514564E+03   -0.34903E-03   -0.38876E-03  5165   0.160E-01    0.528E-02
RMM:   3    -0.134075464489E+03    0.50075E-04   -0.27928E-04  4602   0.491E-02    0.418E-02
RMM:   4    -0.134075447831E+03    0.16658E-04   -0.59951E-05  3236   0.299E-02    0.328E-02
RMM:   5    -0.134075434178E+03    0.13653E-04   -0.29508E-05  2439   0.264E-02    0.218E-02
RMM:   6    -0.134075425431E+03    0.87475E-05   -0.27831E-05  2527   0.268E-02
  10 F= -.13407543E+03 E0= -.13407030E+03  d E =-.450780E-03
quench:  g(F)=  0.000E+00 g(S)=  0.000E+00 dE (1.order)= 0.000E+00
 bond charge predicted
       N       E                     dE             d eps       ncg     rms          rms(c)
DAV:   1    -0.134075488403E+03   -0.54225E-04   -0.72449E-02  4149   0.514E-01    0.795E-02
RMM:   2    -0.134075838711E+03   -0.35031E-03   -0.40592E-03  6045   0.142E-01    0.606E-02
RMM:   3    -0.134075763903E+03    0.74808E-04   -0.23064E-04  4268   0.335E-02    0.343E-02
RMM:   4    -0.134075776389E+03   -0.12486E-04   -0.54630E-05  2869   0.241E-02    0.420E-02
RMM:   5    -0.134075745012E+03    0.31377E-04   -0.37314E-05  2873   0.302E-02    0.204E-02
RMM:   6    -0.134075737902E+03    0.71099E-05   -0.25463E-05  2445   0.239E-02
  11 F= -.13407574E+03 E0= -.13407062E+03  d E =-.312471E-03
quench:  g(F)=  0.000E+00 g(S)=  0.000E+00 dE (1.order)= 0.000E+00
 bond charge predicted
       N       E                     dE             d eps       ncg     rms          rms(c)
DAV:   1    -0.134075970983E+03   -0.22597E-03   -0.36235E-02  4194   0.342E-01    0.633E-02
RMM:   2    -0.134076144023E+03   -0.17304E-03   -0.20905E-03  5851   0.952E-02    0.465E-02
RMM:   3    -0.134076093083E+03    0.50940E-04   -0.12354E-04  3552   0.291E-02    0.263E-02
RMM:   4    -0.134076093544E+03   -0.46167E-06   -0.49091E-05  3184   0.320E-02
  12 F= -.13407609E+03 E0= -.13407097E+03  d E =-.355642E-03
quench:  g(F)=  0.000E+00 g(S)=  0.000E+00 dE (1.order)= 0.000E+00
 bond charge predicted
       N       E                     dE             d eps       ncg     rms          rms(c)
DAV:   1    -0.134076250154E+03   -0.15707E-03   -0.25637E-02  5130   0.384E-01    0.386E-02
RMM:   2    -0.134076398437E+03   -0.14828E-03   -0.12121E-03  5422   0.831E-02    0.425E-02
RMM:   3    -0.134076354416E+03    0.44020E-04   -0.10158E-04  3896   0.339E-02    0.319E-02
RMM:   4    -0.134076338629E+03    0.15787E-04   -0.16241E-05  2312   0.185E-02    0.126E-02
RMM:   5    -0.134076339698E+03   -0.10687E-05   -0.97308E-06  2240   0.154E-02
  13 F= -.13407634E+03 E0= -.13407123E+03  d E =-.246154E-03
quench:  g(F)=  0.000E+00 g(S)=  0.000E+00 dE (1.order)= 0.000E+00
 bond charge predicted
       N       E                     dE             d eps       ncg     rms          rms(c)
DAV:   1    -0.134076512580E+03   -0.17395E-03   -0.48862E-02  4059   0.456E-01    0.499E-02
RMM:   2    -0.134076718560E+03   -0.20598E-03   -0.22607E-03  5342   0.122E-01    0.364E-02
RMM:   3    -0.134076683812E+03    0.34747E-04   -0.14268E-04  4018   0.352E-02    0.287E-02
RMM:   4    -0.134076676808E+03    0.70042E-05   -0.27909E-05  2507   0.224E-02
  14 F= -.13407668E+03 E0= -.13407158E+03  d E =-.337110E-03
quench:  g(F)=  0.000E+00 g(S)=  0.000E+00 dE (1.order)= 0.000E+00
 bond charge predicted
       N       E                     dE             d eps       ncg     rms          rms(c)
DAV:   1    -0.134076677429E+03    0.63834E-05   -0.65726E-02  4158   0.537E-01    0.627E-02
RMM:   2    -0.134077004413E+03   -0.32698E-03   -0.33404E-03  6048   0.134E-01    0.555E-02
RMM:   3    -0.134076951300E+03    0.53114E-04   -0.20574E-04  4277   0.420E-02    0.454E-02
RMM:   4    -0.134076923186E+03    0.28114E-04   -0.47713E-05  3057   0.293E-02    0.283E-02
RMM:   5    -0.134076916100E+03    0.70855E-05   -0.28883E-05  2529   0.261E-02
  15 F= -.13407692E+03 E0= -.13407181E+03  d E =-.239292E-03
quench:  g(F)=  0.000E+00 g(S)=  0.000E+00 dE (1.order)= 0.000E+00
 bond charge predicted
       N       E                     dE             d eps       ncg     rms          rms(c)
DAV:   1    -0.134077075553E+03   -0.15237E-03   -0.32283E-02  4671   0.341E-01    0.590E-02
RMM:   2    -0.134077218657E+03   -0.14310E-03   -0.17968E-03  5977   0.809E-02    0.426E-02
RMM:   3    -0.134077176412E+03    0.42245E-04   -0.95980E-05  3257   0.232E-02    0.268E-02
RMM:   4    -0.134077188198E+03   -0.11786E-04   -0.44833E-05  3123   0.307E-02    0.326E-02
RMM:   5    -0.134077162311E+03    0.25888E-04   -0.20019E-05  2353   0.222E-02    0.136E-02
RMM:   6    -0.134077159431E+03    0.28793E-05   -0.15636E-05  2324   0.193E-02
  16 F= -.13407716E+03 E0= -.13407206E+03  d E =-.243331E-03
quench:  g(F)=  0.000E+00 g(S)=  0.000E+00 dE (1.order)= 0.000E+00
 bond charge predicted
       N       E                     dE             d eps       ncg     rms          rms(c)
DAV:   1    -0.134077285798E+03   -0.12349E-03   -0.16379E-02  4212   0.253E-01    0.338E-02
RMM:   2    -0.134077363141E+03   -0.77343E-04   -0.85077E-04  5860   0.676E-02    0.261E-02
RMM:   3    -0.134077351816E+03    0.11325E-04   -0.40467E-05  2709   0.194E-02    0.203E-02
RMM:   4    -0.134077349522E+03    0.22935E-05   -0.18490E-05  2274   0.216E-02
  17 F= -.13407735E+03 E0= -.13407225E+03  d E =-.190091E-03
quench:  g(F)=  0.000E+00 g(S)=  0.000E+00 dE (1.order)= 0.000E+00
 bond charge predicted
       N       E                     dE             d eps       ncg     rms          rms(c)
DAV:   1    -0.134077481544E+03   -0.12973E-03   -0.28904E-02  4167   0.362E-01    0.362E-02
RMM:   2    -0.134077604075E+03   -0.12253E-03   -0.13246E-03  5695   0.883E-02    0.221E-02
RMM:   3    -0.134077582648E+03    0.21427E-04   -0.52945E-05  2898   0.184E-02    0.192E-02
RMM:   4    -0.134077578889E+03    0.37591E-05   -0.14720E-05  2279   0.178E-02
  18 F= -.13407758E+03 E0= -.13407249E+03  d E =-.229367E-03
quench:  g(F)=  0.000E+00 g(S)=  0.000E+00 dE (1.order)= 0.000E+00
 bond charge predicted
       N       E                     dE             d eps       ncg     rms          rms(c)
DAV:   1    -0.134077627083E+03   -0.44435E-04   -0.52478E-02  4059   0.469E-01    0.511E-02
RMM:   2    -0.134077852237E+03   -0.22515E-03   -0.23914E-03  5998   0.118E-01    0.361E-02
RMM:   3    -0.134077816726E+03    0.35511E-04   -0.12161E-04  3599   0.312E-02    0.269E-02
RMM:   4    -0.134077813703E+03    0.30227E-05   -0.28149E-05  2466   0.239E-02
  19 F= -.13407781E+03 E0= -.13407272E+03  d E =-.234814E-03
quench:  g(F)=  0.000E+00 g(S)=  0.000E+00 dE (1.order)= 0.000E+00
 bond charge predicted
       N       E                     dE             d eps       ncg     rms          rms(c)
DAV:   1    -0.134077850195E+03   -0.33469E-04   -0.36709E-02  4959   0.384E-01    0.608E-02
RMM:   2    -0.134078032407E+03   -0.18221E-03   -0.19027E-03  5283   0.925E-02    0.576E-02
RMM:   3    -0.134077988510E+03    0.43896E-04   -0.16395E-04  4109   0.445E-02    0.468E-02
RMM:   4    -0.134077951399E+03    0.37111E-04   -0.46251E-05  2806   0.280E-02    0.239E-02
RMM:   5    -0.134077944205E+03    0.71938E-05   -0.26490E-05  2464   0.242E-02
  20 F= -.13407794E+03 E0= -.13407285E+03  d E =-.130502E-03
quench:  g(F)=  0.000E+00 g(S)=  0.000E+00 dE (1.order)= 0.000E+00
 bond charge predicted
       N       E                     dE             d eps       ncg     rms          rms(c)
DAV:   1    -0.134078058676E+03   -0.10728E-03   -0.22148E-02  4734   0.293E-01    0.458E-02
RMM:   2    -0.134078158178E+03   -0.99502E-04   -0.11723E-03  6002   0.670E-02    0.331E-02
RMM:   3    -0.134078136347E+03    0.21831E-04   -0.58826E-05  2888   0.202E-02    0.184E-02
RMM:   4    -0.134078136137E+03    0.20966E-06   -0.24995E-05  2454   0.236E-02
  21 F= -.13407814E+03 E0= -.13407304E+03  d E =-.191932E-03
quench:  g(F)=  0.000E+00 g(S)=  0.000E+00 dE (1.order)= 0.000E+00
 bond charge predicted
       N       E                     dE             d eps       ncg     rms          rms(c)
DAV:   1    -0.134078233238E+03   -0.96892E-04   -0.13287E-02  4518   0.245E-01    0.282E-02
RMM:   2    -0.134078294858E+03   -0.61619E-04   -0.62135E-04  5123   0.583E-02    0.273E-02
RMM:   3    -0.134078283546E+03    0.11311E-04   -0.36199E-05  2654   0.216E-02    0.233E-02
RMM:   4    -0.134078275193E+03    0.83528E-05   -0.14760E-05  2267   0.200E-02
  22 F= -.13407828E+03 E0= -.13407318E+03  d E =-.139056E-03
quench:  g(F)=  0.000E+00 g(S)=  0.000E+00 dE (1.order)= 0.000E+00
 bond charge predicted
       N       E                     dE             d eps       ncg     rms          rms(c)
DAV:   1    -0.134078359860E+03   -0.76314E-04   -0.26153E-02  4050   0.327E-01    0.349E-02
RMM:   2    -0.134078467676E+03   -0.10782E-03   -0.11365E-03  5881   0.835E-02    0.221E-02
RMM:   3    -0.134078450749E+03    0.16927E-04   -0.53067E-05  2768   0.215E-02    0.161E-02
RMM:   4    -0.134078449606E+03    0.11437E-05   -0.17489E-05  2208   0.212E-02
  23 F= -.13407845E+03 E0= -.13407336E+03  d E =-.174412E-03
quench:  g(F)=  0.000E+00 g(S)=  0.000E+00 dE (1.order)= 0.000E+00
 bond charge predicted
       N       E                     dE             d eps       ncg     rms          rms(c)
DAV:   1    -0.134078492548E+03   -0.41799E-04   -0.34823E-02  4068   0.359E-01    0.493E-02
RMM:   2    -0.134078631304E+03   -0.13876E-03   -0.16272E-03  5699   0.918E-02    0.381E-02
RMM:   3    -0.134078604129E+03    0.27175E-04   -0.86313E-05  3375   0.294E-02    0.310E-02
RMM:   4    -0.134078595086E+03    0.90432E-05   -0.30753E-05  2532   0.264E-02
  24 F= -.13407860E+03 E0= -.13407351E+03  d E =-.145480E-03
quench:  g(F)=  0.000E+00 g(S)=  0.000E+00 dE (1.order)= 0.000E+00
 bond charge predicted
       N       E                     dE             d eps       ncg     rms          rms(c)
DAV:   1    -0.134078654935E+03   -0.50806E-04   -0.22650E-02  4977   0.315E-01    0.456E-02
RMM:   2    -0.134078769859E+03   -0.11492E-03   -0.11894E-03  5689   0.737E-02    0.439E-02
RMM:   3    -0.134078743259E+03    0.26600E-04   -0.92861E-05  3723   0.335E-02    0.310E-02
RMM:   4    -0.134078732358E+03    0.10900E-04   -0.25285E-05  2431   0.231E-02    0.204E-02
RMM:   5    -0.134078728315E+03    0.40435E-05   -0.18838E-05  2363   0.215E-02
  25 F= -.13407873E+03 E0= -.13407364E+03  d E =-.133229E-03
quench:  g(F)=  0.000E+00 g(S)=  0.000E+00 dE (1.order)= 0.000E+00
 bond charge predicted
       N       E                     dE             d eps       ncg     rms          rms(c)
DAV:   1    -0.134078816998E+03   -0.84640E-04   -0.98271E-03  4806   0.201E-01    0.283E-02
RMM:   2    -0.134078855582E+03   -0.38584E-04   -0.46018E-04  4730   0.441E-02    0.195E-02
RMM:   3    -0.134078846361E+03    0.92212E-05   -0.20945E-05  2447   0.145E-02
  26 F= -.13407885E+03 E0= -.13407376E+03  d E =-.118046E-03
quench:  g(F)=  0.000E+00 g(S)=  0.000E+00 dE (1.order)= 0.000E+00
 bond charge predicted
       N       E                     dE             d eps       ncg     rms          rms(c)
DAV:   1    -0.134078925245E+03   -0.69662E-04   -0.18066E-02  4194   0.280E-01    0.286E-02
RMM:   2    -0.134079003482E+03   -0.78237E-04   -0.79195E-04  5959   0.667E-02    0.216E-02
RMM:   3    -0.134078994417E+03    0.90649E-05   -0.42023E-05  2668   0.196E-02
  27 F= -.13407899E+03 E0= -.13407390E+03  d E =-.148056E-03
quench:  g(F)=  0.000E+00 g(S)=  0.000E+00 dE (1.order)= 0.000E+00
 bond charge predicted
       N       E                     dE             d eps       ncg     rms          rms(c)
DAV:   1    -0.134079038253E+03   -0.34771E-04   -0.31195E-02  4275   0.368E-01    0.435E-02
RMM:   2    -0.134079164519E+03   -0.12627E-03   -0.13981E-03  5689   0.829E-02    0.297E-02
RMM:   3    -0.134079137898E+03    0.26621E-04   -0.59485E-05  2955   0.201E-02    0.269E-02
RMM:   4    -0.134079133786E+03    0.41122E-05   -0.26902E-05  2426   0.261E-02
  28 F= -.13407913E+03 E0= -.13407404E+03  d E =-.139369E-03
quench:  g(F)=  0.000E+00 g(S)=  0.000E+00 dE (1.order)= 0.000E+00
 bond charge predicted
       N       E                     dE             d eps       ncg     rms          rms(c)
DAV:   1    -0.134079132451E+03    0.54468E-05   -0.28800E-02  4266   0.323E-01    0.487E-02
RMM:   2    -0.134079258911E+03   -0.12646E-03   -0.14630E-03  6205   0.783E-02    0.346E-02
RMM:   3    -0.134079234129E+03    0.24782E-04   -0.70676E-05  2921   0.241E-02    0.202E-02
RMM:   4    -0.134079239764E+03   -0.56350E-05   -0.28254E-05  2442   0.261E-02
  29 F= -.13407924E+03 E0= -.13407416E+03  d E =-.105978E-03
quench:  g(F)=  0.000E+00 g(S)=  0.000E+00 dE (1.order)= 0.000E+00
 bond charge predicted
       N       E                     dE             d eps       ncg     rms          rms(c)
DAV:   1    -0.134079315208E+03   -0.81079E-04   -0.13880E-02  5274   0.274E-01    0.392E-02
RMM:   2    -0.134079397763E+03   -0.82555E-04   -0.78632E-04  4994   0.603E-02    0.419E-02
RMM:   3    -0.134079371529E+03    0.26234E-04   -0.67037E-05  3283   0.289E-02    0.306E-02
RMM:   4    -0.134079356956E+03    0.14573E-04   -0.21305E-05  2357   0.222E-02    0.143E-02
RMM:   5    -0.134079354518E+03    0.24386E-05   -0.12906E-05  2290   0.170E-02
  30 F= -.13407935E+03 E0= -.13407426E+03  d E =-.114754E-03
quench:  g(F)=  0.000E+00 g(S)=  0.000E+00 dE (1.order)= 0.000E+00
 bond charge predicted
       N       E                     dE             d eps       ncg     rms          rms(c)
DAV:   1    -0.134079417497E+03   -0.60541E-04   -0.94029E-03  4554   0.205E-01    0.226E-02
RMM:   2    -0.134079456456E+03   -0.38959E-04   -0.42272E-04  5110   0.450E-02    0.146E-02
RMM:   3    -0.134079450939E+03    0.55167E-05   -0.18711E-05  2372   0.142E-02
  31 F= -.13407945E+03 E0= -.13407436E+03  d E =-.964214E-04
quench:  g(F)=  0.000E+00 g(S)=  0.000E+00 dE (1.order)= 0.000E+00
 bond charge predicted
       N       E                     dE             d eps       ncg     rms          rms(c)
DAV:   1    -0.134079520021E+03   -0.63565E-04   -0.17859E-02  4086   0.265E-01    0.299E-02
RMM:   2    -0.134079588560E+03   -0.68539E-04   -0.74308E-04  5512   0.624E-02    0.193E-02
RMM:   3    -0.134079575819E+03    0.12741E-04   -0.31713E-05  2555   0.160E-02    0.193E-02
RMM:   4    -0.134079572576E+03    0.32432E-05   -0.14555E-05  2232   0.198E-02
  32 F= -.13407957E+03 E0= -.13407448E+03  d E =-.121636E-03
quench:  g(F)=  0.000E+00 g(S)=  0.000E+00 dE (1.order)= 0.000E+00
 bond charge predicted
       N       E                     dE             d eps       ncg     rms          rms(c)
DAV:   1    -0.134079580969E+03   -0.51503E-05   -0.27426E-02  4095   0.319E-01    0.413E-02
RMM:   2    -0.134079696447E+03   -0.11548E-03   -0.12562E-03  6169   0.776E-02    0.311E-02
RMM:   3    -0.134079675174E+03    0.21273E-04   -0.65058E-05  2900   0.255E-02    0.209E-02
RMM:   4    -0.134079672800E+03    0.23734E-05   -0.26638E-05  2388   0.262E-02
  33 F= -.13407967E+03 E0= -.13407458E+03  d E =-.100225E-03
quench:  g(F)=  0.000E+00 g(S)=  0.000E+00 dE (1.order)= 0.000E+00
 bond charge predicted
       N       E                     dE             d eps       ncg     rms          rms(c)
DAV:   1    -0.134079736643E+03   -0.61469E-04   -0.14370E-02  4680   0.220E-01    0.392E-02
RMM:   2    -0.134079800987E+03   -0.64344E-04   -0.75260E-04  5162   0.552E-02    0.325E-02
RMM:   3    -0.134079790539E+03    0.10449E-04   -0.50597E-05  2894   0.254E-02    0.287E-02
RMM:   4    -0.134079778441E+03    0.12098E-04   -0.21939E-05  2359   0.234E-02    0.161E-02
RMM:   5    -0.134079773198E+03    0.52423E-05   -0.93356E-06  2268   0.141E-02
  34 F= -.13407977E+03 E0= -.13407468E+03  d E =-.100398E-03
quench:  g(F)=  0.000E+00 g(S)=  0.000E+00 dE (1.order)= 0.000E+00
 bond charge predicted
       N       E                     dE             d eps       ncg     rms          rms(c)
DAV:   1    -0.134079829970E+03   -0.51529E-04   -0.76798E-03  4581   0.178E-01    0.229E-02
RMM:   2    -0.134079863376E+03   -0.33406E-04   -0.36808E-04  4926   0.404E-02    0.154E-02
RMM:   3    -0.134079858139E+03    0.52371E-05   -0.15456E-05  2367   0.126E-02
  35 F= -.13407986E+03 E0= -.13407477E+03  d E =-.849401E-04
quench:  g(F)=  0.000E+00 g(S)=  0.000E+00 dE (1.order)= 0.000E+00
 bond charge predicted
       N       E                     dE             d eps       ncg     rms          rms(c)
DAV:   1    -0.134079920908E+03   -0.57532E-04   -0.13376E-02  4122   0.230E-01    0.258E-02
RMM:   2    -0.134079979989E+03   -0.59081E-04   -0.56144E-04  5293   0.545E-02    0.213E-02
RMM:   3    -0.134079969312E+03    0.10676E-04   -0.33066E-05  2574   0.188E-02    0.240E-02
RMM:   4    -0.134079959732E+03    0.95805E-05   -0.14798E-05  2192   0.208E-02
  36 F= -.13407996E+03 E0= -.13407487E+03  d E =-.101593E-03
quench:  g(F)=  0.000E+00 g(S)=  0.000E+00 dE (1.order)= 0.000E+00
 bond charge predicted
       N       E                     dE             d eps       ncg     rms          rms(c)
DAV:   1    -0.134079986002E+03   -0.16690E-04   -0.24666E-02  4041   0.298E-01    0.364E-02
RMM:   2    -0.134080084153E+03   -0.98151E-04   -0.10323E-03  6063   0.725E-02    0.270E-02
RMM:   3    -0.134080072145E+03    0.12008E-04   -0.50522E-05  2745   0.193E-02    0.222E-02
RMM:   4    -0.134080069080E+03    0.30646E-05   -0.17821E-05  2283   0.213E-02
  37 F= -.13408007E+03 E0= -.13407498E+03  d E =-.109349E-03
quench:  g(F)=  0.000E+00 g(S)=  0.000E+00 dE (1.order)= 0.000E+00
 bond charge predicted
       N       E                     dE             d eps       ncg     rms          rms(c)
DAV:   1    -0.134080093993E+03   -0.21848E-04   -0.18398E-02  4950   0.266E-01    0.428E-02
RMM:   2    -0.134080169208E+03   -0.75215E-04   -0.90828E-04  5249   0.598E-02    0.336E-02
RMM:   3    -0.134080152710E+03    0.16497E-04   -0.61904E-05  3009   0.262E-02    0.274E-02
RMM:   4    -0.134080146015E+03    0.66950E-05   -0.27499E-05  2462   0.260E-02
  38 F= -.13408015E+03 E0= -.13407506E+03  d E =-.769351E-04
quench:  g(F)=  0.000E+00 g(S)=  0.000E+00 dE (1.order)= 0.000E+00
 bond charge predicted
       N       E                     dE             d eps       ncg     rms          rms(c)
DAV:   1    -0.134080198804E+03   -0.46093E-04   -0.10271E-02  5094   0.223E-01    0.311E-02
RMM:   2    -0.134080255894E+03   -0.57091E-04   -0.53999E-04  5170   0.510E-02    0.328E-02
RMM:   3    -0.134080238903E+03    0.16991E-04   -0.42851E-05  2761   0.239E-02    0.218E-02
RMM:   4    -0.134080233873E+03    0.50302E-05   -0.15999E-05  2269   0.206E-02
  39 F= -.13408023E+03 E0= -.13407514E+03  d E =-.878573E-04
quench:  g(F)=  0.000E+00 g(S)=  0.000E+00 dE (1.order)= 0.000E+00
 bond charge predicted
       N       E                     dE             d eps       ncg     rms          rms(c)
DAV:   1    -0.134080288377E+03   -0.49474E-04   -0.86704E-03  5013   0.200E-01    0.223E-02
RMM:   2    -0.134080321532E+03   -0.33155E-04   -0.34302E-04  4222   0.422E-02    0.192E-02
RMM:   3    -0.134080316963E+03    0.45685E-05   -0.25527E-05  2450   0.202E-02
  40 F= -.13408032E+03 E0= -.13407522E+03  d E =-.830906E-04
quench:  g(F)=  0.000E+00 g(S)=  0.000E+00 dE (1.order)= 0.000E+00
 bond charge predicted
       N       E                     dE             d eps       ncg     rms          rms(c)
DAV:   1    -0.134080344535E+03   -0.23003E-04   -0.17007E-02  4338   0.271E-01    0.298E-02
RMM:   2    -0.134080418910E+03   -0.74375E-04   -0.78163E-04  5712   0.619E-02    0.199E-02
RMM:   3    -0.134080407587E+03    0.11323E-04   -0.33457E-05  2527   0.180E-02    0.165E-02
RMM:   4    -0.134080406818E+03    0.76993E-06   -0.13546E-05  2255   0.190E-02
  41 F= -.13408041E+03 E0= -.13407531E+03  d E =-.898542E-04
quench:  g(F)=  0.000E+00 g(S)=  0.000E+00 dE (1.order)= 0.000E+00
 bond charge predicted
       N       E                     dE             d eps       ncg     rms          rms(c)
DAV:   1    -0.134080424662E+03   -0.17074E-04   -0.18412E-02  4311   0.257E-01    0.399E-02
RMM:   2    -0.134080499245E+03   -0.74584E-04   -0.87310E-04  5401   0.599E-02    0.292E-02
RMM:   3    -0.134080484622E+03    0.14623E-04   -0.47563E-05  2791   0.206E-02    0.284E-02
RMM:   4    -0.134080474882E+03    0.97399E-05   -0.23097E-05  2312   0.247E-02
  42 F= -.13408047E+03 E0= -.13407538E+03  d E =-.680644E-04
quench:  g(F)=  0.000E+00 g(S)=  0.000E+00 dE (1.order)= 0.000E+00
 bond charge predicted
       N       E                     dE             d eps       ncg     rms          rms(c)
DAV:   1    -0.134080522810E+03   -0.38188E-04   -0.98007E-03  4833   0.197E-01    0.293E-02
RMM:   2    -0.134080566283E+03   -0.43474E-04   -0.48889E-04  5114   0.446E-02    0.215E-02
RMM:   3    -0.134080558117E+03    0.81669E-05   -0.28832E-05  2508   0.188E-02
  43 F= -.13408056E+03 E0= -.13407546E+03  d E =-.832346E-04
quench:  g(F)=  0.000E+00 g(S)=  0.000E+00 dE (1.order)= 0.000E+00
 bond charge predicted
       N       E                     dE             d eps       ncg     rms          rms(c)
DAV:   1    -0.134080605050E+03   -0.38766E-04   -0.71715E-03  5049   0.188E-01    0.216E-02
RMM:   2    -0.134080641300E+03   -0.36250E-04   -0.29588E-04  4203   0.443E-02    0.271E-02
RMM:   3    -0.134080627698E+03    0.13602E-04   -0.26504E-05  2435   0.208E-02    0.156E-02
RMM:   4    -0.134080624591E+03    0.31062E-05   -0.90230E-06  2167   0.153E-02
  44 F= -.13408062E+03 E0= -.13407553E+03  d E =-.664749E-04
quench:  g(F)=  0.000E+00 g(S)=  0.000E+00 dE (1.order)= 0.000E+00
 bond charge predicted
       N       E                     dE             d eps       ncg     rms          rms(c)
DAV:   1    -0.134080662472E+03   -0.34774E-04   -0.15086E-02  4068   0.235E-01    0.282E-02
RMM:   2    -0.134080721830E+03   -0.59358E-04   -0.62961E-04  5846   0.562E-02    0.177E-02
RMM:   3    -0.134080713898E+03    0.79319E-05   -0.27272E-05  2437   0.155E-02
  45 F= -.13408071E+03 E0= -.13407562E+03  d E =-.893064E-04
quench:  g(F)=  0.000E+00 g(S)=  0.000E+00 dE (1.order)= 0.000E+00
 bond charge predicted
       N       E                     dE             d eps       ncg     rms          rms(c)
DAV:   1    -0.134080732281E+03   -0.10451E-04   -0.17738E-02  4239   0.247E-01    0.377E-02
RMM:   2    -0.134080805414E+03   -0.73133E-04   -0.79626E-04  5326   0.586E-02    0.299E-02
RMM:   3    -0.134080793378E+03    0.12036E-04   -0.51045E-05  2876   0.236E-02    0.296E-02
RMM:   4    -0.134080780540E+03    0.12838E-04   -0.20443E-05  2310   0.232E-02    0.158E-02
RMM:   5    -0.134080776976E+03    0.35647E-05   -0.10426E-05  2278   0.154E-02
  46 F= -.13408078E+03 E0= -.13407568E+03  d E =-.630778E-04
quench:  g(F)=  0.000E+00 g(S)=  0.000E+00 dE (1.order)= 0.000E+00
 bond charge predicted
       N       E                     dE             d eps       ncg     rms          rms(c)
DAV:   1    -0.134080821382E+03   -0.40841E-04   -0.11635E-02  4383   0.201E-01    0.330E-02
RMM:   2    -0.134080873030E+03   -0.51648E-04   -0.60889E-04  5459   0.481E-02    0.233E-02
RMM:   3    -0.134080863353E+03    0.96768E-05   -0.28651E-05  2534   0.144E-02
  47 F= -.13408086E+03 E0= -.13407576E+03  d E =-.863770E-04
quench:  g(F)=  0.000E+00 g(S)=  0.000E+00 dE (1.order)= 0.000E+00
 bond charge predicted
       N       E                     dE             d eps       ncg     rms          rms(c)
DAV:   1    -0.134080909874E+03   -0.36844E-04   -0.57345E-03  5274   0.177E-01    0.231E-02
RMM:   2    -0.134080976513E+03   -0.66639E-04   -0.28720E-04  4433   0.453E-02    0.426E-02
RMM:   3    -0.134080926238E+03    0.50275E-04   -0.34936E-05  2596   0.234E-02    0.141E-02
RMM:   4    -0.134080924488E+03    0.17508E-05   -0.10221E-05  2222   0.157E-02
  48 F= -.13408092E+03 E0= -.13407583E+03  d E =-.611350E-04
quench:  g(F)=  0.000E+00 g(S)=  0.000E+00 dE (1.order)= 0.000E+00
 bond charge predicted
       N       E                     dE             d eps       ncg     rms          rms(c)
DAV:   1    -0.134080964807E+03   -0.38568E-04   -0.11311E-02  4131   0.203E-01    0.243E-02
RMM:   2    -0.134081009352E+03   -0.44546E-04   -0.46645E-04  5500   0.484E-02    0.152E-02
RMM:   3    -0.134081003466E+03    0.58869E-05   -0.18956E-05  2340   0.144E-02
  49 F= -.13408100E+03 E0= -.13407590E+03  d E =-.789779E-04
quench:  g(F)=  0.000E+00 g(S)=  0.000E+00 dE (1.order)= 0.000E+00
 bond charge predicted
       N       E                     dE             d eps       ncg     rms          rms(c)
DAV:   1    -0.134081027493E+03   -0.18140E-04   -0.18078E-02  4086   0.249E-01    0.350E-02
RMM:   2    -0.134081098428E+03   -0.70936E-04   -0.77794E-04  5412   0.588E-02    0.253E-02
RMM:   3    -0.134081089201E+03    0.92276E-05   -0.42596E-05  2698   0.201E-02
  50 F= -.13408109E+03 E0= -.13407600E+03  d E =-.857352E-04
quench:  g(F)=  0.000E+00 g(S)=  0.000E+00 dE (1.order)= 0.000E+00
 bond charge predicted
       N       E                     dE             d eps       ncg     rms          rms(c)
DAV:   1    -0.134081086122E+03    0.12306E-04   -0.13991E-02  5175   0.277E-01    0.333E-02
RMM:   2    -0.134081158772E+03   -0.72649E-04   -0.72652E-04  5567   0.538E-02    0.283E-02
RMM:   3    -0.134081150049E+03    0.87230E-05   -0.41814E-05  2687   0.203E-02
  51 F= -.13408115E+03 E0= -.13407604E+03  d E =-.608481E-04
quench:  g(F)=  0.000E+00 g(S)=  0.000E+00 dE (1.order)= 0.000E+00
 bond charge predicted
       N       E                     dE             d eps       ncg     rms          rms(c)
DAV:   1    -0.134081178768E+03   -0.19996E-04   -0.68842E-03  5400   0.220E-01    0.263E-02
RMM:   2    -0.134081215540E+03   -0.36772E-04   -0.38659E-04  4496   0.399E-02    0.191E-02
RMM:   3    -0.134081211378E+03    0.41619E-05   -0.23006E-05  2472   0.170E-02
  52 F= -.13408121E+03 E0= -.13407612E+03  d E =-.613291E-04
quench:  g(F)=  0.000E+00 g(S)=  0.000E+00 dE (1.order)= 0.000E+00
 bond charge predicted
       N       E                     dE             d eps       ncg     rms          rms(c)
DAV:   1    -0.134081235661E+03   -0.20121E-04   -0.71132E-03  5139   0.208E-01    0.209E-02
RMM:   2    -0.134081269453E+03   -0.33792E-04   -0.33421E-04  4590   0.390E-02    0.159E-02
RMM:   3    -0.134081268141E+03    0.13118E-05   -0.25675E-05  2414   0.156E-02
  53 F= -.13408127E+03 E0= -.13407616E+03  d E =-.567634E-04
quench:  g(F)=  0.000E+00 g(S)=  0.000E+00 dE (1.order)= 0.000E+00
 bond charge predicted
       N       E                     dE             d eps       ncg     rms          rms(c)
DAV:   1    -0.134081295131E+03   -0.25678E-04   -0.12367E-02  4734   0.227E-01    0.300E-02
RMM:   2    -0.134081342497E+03   -0.47366E-04   -0.54213E-04  4795   0.472E-02    0.199E-02
RMM:   3    -0.134081330889E+03    0.11608E-04   -0.23802E-05  2498   0.139E-02    0.137E-02
RMM:   4    -0.134081333270E+03   -0.23811E-05   -0.13304E-05  2229   0.187E-02
  54 F= -.13408133E+03 E0= -.13407623E+03  d E =-.651290E-04
quench:  g(F)=  0.000E+00 g(S)=  0.000E+00 dE (1.order)= 0.000E+00
 bond charge predicted
       N       E                     dE             d eps       ncg     rms          rms(c)
DAV:   1    -0.134081338105E+03   -0.72158E-05   -0.15552E-02  4653   0.249E-01    0.344E-02
RMM:   2    -0.134081413231E+03   -0.75126E-04   -0.77191E-04  5678   0.568E-02    0.282E-02
RMM:   3    -0.134081405262E+03    0.79685E-05   -0.47406E-05  2741   0.228E-02
  55 F= -.13408141E+03 E0= -.13407631E+03  d E =-.719920E-04
quench:  g(F)=  0.000E+00 g(S)=  0.000E+00 dE (1.order)= 0.000E+00
 bond charge predicted
       N       E                     dE             d eps       ncg     rms          rms(c)
DAV:   1    -0.134081432470E+03   -0.19239E-04   -0.67432E-03  5436   0.218E-01    0.252E-02
RMM:   2    -0.134081470318E+03   -0.37848E-04   -0.36720E-04  4378   0.423E-02    0.226E-02
RMM:   3    -0.134081464871E+03    0.54466E-05   -0.25105E-05  2447   0.181E-02
  56 F= -.13408146E+03 E0= -.13407635E+03  d E =-.596085E-04
quench:  g(F)=  0.000E+00 g(S)=  0.000E+00 dE (1.order)= 0.000E+00
 bond charge predicted
       N       E                     dE             d eps       ncg     rms          rms(c)
DAV:   1    -0.134081487789E+03   -0.17471E-04   -0.62582E-03  5211   0.189E-01    0.196E-02
RMM:   2    -0.134081516591E+03   -0.28802E-04   -0.30882E-04  4463   0.363E-02    0.137E-02
RMM:   3    -0.134081512603E+03    0.39873E-05   -0.17570E-05  2269   0.155E-02
  57 F= -.13408151E+03 E0= -.13407641E+03  d E =-.477325E-04
quench:  g(F)=  0.000E+00 g(S)=  0.000E+00 dE (1.order)= 0.000E+00
 bond charge predicted
       N       E                     dE             d eps       ncg     rms          rms(c)
DAV:   1    -0.134081547270E+03   -0.30679E-04   -0.11316E-02  4149   0.198E-01    0.277E-02
RMM:   2    -0.134081589089E+03   -0.41820E-04   -0.48059E-04  4853   0.465E-02    0.189E-02
RMM:   3    -0.134081580023E+03    0.90665E-05   -0.23227E-05  2381   0.162E-02
  58 F= -.13408158E+03 E0= -.13407648E+03  d E =-.674192E-04
quench:  g(F)=  0.000E+00 g(S)=  0.000E+00 dE (1.order)= 0.000E+00
 bond charge predicted
       N       E                     dE             d eps       ncg     rms          rms(c)
DAV:   1    -0.134081585277E+03    0.38121E-05   -0.14611E-02  4383   0.229E-01    0.322E-02
RMM:   2    -0.134081651952E+03   -0.66675E-04   -0.69949E-04  5619   0.564E-02    0.258E-02
RMM:   3    -0.134081643347E+03    0.86057E-05   -0.47091E-05  2750   0.246E-02
  59 F= -.13408164E+03 E0= -.13407654E+03  d E =-.633239E-04
quench:  g(F)=  0.000E+00 g(S)=  0.000E+00 dE (1.order)= 0.000E+00
 bond charge predicted
       N       E                     dE             d eps       ncg     rms          rms(c)
DAV:   1    -0.134081678748E+03   -0.26796E-04   -0.73091E-03  5364   0.205E-01    0.281E-02
RMM:   2    -0.134081730405E+03   -0.51657E-04   -0.38162E-04  4440   0.456E-02    0.343E-02
RMM:   3    -0.134081707455E+03    0.22950E-04   -0.35097E-05  2597   0.220E-02    0.213E-02
RMM:   4    -0.134081700489E+03    0.69666E-05   -0.14340E-05  2276   0.191E-02
  60 F= -.13408170E+03 E0= -.13407660E+03  d E =-.571419E-04
quench:  g(F)=  0.000E+00 g(S)=  0.000E+00 dE (1.order)= 0.000E+00
 bond charge predicted
       N       E                     dE             d eps       ncg     rms          rms(c)
DAV:   1    -0.134081736191E+03   -0.28736E-04   -0.69110E-03  4131   0.152E-01    0.207E-02
RMM:   2    -0.134081764734E+03   -0.28543E-04   -0.29673E-04  4572   0.378E-02    0.121E-02
RMM:   3    -0.134081762595E+03    0.21397E-05   -0.17163E-05  2281   0.147E-02
  61 F= -.13408176E+03 E0= -.13407666E+03  d E =-.621062E-04
quench:  g(F)=  0.000E+00 g(S)=  0.000E+00 dE (1.order)= 0.000E+00
 bond charge predicted
       N       E                     dE             d eps       ncg     rms          rms(c)
DAV:   1    -0.134081796254E+03   -0.31519E-04   -0.11551E-02  4410   0.206E-01    0.274E-02
RMM:   2    -0.134081848747E+03   -0.52493E-04   -0.50169E-04  4769   0.485E-02    0.254E-02
RMM:   3    -0.134081839230E+03    0.95173E-05   -0.33784E-05  2577   0.204E-02
  62 F= -.13408184E+03 E0= -.13407673E+03  d E =-.766350E-04
quench:  g(F)=  0.000E+00 g(S)=  0.000E+00 dE (1.order)= 0.000E+00
 bond charge predicted
       N       E                     dE             d eps       ncg     rms          rms(c)
DAV:   1    -0.134081831209E+03    0.17538E-04   -0.15115E-02  4689   0.251E-01    0.322E-02
RMM:   2    -0.134081902779E+03   -0.71569E-04   -0.77350E-04  5551   0.548E-02    0.242E-02
RMM:   3    -0.134081891227E+03    0.11551E-04   -0.33286E-05  2542   0.171E-02    0.162E-02
RMM:   4    -0.134081895162E+03   -0.39346E-05   -0.14338E-05  2279   0.184E-02
  63 F= -.13408190E+03 E0= -.13407679E+03  d E =-.559319E-04
quench:  g(F)=  0.000E+00 g(S)=  0.000E+00 dE (1.order)= 0.000E+00
 bond charge predicted
       N       E                     dE             d eps       ncg     rms          rms(c)
DAV:   1    -0.134081936983E+03   -0.45756E-04   -0.79079E-03  5229   0.200E-01    0.295E-02
RMM:   2    -0.134081972380E+03   -0.35397E-04   -0.41507E-04  4436   0.415E-02    0.242E-02
RMM:   3    -0.134081966091E+03    0.62890E-05   -0.29589E-05  2574   0.202E-02
  64 F= -.13408197E+03 E0= -.13407685E+03  d E =-.709289E-04
quench:  g(F)=  0.000E+00 g(S)=  0.000E+00 dE (1.order)= 0.000E+00
 bond charge predicted
       N       E                     dE             d eps       ncg     rms          rms(c)
DAV:   1    -0.134081990872E+03   -0.18493E-04   -0.67917E-03  5184   0.209E-01    0.204E-02
RMM:   2    -0.134082035013E+03   -0.44141E-04   -0.33496E-04  4612   0.416E-02    0.234E-02
RMM:   3    -0.134082021529E+03    0.13484E-04   -0.25238E-05  2396   0.182E-02    0.168E-02
RMM:   4    -0.134082018272E+03    0.32567E-05   -0.92712E-06  2153   0.168E-02
  65 F= -.13408202E+03 E0= -.13407691E+03  d E =-.521816E-04
quench:  g(F)=  0.000E+00 g(S)=  0.000E+00 dE (1.order)= 0.000E+00
 bond charge predicted
       N       E                     dE             d eps       ncg     rms          rms(c)
DAV:   1    -0.134082058968E+03   -0.37440E-04   -0.11679E-02  4050   0.190E-01    0.277E-02
RMM:   2    -0.134082101131E+03   -0.42162E-04   -0.48117E-04  4760   0.454E-02    0.189E-02
RMM:   3    -0.134082093485E+03    0.76454E-05   -0.20452E-05  2412   0.131E-02
  66 F= -.13408209E+03 E0= -.13407698E+03  d E =-.752132E-04
quench:  g(F)=  0.000E+00 g(S)=  0.000E+00 dE (1.order)= 0.000E+00
 bond charge predicted
       N       E                     dE             d eps       ncg     rms          rms(c)
DAV:   1    -0.134082091916E+03    0.92148E-05   -0.15789E-02  4572   0.250E-01    0.335E-02
RMM:   2    -0.134082190340E+03   -0.98424E-04   -0.76956E-04  5671   0.589E-02    0.373E-02
RMM:   3    -0.134082160824E+03    0.29516E-04   -0.61080E-05  3069   0.270E-02    0.274E-02
RMM:   4    -0.134082150269E+03    0.10556E-04   -0.16115E-05  2273   0.199E-02    0.115E-02
RMM:   5    -0.134082149245E+03    0.10238E-05   -0.61239E-06  2227   0.113E-02
  67 F= -.13408215E+03 E0= -.13407704E+03  d E =-.557595E-04
quench:  g(F)=  0.000E+00 g(S)=  0.000E+00 dE (1.order)= 0.000E+00
 bond charge predicted
       N       E                     dE             d eps       ncg     rms          rms(c)
DAV:   1    -0.134082196484E+03   -0.46215E-04   -0.87578E-03  4455   0.163E-01    0.317E-02
RMM:   2    -0.134082231556E+03   -0.35072E-04   -0.45713E-04  4606   0.413E-02    0.230E-02
RMM:   3    -0.134082218866E+03    0.12690E-04   -0.23421E-05  2490   0.149E-02    0.131E-02
RMM:   4    -0.134082217497E+03    0.13693E-05   -0.15629E-05  2304   0.197E-02
  68 F= -.13408222E+03 E0= -.13407710E+03  d E =-.682521E-04
quench:  g(F)=  0.000E+00 g(S)=  0.000E+00 dE (1.order)= 0.000E+00
 bond charge predicted
       N       E                     dE             d eps       ncg     rms          rms(c)
DAV:   1    -0.134082249584E+03   -0.30718E-04   -0.64521E-03  4689   0.164E-01    0.206E-02
RMM:   2    -0.134082279558E+03   -0.29974E-04   -0.30319E-04  4472   0.381E-02    0.155E-02
RMM:   3    -0.134082277108E+03    0.24497E-05   -0.21077E-05  2347   0.185E-02
  69 F= -.13408228E+03 E0= -.13407717E+03  d E =-.596113E-04
quench:  g(F)=  0.000E+00 g(S)=  0.000E+00 dE (1.order)= 0.000E+00
 bond charge predicted
       N       E                     dE             d eps       ncg     rms          rms(c)
DAV:   1    -0.134082308432E+03   -0.28874E-04   -0.97171E-03  4905   0.202E-01    0.248E-02
RMM:   2    -0.134082348594E+03   -0.40163E-04   -0.41309E-04  4362   0.426E-02    0.201E-02
RMM:   3    -0.134082345527E+03    0.30677E-05   -0.27064E-05  2480   0.177E-02
  70 F= -.13408235E+03 E0= -.13407723E+03  d E =-.684186E-04
quench:  g(F)=  0.000E+00 g(S)=  0.000E+00 dE (1.order)= 0.000E+00
 bond charge predicted
       N       E                     dE             d eps       ncg     rms          rms(c)
DAV:   1    -0.134082342001E+03    0.65935E-05   -0.13859E-02  4698   0.242E-01    0.309E-02
RMM:   2    -0.134082407890E+03   -0.65889E-04   -0.70184E-04  5451   0.531E-02    0.237E-02
RMM:   3    -0.134082396125E+03    0.11766E-04   -0.34103E-05  2510   0.186E-02    0.158E-02
RMM:   4    -0.134082395359E+03    0.76546E-06   -0.17430E-05  2277   0.212E-02
  71 F= -.13408240E+03 E0= -.13407728E+03  d E =-.498323E-04
quench:  g(F)=  0.000E+00 g(S)=  0.000E+00 dE (1.order)= 0.000E+00
 bond charge predicted
       N       E                     dE             d eps       ncg     rms          rms(c)
DAV:   1    -0.134082436656E+03   -0.40531E-04   -0.83454E-03  4545   0.163E-01    0.300E-02
RMM:   2    -0.134082469362E+03   -0.32706E-04   -0.41117E-04  4423   0.386E-02    0.213E-02
RMM:   3    -0.134082459481E+03    0.98808E-05   -0.21389E-05  2443   0.153E-02
  72 F= -.13408246E+03 E0= -.13407735E+03  d E =-.641218E-04
quench:  g(F)=  0.000E+00 g(S)=  0.000E+00 dE (1.order)= 0.000E+00
 bond charge predicted
       N       E                     dE             d eps       ncg     rms          rms(c)
DAV:   1    -0.134082493750E+03   -0.24388E-04   -0.64962E-03  4842   0.172E-01    0.218E-02
RMM:   2    -0.134082542033E+03   -0.48283E-04   -0.32047E-04  4576   0.434E-02    0.333E-02
RMM:   3    -0.134082516302E+03    0.25731E-04   -0.30829E-05  2488   0.214E-02    0.144E-02
RMM:   4    -0.134082515348E+03    0.95439E-06   -0.10219E-05  2231   0.160E-02
  73 F= -.13408252E+03 E0= -.13407740E+03  d E =-.558666E-04
quench:  g(F)=  0.000E+00 g(S)=  0.000E+00 dE (1.order)= 0.000E+00
 bond charge predicted
       N       E                     dE             d eps       ncg     rms          rms(c)
DAV:   1    -0.134082555402E+03   -0.39100E-04   -0.10016E-02  4059   0.178E-01    0.259E-02
RMM:   2    -0.134082590654E+03   -0.35253E-04   -0.40681E-04  4552   0.423E-02    0.171E-02
RMM:   3    -0.134082583744E+03    0.69109E-05   -0.17965E-05  2300   0.144E-02
  74 F= -.13408258E+03 E0= -.13407747E+03  d E =-.683960E-04
quench:  g(F)=  0.000E+00 g(S)=  0.000E+00 dE (1.order)= 0.000E+00
 bond charge predicted
       N       E                     dE             d eps       ncg     rms          rms(c)
DAV:   1    -0.134082589668E+03    0.98639E-06   -0.14448E-02  4257   0.224E-01    0.320E-02
RMM:   2    -0.134082660471E+03   -0.70803E-04   -0.66780E-04  5502   0.564E-02    0.299E-02
RMM:   3    -0.134082651033E+03    0.94388E-05   -0.58463E-05  2882   0.272E-02
  75 F= -.13408265E+03 E0= -.13407754E+03  d E =-.672890E-04
quench:  g(F)=  0.000E+00 g(S)=  0.000E+00 dE (1.order)= 0.000E+00
 bond charge predicted
       N       E                     dE             d eps       ncg     rms          rms(c)
DAV:   1    -0.134082672033E+03   -0.11562E-04   -0.78488E-03  5283   0.211E-01    0.291E-02
RMM:   2    -0.134082710862E+03   -0.38829E-04   -0.42496E-04  4419   0.429E-02    0.231E-02
RMM:   3    -0.134082707307E+03    0.35556E-05   -0.26846E-05  2516   0.180E-02
  76 F= -.13408271E+03 E0= -.13407758E+03  d E =-.562742E-04
quench:  g(F)=  0.000E+00 g(S)=  0.000E+00 dE (1.order)= 0.000E+00
 bond charge predicted
       N       E                     dE             d eps       ncg     rms          rms(c)
DAV:   1    -0.134082725367E+03   -0.14505E-04   -0.53078E-03  5229   0.198E-01    0.194E-02
RMM:   2    -0.134082758075E+03   -0.32707E-04   -0.27991E-04  4334   0.384E-02    0.199E-02
RMM:   3    -0.134082751278E+03    0.67968E-05   -0.20821E-05  2342   0.182E-02
  77 F= -.13408275E+03 E0= -.13407764E+03  d E =-.439711E-04
quench:  g(F)=  0.000E+00 g(S)=  0.000E+00 dE (1.order)= 0.000E+00
 bond charge predicted
       N       E                     dE             d eps       ncg     rms          rms(c)
DAV:   1    -0.134082779410E+03   -0.21336E-04   -0.80181E-03  4563   0.175E-01    0.244E-02
RMM:   2    -0.134082811171E+03   -0.31761E-04   -0.35611E-04  4245   0.401E-02    0.176E-02
RMM:   3    -0.134082805034E+03    0.61375E-05   -0.20395E-05  2304   0.176E-02
  78 F= -.13408281E+03 E0= -.13407769E+03  d E =-.537558E-04
quench:  g(F)=  0.000E+00 g(S)=  0.000E+00 dE (1.order)= 0.000E+00
 bond charge predicted
       N       E                     dE             d eps       ncg     rms          rms(c)
DAV:   1    -0.134082812335E+03   -0.11642E-05   -0.13187E-02  4221   0.216E-01    0.297E-02
RMM:   2    -0.134082875162E+03   -0.62827E-04   -0.61707E-04  5480   0.534E-02    0.242E-02
RMM:   3    -0.134082871482E+03    0.36803E-05   -0.37435E-05  2582   0.221E-02
  79 F= -.13408287E+03 E0= -.13407776E+03  d E =-.664484E-04
quench:  g(F)=  0.000E+00 g(S)=  0.000E+00 dE (1.order)= 0.000E+00
 bond charge predicted
       N       E                     dE             d eps       ncg     rms          rms(c)
DAV:   1    -0.134082885120E+03   -0.99579E-05   -0.85377E-03  5238   0.215E-01    0.295E-02
RMM:   2    -0.134082923224E+03   -0.38103E-04   -0.44054E-04  4375   0.408E-02    0.212E-02
RMM:   3    -0.134082919470E+03    0.37542E-05   -0.23855E-05  2517   0.159E-02
  80 F= -.13408292E+03 E0= -.13407780E+03  d E =-.479874E-04
quench:  g(F)=  0.000E+00 g(S)=  0.000E+00 dE (1.order)= 0.000E+00
 bond charge predicted
       N       E                     dE             d eps       ncg     rms          rms(c)
DAV:   1    -0.134082940457E+03   -0.17233E-04   -0.56252E-03  5292   0.201E-01    0.210E-02
RMM:   2    -0.134082986195E+03   -0.45738E-04   -0.29451E-04  4448   0.413E-02    0.289E-02
RMM:   3    -0.134082966061E+03    0.20134E-04   -0.26372E-05  2400   0.201E-02    0.154E-02
RMM:   4    -0.134082963873E+03    0.21877E-05   -0.87573E-06  2191   0.153E-02
  81 F= -.13408296E+03 E0= -.13407785E+03  d E =-.444038E-04
quench:  g(F)=  0.000E+00 g(S)=  0.000E+00 dE (1.order)= 0.000E+00
 bond charge predicted
       N       E                     dE             d eps       ncg     rms          rms(c)
DAV:   1    -0.134083002300E+03   -0.36239E-04   -0.79750E-03  4122   0.152E-01    0.228E-02
RMM:   2    -0.134083028525E+03   -0.26225E-04   -0.29884E-04  4067   0.356E-02    0.150E-02
RMM:   3    -0.134083025907E+03    0.26182E-05   -0.15686E-05  2325   0.147E-02
  82 F= -.13408303E+03 E0= -.13407790E+03  d E =-.620339E-04
quench:  g(F)=  0.000E+00 g(S)=  0.000E+00 dE (1.order)= 0.000E+00
 bond charge predicted
       N       E                     dE             d eps       ncg     rms          rms(c)
DAV:   1    -0.134083028373E+03    0.15244E-06   -0.14289E-02  4446   0.236E-01    0.300E-02
RMM:   2    -0.134083099833E+03   -0.71460E-04   -0.65747E-04  5536   0.540E-02    0.251E-02
RMM:   3    -0.134083093669E+03    0.61641E-05   -0.45378E-05  2652   0.220E-02
  83 F= -.13408309E+03 E0= -.13407798E+03  d E =-.677619E-04
quench:  g(F)=  0.000E+00 g(S)=  0.000E+00 dE (1.order)= 0.000E+00
 bond charge predicted
       N       E                     dE             d eps       ncg     rms          rms(c)
DAV:   1    -0.134083094773E+03    0.50601E-05   -0.10740E-02  5094   0.223E-01    0.335E-02
RMM:   2    -0.134083140698E+03   -0.45925E-04   -0.54755E-04  4598   0.439E-02    0.241E-02
RMM:   3    -0.134083128272E+03    0.12426E-04   -0.27990E-05  2551   0.169E-02    0.156E-02
RMM:   4    -0.134083134024E+03   -0.57514E-05   -0.15283E-05  2300   0.186E-02
  84 F= -.13408313E+03 E0= -.13407801E+03  d E =-.403547E-04
quench:  g(F)=  0.000E+00 g(S)=  0.000E+00 dE (1.order)= 0.000E+00
 bond charge predicted
       N       E                     dE             d eps       ncg     rms          rms(c)
DAV:   1    -0.134083159601E+03   -0.31329E-04   -0.69000E-03  5202   0.199E-01    0.248E-02
RMM:   2    -0.134083195270E+03   -0.35669E-04   -0.36424E-04  4701   0.398E-02    0.200E-02
RMM:   3    -0.134083189933E+03    0.53373E-05   -0.25514E-05  2428   0.196E-02
  85 F= -.13408319E+03 E0= -.13407807E+03  d E =-.559089E-04
quench:  g(F)=  0.000E+00 g(S)=  0.000E+00 dE (1.order)= 0.000E+00
 bond charge predicted
       N       E                     dE             d eps       ncg     rms          rms(c)
DAV:   1    -0.134083218449E+03   -0.23179E-04   -0.61206E-03  5202   0.181E-01    0.206E-02
RMM:   2    -0.134083251650E+03   -0.33201E-04   -0.26502E-04  3894   0.383E-02    0.244E-02
RMM:   3    -0.134083240363E+03    0.11287E-04   -0.24811E-05  2387   0.195E-02    0.163E-02
RMM:   4    -0.134083237084E+03    0.32789E-05   -0.87607E-06  2159   0.162E-02
  86 F= -.13408324E+03 E0= -.13407812E+03  d E =-.471516E-04
quench:  g(F)=  0.000E+00 g(S)=  0.000E+00 dE (1.order)= 0.000E+00
 bond charge predicted
       N       E                     dE             d eps       ncg     rms          rms(c)
DAV:   1    -0.134083257982E+03   -0.17618E-04   -0.11877E-02  4050   0.192E-01    0.269E-02
RMM:   2    -0.134083303419E+03   -0.45438E-04   -0.49047E-04  5192   0.455E-02    0.159E-02
RMM:   3    -0.134083298063E+03    0.53565E-05   -0.22155E-05  2353   0.129E-02
  87 F= -.13408330E+03 E0= -.13407818E+03  d E =-.609784E-04
quench:  g(F)=  0.000E+00 g(S)=  0.000E+00 dE (1.order)= 0.000E+00
 bond charge predicted
       N       E                     dE             d eps       ncg     rms          rms(c)
DAV:   1    -0.134083317091E+03   -0.13672E-04   -0.11307E-02  4149   0.177E-01    0.328E-02
RMM:   2    -0.134083356810E+03   -0.39719E-04   -0.49866E-04  4663   0.446E-02    0.231E-02
RMM:   3    -0.134083345486E+03    0.11324E-04   -0.28085E-05  2493   0.182E-02    0.156E-02
RMM:   4    -0.134083345202E+03    0.28450E-06   -0.19510E-05  2314   0.224E-02
  88 F= -.13408335E+03 E0= -.13407822E+03  d E =-.471389E-04
quench:  g(F)=  0.000E+00 g(S)=  0.000E+00 dE (1.order)= 0.000E+00
 bond charge predicted
       N       E                     dE             d eps       ncg     rms          rms(c)
DAV:   1    -0.134083377919E+03   -0.32433E-04   -0.67538E-03  4599   0.162E-01    0.252E-02
RMM:   2    -0.134083416464E+03   -0.38545E-04   -0.34776E-04  4582   0.414E-02    0.250E-02
RMM:   3    -0.134083409150E+03    0.73146E-05   -0.30499E-05  2492   0.222E-02
  89 F= -.13408341E+03 E0= -.13407829E+03  d E =-.639481E-04
quench:  g(F)=  0.000E+00 g(S)=  0.000E+00 dE (1.order)= 0.000E+00
 bond charge predicted
       N       E                     dE             d eps       ncg     rms          rms(c)
DAV:   1    -0.134083432455E+03   -0.15990E-04   -0.53543E-03  5211   0.175E-01    0.189E-02
RMM:   2    -0.134083454995E+03   -0.22540E-04   -0.23608E-04  3733   0.332E-02    0.139E-02
RMM:   3    -0.134083453627E+03    0.13680E-05   -0.17317E-05  2334   0.167E-02
  90 F= -.13408345E+03 E0= -.13407833E+03  d E =-.444772E-04
quench:  g(F)=  0.000E+00 g(S)=  0.000E+00 dE (1.order)= 0.000E+00
 bond charge predicted
       N       E                     dE             d eps       ncg     rms          rms(c)
DAV:   1    -0.134083469495E+03   -0.14500E-04   -0.10194E-02  4410   0.200E-01    0.258E-02
RMM:   2    -0.134083516442E+03   -0.46947E-04   -0.48360E-04  5126   0.471E-02    0.197E-02
RMM:   3    -0.134083511440E+03    0.50018E-05   -0.27483E-05  2469   0.198E-02
  91 F= -.13408351E+03 E0= -.13407839E+03  d E =-.578134E-04
quench:  g(F)=  0.000E+00 g(S)=  0.000E+00 dE (1.order)= 0.000E+00
 bond charge predicted
       N       E                     dE             d eps       ncg     rms          rms(c)
DAV:   1    -0.134083524596E+03   -0.81538E-05   -0.10364E-02  4986   0.209E-01    0.316E-02
RMM:   2    -0.134083573918E+03   -0.49322E-04   -0.48578E-04  4465   0.462E-02    0.284E-02
RMM:   3    -0.134083566597E+03    0.73218E-05   -0.36668E-05  2669   0.215E-02
  92 F= -.13408357E+03 E0= -.13407843E+03  d E =-.551561E-04
quench:  g(F)=  0.000E+00 g(S)=  0.000E+00 dE (1.order)= 0.000E+00
 bond charge predicted
       N       E                     dE             d eps       ncg     rms          rms(c)
DAV:   1    -0.134083578004E+03   -0.40860E-05   -0.67534E-03  5202   0.209E-01    0.226E-02
RMM:   2    -0.134083614826E+03   -0.36821E-04   -0.37830E-04  4693   0.384E-02    0.173E-02
RMM:   3    -0.134083609634E+03    0.51919E-05   -0.18747E-05  2340   0.159E-02
  93 F= -.13408361E+03 E0= -.13407849E+03  d E =-.430371E-04
quench:  g(F)=  0.000E+00 g(S)=  0.000E+00 dE (1.order)= 0.000E+00
 bond charge predicted
       N       E                     dE             d eps       ncg     rms          rms(c)
DAV:   1    -0.134083640433E+03   -0.25608E-04   -0.53171E-03  5148   0.166E-01    0.217E-02
RMM:   2    -0.134083676008E+03   -0.35575E-04   -0.23627E-04  3762   0.369E-02    0.292E-02
RMM:   3    -0.134083658044E+03    0.17965E-04   -0.26630E-05  2423   0.212E-02    0.159E-02
RMM:   4    -0.134083655281E+03    0.27630E-05   -0.85816E-06  2175   0.157E-02
  94 F= -.13408366E+03 E0= -.13407853E+03  d E =-.456470E-04
quench:  g(F)=  0.000E+00 g(S)=  0.000E+00 dE (1.order)= 0.000E+00
 bond charge predicted
       N       E                     dE             d eps       ncg     rms          rms(c)
DAV:   1    -0.134083683102E+03   -0.25059E-04   -0.10269E-02  4032   0.175E-01    0.255E-02
RMM:   2    -0.134083721635E+03   -0.38533E-04   -0.41058E-04  4820   0.425E-02    0.161E-02
RMM:   3    -0.134083719346E+03    0.22889E-05   -0.25925E-05  2369   0.184E-02
  95 F= -.13408372E+03 E0= -.13407860E+03  d E =-.640654E-04
quench:  g(F)=  0.000E+00 g(S)=  0.000E+00 dE (1.order)= 0.000E+00
 bond charge predicted
       N       E                     dE             d eps       ncg     rms          rms(c)
DAV:   1    -0.134083733886E+03   -0.12251E-04   -0.11471E-02  4698   0.208E-01    0.318E-02
RMM:   2    -0.134083786424E+03   -0.52538E-04   -0.51608E-04  4546   0.485E-02    0.288E-02
RMM:   3    -0.134083779003E+03    0.74212E-05   -0.42040E-05  2726   0.233E-02
  96 F= -.13408378E+03 E0= -.13407864E+03  d E =-.596564E-04
quench:  g(F)=  0.000E+00 g(S)=  0.000E+00 dE (1.order)= 0.000E+00
 bond charge predicted
       N       E                     dE             d eps       ncg     rms          rms(c)
DAV:   1    -0.134083787479E+03   -0.10553E-05   -0.78565E-03  5094   0.214E-01    0.243E-02
RMM:   2    -0.134083829559E+03   -0.42080E-04   -0.44336E-04  4841   0.400E-02    0.177E-02
RMM:   3    -0.134083822253E+03    0.73065E-05   -0.19158E-05  2348   0.142E-02
  97 F= -.13408382E+03 E0= -.13407870E+03  d E =-.432504E-04
quench:  g(F)=  0.000E+00 g(S)=  0.000E+00 dE (1.order)= 0.000E+00
 bond charge predicted
       N       E                     dE             d eps       ncg     rms          rms(c)
DAV:   1    -0.134083857474E+03   -0.27915E-04   -0.48821E-03  5121   0.154E-01    0.229E-02
RMM:   2    -0.134083902422E+03   -0.44948E-04   -0.23444E-04  4014   0.414E-02    0.371E-02
RMM:   3    -0.134083871007E+03    0.31415E-04   -0.30594E-05  2520   0.236E-02    0.149E-02
RMM:   4    -0.134083869119E+03    0.18880E-05   -0.83437E-06  2181   0.144E-02
  98 F= -.13408387E+03 E0= -.13407874E+03  d E =-.468660E-04
quench:  g(F)=  0.000E+00 g(S)=  0.000E+00 dE (1.order)= 0.000E+00
 bond charge predicted
       N       E                     dE             d eps       ncg     rms          rms(c)
DAV:   1    -0.134083899003E+03   -0.27996E-04   -0.91720E-03  4095   0.174E-01    0.241E-02
RMM:   2    -0.134083935552E+03   -0.36549E-04   -0.38232E-04  4823   0.424E-02    0.158E-02
RMM:   3    -0.134083932673E+03    0.28791E-05   -0.25514E-05  2355   0.193E-02
  99 F= -.13408393E+03 E0= -.13407880E+03  d E =-.635543E-04
quench:  g(F)=  0.000E+00 g(S)=  0.000E+00 dE (1.order)= 0.000E+00
 bond charge predicted
       N       E                     dE             d eps       ncg     rms          rms(c)
DAV:   1    -0.134083948942E+03   -0.13390E-04   -0.12125E-02  4284   0.204E-01    0.317E-02
RMM:   2    -0.134083998866E+03   -0.49924E-04   -0.52425E-04  4660   0.482E-02    0.248E-02
RMM:   3    -0.134083994624E+03    0.42424E-05   -0.36828E-05  2606   0.210E-02
 100 F= -.13408399E+03 E0= -.13407888E+03  d E =-.619503E-04
quench:  g(F)=  0.000E+00 g(S)=  0.000E+00 dE (1.order)= 0.000E+00
 bond charge predicted
       N       E                     dE             d eps       ncg     rms          rms(c)
DAV:   1    -0.134083996253E+03    0.26125E-05   -0.92889E-03  5229   0.237E-01    0.272E-02
RMM:   2    -0.134084043492E+03   -0.47238E-04   -0.49809E-04  5070   0.431E-02    0.205E-02
RMM:   3    -0.134084038831E+03    0.46611E-05   -0.25565E-05  2481   0.168E-02
 101 F= -.13408404E+03 E0= -.13407890E+03  d E =-.442072E-04
quench:  g(F)=  0.000E+00 g(S)=  0.000E+00 dE (1.order)= 0.000E+00
 bond charge predicted
       N       E                     dE             d eps       ncg     rms          rms(c)
DAV:   1    -0.134084066470E+03   -0.22978E-04   -0.44015E-03  5283   0.178E-01    0.215E-02
RMM:   2    -0.134084098869E+03   -0.32399E-04   -0.22146E-04  3865   0.354E-02    0.260E-02
RMM:   3    -0.134084083164E+03    0.15705E-04   -0.23355E-05  2376   0.198E-02    0.167E-02
RMM:   4    -0.134084079918E+03    0.32457E-05   -0.91587E-06  2183   0.160E-02
 102 F= -.13408408E+03 E0= -.13407895E+03  d E =-.410875E-04
quench:  g(F)=  0.000E+00 g(S)=  0.000E+00 dE (1.order)= 0.000E+00
 bond charge predicted
       N       E                     dE             d eps       ncg     rms          rms(c)
DAV:   1    -0.134084109384E+03   -0.26220E-04   -0.75235E-03  4041   0.150E-01    0.213E-02
RMM:   2    -0.134084137659E+03   -0.28276E-04   -0.29277E-04  4408   0.359E-02    0.131E-02
RMM:   3    -0.134084136771E+03    0.88872E-06   -0.18042E-05  2343   0.144E-02
 103 F= -.13408414E+03 E0= -.13407900E+03  d E =-.568523E-04
quench:  g(F)=  0.000E+00 g(S)=  0.000E+00 dE (1.order)= 0.000E+00
 bond charge predicted
       N       E                     dE             d eps       ncg     rms          rms(c)
DAV:   1    -0.134084152767E+03   -0.15108E-04   -0.12654E-02  4437   0.215E-01    0.308E-02
RMM:   2    -0.134084205074E+03   -0.52307E-04   -0.54122E-04  4734   0.479E-02    0.233E-02
RMM:   3    -0.134084201456E+03    0.36188E-05   -0.36929E-05  2622   0.209E-02
 104 F= -.13408420E+03 E0= -.13407908E+03  d E =-.646851E-04
quench:  g(F)=  0.000E+00 g(S)=  0.000E+00 dE (1.order)= 0.000E+00
 bond charge predicted
       N       E                     dE             d eps       ncg     rms          rms(c)
DAV:   1    -0.134084185886E+03    0.19188E-04   -0.11509E-02  5085   0.245E-01    0.304E-02
RMM:   2    -0.134084241009E+03   -0.55123E-04   -0.60519E-04  5257   0.473E-02    0.219E-02
RMM:   3    -0.134084231234E+03    0.97750E-05   -0.27840E-05  2478   0.156E-02
 105 F= -.13408423E+03 E0= -.13407909E+03  d E =-.297781E-04
quench:  g(F)=  0.000E+00 g(S)=  0.000E+00 dE (1.order)= 0.000E+00
 bond charge predicted
       N       E                     dE             d eps       ncg     rms          rms(c)
DAV:   1    -0.134084268382E+03   -0.27373E-04   -0.56644E-03  5130   0.159E-01    0.263E-02
RMM:   2    -0.134084311114E+03   -0.42732E-04   -0.29463E-04  4186   0.412E-02    0.325E-02
RMM:   3    -0.134084287018E+03    0.24096E-04   -0.32045E-05  2525   0.223E-02    0.192E-02
RMM:   4    -0.134084282682E+03    0.43359E-05   -0.13070E-05  2236   0.181E-02
 106 F= -.13408428E+03 E0= -.13407915E+03  d E =-.514480E-04
quench:  g(F)=  0.000E+00 g(S)=  0.000E+00 dE (1.order)= 0.000E+00
 bond charge predicted
       N       E                     dE             d eps       ncg     rms          rms(c)
DAV:   1    -0.134084308834E+03   -0.21817E-04   -0.55191E-03  4284   0.146E-01    0.192E-02
RMM:   2    -0.134084332845E+03   -0.24011E-04   -0.24632E-04  4145   0.358E-02    0.147E-02
RMM:   3    -0.134084330013E+03    0.28323E-05   -0.21878E-05  2290   0.200E-02
 107 F= -.13408433E+03 E0= -.13407920E+03  d E =-.473310E-04
quench:  g(F)=  0.000E+00 g(S)=  0.000E+00 dE (1.order)= 0.000E+00
 bond charge predicted
       N       E                     dE             d eps       ncg     rms          rms(c)
DAV:   1    -0.134084354731E+03   -0.21886E-04   -0.97827E-03  4158   0.179E-01    0.263E-02
RMM:   2    -0.134084392410E+03   -0.37679E-04   -0.40367E-04  4410   0.423E-02    0.196E-02
RMM:   3    -0.134084392702E+03   -0.29234E-06   -0.26063E-05  2464   0.177E-02
 108 F= -.13408439E+03 E0= -.13407925E+03  d E =-.626896E-04
quench:  g(F)=  0.000E+00 g(S)=  0.000E+00 dE (1.order)= 0.000E+00
 bond charge predicted
       N       E                     dE             d eps       ncg     rms          rms(c)
DAV:   1    -0.134084375770E+03    0.16640E-04   -0.12429E-02  4698   0.239E-01    0.301E-02
RMM:   2    -0.134084437650E+03   -0.61880E-04   -0.64620E-04  5354   0.503E-02    0.227E-02
RMM:   3    -0.134084428761E+03    0.88891E-05   -0.31935E-05  2502   0.181E-02
 109 F= -.13408443E+03 E0= -.13407930E+03  d E =-.360582E-04
quench:  g(F)=  0.000E+00 g(S)=  0.000E+00 dE (1.order)= 0.000E+00
 bond charge predicted
       N       E                     dE             d eps       ncg     rms          rms(c)
DAV:   1    -0.134084459440E+03   -0.21790E-04   -0.58058E-03  5373   0.188E-01    0.270E-02
RMM:   2    -0.134084509636E+03   -0.50196E-04   -0.31056E-04  4184   0.432E-02    0.369E-02
RMM:   3    -0.134084481228E+03    0.28407E-04   -0.35286E-05  2614   0.235E-02    0.191E-02
RMM:   4    -0.134084477377E+03    0.38512E-05   -0.12117E-05  2285   0.172E-02
 110 F= -.13408448E+03 E0= -.13407934E+03  d E =-.486167E-04
quench:  g(F)=  0.000E+00 g(S)=  0.000E+00 dE (1.order)= 0.000E+00
 bond charge predicted
       N       E                     dE             d eps       ncg     rms          rms(c)
DAV:   1    -0.134084502188E+03   -0.20959E-04   -0.49573E-03  4041   0.125E-01    0.182E-02
RMM:   2    -0.134084522234E+03   -0.20046E-04   -0.20417E-04  3860   0.322E-02    0.127E-02
RMM:   3    -0.134084521130E+03    0.11034E-05   -0.19284E-05  2240   0.190E-02
 111 F= -.13408452E+03 E0= -.13407939E+03  d E =-.437531E-04
quench:  g(F)=  0.000E+00 g(S)=  0.000E+00 dE (1.order)= 0.000E+00
 bond charge predicted
       N       E                     dE             d eps       ncg     rms          rms(c)
DAV:   1    -0.134084543642E+03   -0.21408E-04   -0.90397E-03  4203   0.175E-01    0.247E-02
RMM:   2    -0.134084578981E+03   -0.35340E-04   -0.38432E-04  4373   0.418E-02    0.182E-02
RMM:   3    -0.134084578465E+03    0.51656E-06   -0.23669E-05  2420   0.185E-02
 112 F= -.13408458E+03 E0= -.13407944E+03  d E =-.573344E-04
quench:  g(F)=  0.000E+00 g(S)=  0.000E+00 dE (1.order)= 0.000E+00
 bond charge predicted
       N       E                     dE             d eps       ncg     rms          rms(c)
DAV:   1    -0.134084560866E+03    0.18115E-04   -0.12531E-02  4617   0.232E-01    0.297E-02
RMM:   2    -0.134084621500E+03   -0.60634E-04   -0.63453E-04  5346   0.501E-02    0.214E-02
RMM:   3    -0.134084613561E+03    0.79390E-05   -0.30476E-05  2472   0.164E-02
 113 F= -.13408461E+03 E0= -.13407948E+03  d E =-.350961E-04
quench:  g(F)=  0.000E+00 g(S)=  0.000E+00 dE (1.order)= 0.000E+00
 bond charge predicted
       N       E                     dE             d eps       ncg     rms          rms(c)
DAV:   1    -0.134084642626E+03   -0.21126E-04   -0.56176E-03  5391   0.184E-01    0.271E-02
RMM:   2    -0.134084695307E+03   -0.52681E-04   -0.30434E-04  4207   0.446E-02    0.388E-02
RMM:   3    -0.134084662904E+03    0.32403E-04   -0.36639E-05  2658   0.243E-02    0.187E-02
RMM:   4    -0.134084658275E+03    0.46286E-05   -0.11527E-05  2275   0.163E-02
 114 F= -.13408466E+03 E0= -.13407952E+03  d E =-.447143E-04
quench:  g(F)=  0.000E+00 g(S)=  0.000E+00 dE (1.order)= 0.000E+00
 bond charge predicted
       N       E                     dE             d eps       ncg     rms          rms(c)
DAV:   1    -0.134084681656E+03   -0.18753E-04   -0.45172E-03  4212   0.123E-01    0.178E-02
RMM:   2    -0.134084700637E+03   -0.18980E-04   -0.19299E-04  3828   0.318E-02    0.131E-02
RMM:   3    -0.134084699142E+03    0.14951E-05   -0.19708E-05  2233   0.196E-02
 115 F= -.13408470E+03 E0= -.13407956E+03  d E =-.408664E-04
quench:  g(F)=  0.000E+00 g(S)=  0.000E+00 dE (1.order)= 0.000E+00
 bond charge predicted
       N       E                     dE             d eps       ncg     rms          rms(c)
DAV:   1    -0.134084719088E+03   -0.18451E-04   -0.83655E-03  4176   0.163E-01    0.236E-02
RMM:   2    -0.134084749413E+03   -0.30325E-04   -0.34279E-04  4221   0.386E-02    0.149E-02
RMM:   3    -0.134084745154E+03    0.42583E-05   -0.16433E-05  2313   0.142E-02
 116 F= -.13408475E+03 E0= -.13407961E+03  d E =-.460129E-04
quench:  g(F)=  0.000E+00 g(S)=  0.000E+00 dE (1.order)= 0.000E+00
 bond charge predicted
       N       E                     dE             d eps       ncg     rms          rms(c)
DAV:   1    -0.134084734364E+03    0.15048E-04   -0.12090E-02  4419   0.217E-01    0.299E-02
RMM:   2    -0.134084806377E+03   -0.72012E-04   -0.59280E-04  5402   0.518E-02    0.316E-02
RMM:   3    -0.134084788762E+03    0.17615E-04   -0.44819E-05  2708   0.239E-02    0.247E-02
RMM:   4    -0.134084779415E+03    0.93473E-05   -0.14787E-05  2250   0.200E-02
 117 F= -.13408478E+03 E0= -.13407964E+03  d E =-.342601E-04
quench:  g(F)=  0.000E+00 g(S)=  0.000E+00 dE (1.order)= 0.000E+00
 bond charge predicted
       N       E                     dE             d eps       ncg     rms          rms(c)
DAV:   1    -0.134084810115E+03   -0.21353E-04   -0.61698E-03  4194   0.124E-01    0.269E-02
RMM:   2    -0.134084832876E+03   -0.22761E-04   -0.28698E-04  4000   0.332E-02    0.200E-02
RMM:   3    -0.134084827352E+03    0.55239E-05   -0.22535E-05  2375   0.188E-02
 118 F= -.13408483E+03 E0= -.13407969E+03  d E =-.479377E-04
quench:  g(F)=  0.000E+00 g(S)=  0.000E+00 dE (1.order)= 0.000E+00
 bond charge predicted
       N       E                     dE             d eps       ncg     rms          rms(c)
DAV:   1    -0.134084842649E+03   -0.97731E-05   -0.42459E-03  4644   0.145E-01    0.177E-02
RMM:   2    -0.134084865774E+03   -0.23124E-04   -0.21247E-04  3900   0.366E-02    0.179E-02
RMM:   3    -0.134084861762E+03    0.40114E-05   -0.23651E-05  2314   0.205E-02
 119 F= -.13408486E+03 E0= -.13407973E+03  d E =-.344101E-04
quench:  g(F)=  0.000E+00 g(S)=  0.000E+00 dE (1.order)= 0.000E+00
 bond charge predicted
       N       E                     dE             d eps       ncg     rms          rms(c)
DAV:   1    -0.134084877097E+03   -0.11323E-04   -0.68705E-03  4554   0.163E-01    0.234E-02
RMM:   2    -0.134084906672E+03   -0.29575E-04   -0.31042E-04  4108   0.391E-02    0.201E-02
RMM:   3    -0.134084903812E+03    0.28597E-05   -0.24059E-05  2407   0.196E-02
 120 F= -.13408490E+03 E0= -.13407976E+03  d E =-.420499E-04
quench:  g(F)=  0.000E+00 g(S)=  0.000E+00 dE (1.order)= 0.000E+00
 bond charge predicted
       N       E                     dE             d eps       ncg     rms          rms(c)
DAV:   1    -0.134084890577E+03    0.16095E-04   -0.10606E-02  4590   0.212E-01    0.279E-02
RMM:   2    -0.134084944644E+03   -0.54067E-04   -0.54991E-04  5214   0.488E-02    0.222E-02
RMM:   3    -0.134084936928E+03    0.77166E-05   -0.30717E-05  2485   0.202E-02
 121 F= -.13408494E+03 E0= -.13407980E+03  d E =-.331157E-04
quench:  g(F)=  0.000E+00 g(S)=  0.000E+00 dE (1.order)= 0.000E+00
 bond charge predicted
       N       E                     dE             d eps       ncg     rms          rms(c)
DAV:   1    -0.134084953676E+03   -0.90313E-05   -0.64521E-03  5265   0.181E-01    0.275E-02
RMM:   2    -0.134084995080E+03   -0.41405E-04   -0.32694E-04  4110   0.410E-02    0.314E-02
RMM:   3    -0.134084979387E+03    0.15693E-04   -0.32675E-05  2588   0.225E-02    0.215E-02
RMM:   4    -0.134084971988E+03    0.73988E-05   -0.12882E-05  2278   0.181E-02
 122 F= -.13408497E+03 E0= -.13407983E+03  d E =-.350604E-04
quench:  g(F)=  0.000E+00 g(S)=  0.000E+00 dE (1.order)= 0.000E+00
 bond charge predicted
       N       E                     dE             d eps       ncg     rms          rms(c)
DAV:   1    -0.134084992946E+03   -0.13559E-04   -0.51226E-03  4140   0.122E-01    0.194E-02
RMM:   2    -0.134085013032E+03   -0.20085E-04   -0.22180E-04  3941   0.311E-02    0.125E-02
RMM:   3    -0.134085011661E+03    0.13711E-05   -0.16878E-05  2244   0.169E-02
 123 F= -.13408501E+03 E0= -.13407987E+03  d E =-.396722E-04
quench:  g(F)=  0.000E+00 g(S)=  0.000E+00 dE (1.order)= 0.000E+00
 bond charge predicted
       N       E                     dE             d eps       ncg     rms          rms(c)
DAV:   1    -0.134085030547E+03   -0.17515E-04   -0.73012E-03  4482   0.163E-01    0.228E-02
RMM:   2    -0.134085062165E+03   -0.31618E-04   -0.31391E-04  4082   0.383E-02    0.197E-02
RMM:   3    -0.134085059452E+03    0.27126E-05   -0.25065E-05  2404   0.195E-02
 124 F= -.13408506E+03 E0= -.13407991E+03  d E =-.477916E-04
quench:  g(F)=  0.000E+00 g(S)=  0.000E+00 dE (1.order)= 0.000E+00
 bond charge predicted
       N       E                     dE             d eps       ncg     rms          rms(c)
DAV:   1    -0.134085046089E+03    0.16075E-04   -0.10657E-02  4500   0.209E-01    0.273E-02
RMM:   2    -0.134085098364E+03   -0.52274E-04   -0.54977E-04  5233   0.469E-02    0.194E-02
RMM:   3    -0.134085090963E+03    0.74003E-05   -0.25057E-05  2399   0.160E-02
 125 F= -.13408509E+03 E0= -.13407994E+03  d E =-.315111E-04
quench:  g(F)=  0.000E+00 g(S)=  0.000E+00 dE (1.order)= 0.000E+00
 bond charge predicted
       N       E                     dE             d eps       ncg     rms          rms(c)
DAV:   1    -0.134085114893E+03   -0.16529E-04   -0.68548E-03  5175   0.189E-01    0.291E-02
RMM:   2    -0.134085187448E+03   -0.72555E-04   -0.36014E-04  4480   0.460E-02    0.452E-02
RMM:   3    -0.134085133629E+03    0.53819E-04   -0.43048E-05  2816   0.252E-02    0.191E-02
RMM:   4    -0.134085129640E+03    0.39891E-05   -0.13068E-05  2311   0.169E-02
 126 F= -.13408513E+03 E0= -.13407999E+03  d E =-.386769E-04
quench:  g(F)=  0.000E+00 g(S)=  0.000E+00 dE (1.order)= 0.000E+00
 bond charge predicted
       N       E                     dE             d eps       ncg     rms          rms(c)
DAV:   1    -0.134085151156E+03   -0.17527E-04   -0.54062E-03  4131   0.134E-01    0.205E-02
RMM:   2    -0.134085176246E+03   -0.25090E-04   -0.25494E-04  4187   0.359E-02    0.172E-02
RMM:   3    -0.134085172044E+03    0.42018E-05   -0.22902E-05  2321   0.204E-02
 127 F= -.13408517E+03 E0= -.13408003E+03  d E =-.424041E-04
quench:  g(F)=  0.000E+00 g(S)=  0.000E+00 dE (1.order)= 0.000E+00
 bond charge predicted
       N       E                     dE             d eps       ncg     rms          rms(c)
DAV:   1    -0.134085191131E+03   -0.14885E-04   -0.74164E-03  4284   0.157E-01    0.232E-02
RMM:   2    -0.134085220274E+03   -0.29143E-04   -0.31536E-04  4101   0.377E-02    0.164E-02
RMM:   3    -0.134085218918E+03    0.13555E-05   -0.22400E-05  2392   0.183E-02
 128 F= -.13408522E+03 E0= -.13408009E+03  d E =-.468738E-04
quench:  g(F)=  0.000E+00 g(S)=  0.000E+00 dE (1.order)= 0.000E+00
 bond charge predicted
       N       E                     dE             d eps       ncg     rms          rms(c)
DAV:   1    -0.134085210106E+03    0.10168E-04   -0.10697E-02  4734   0.220E-01    0.277E-02
RMM:   2    -0.134085262122E+03   -0.52016E-04   -0.53975E-04  5179   0.468E-02    0.195E-02
RMM:   3    -0.134085257202E+03    0.49204E-05   -0.26518E-05  2492   0.152E-02
 129 F= -.13408526E+03 E0= -.13408011E+03  d E =-.382838E-04
quench:  g(F)=  0.000E+00 g(S)=  0.000E+00 dE (1.order)= 0.000E+00
 bond charge predicted
       N       E                     dE             d eps       ncg     rms          rms(c)
DAV:   1    -0.134085273994E+03   -0.11872E-04   -0.69939E-03  5139   0.191E-01    0.281E-02
RMM:   2    -0.134085319518E+03   -0.45524E-04   -0.35142E-04  4282   0.414E-02    0.303E-02
RMM:   3    -0.134085300696E+03    0.18822E-04   -0.34361E-05  2648   0.223E-02    0.226E-02
RMM:   4    -0.134085292746E+03    0.79501E-05   -0.13514E-05  2296   0.187E-02
 130 F= -.13408529E+03 E0= -.13408015E+03  d E =-.355439E-04
quench:  g(F)=  0.000E+00 g(S)=  0.000E+00 dE (1.order)= 0.000E+00
 bond charge predicted
       N       E                     dE             d eps       ncg     rms          rms(c)
DAV:   1    -0.134085315528E+03   -0.14832E-04   -0.55721E-03  4095   0.127E-01    0.204E-02
RMM:   2    -0.134085338069E+03   -0.22541E-04   -0.24260E-04  4039   0.324E-02    0.149E-02
RMM:   3    -0.134085336754E+03    0.13153E-05   -0.19647E-05  2336   0.185E-02
 131 F= -.13408534E+03 E0= -.13408019E+03  d E =-.440080E-04
quench:  g(F)=  0.000E+00 g(S)=  0.000E+00 dE (1.order)= 0.000E+00
 bond charge predicted
       N       E                     dE             d eps       ncg     rms          rms(c)
DAV:   1    -0.134085356738E+03   -0.18669E-04   -0.72469E-03  4644   0.169E-01    0.234E-02
RMM:   2    -0.134085391850E+03   -0.35111E-04   -0.31308E-04  4104   0.396E-02    0.222E-02
RMM:   3    -0.134085384172E+03    0.76780E-05   -0.27396E-05  2443   0.204E-02
 132 F= -.13408538E+03 E0= -.13408025E+03  d E =-.474178E-04
[...]
       N       E                     dE             d eps       ncg     rms          rms(c)
DAV:   1    -0.134091750456E+03   -0.24744E-04   -0.64183E-03  5238   0.185E-01    0.287E-02
RMM:   2    -0.134091808774E+03   -0.58318E-04   -0.34844E-04  4305   0.511E-02    0.422E-02
RMM:   3    -0.134091772215E+03    0.36559E-04   -0.47033E-05  2986   0.281E-02    0.193E-02
RMM:   4    -0.134091766462E+03    0.57532E-05   -0.11983E-05  2305   0.159E-02
 274 F= -.13409177E+03 E0= -.13408658E+03  d E =-.497126E-04
quench:  g(F)=  0.000E+00 g(S)=  0.000E+00 dE (1.order)= 0.000E+00
 bond charge predicted
       N       E                     dE             d eps       ncg     rms          rms(c)
DAV:   1    -0.134091785838E+03   -0.13623E-04   -0.66731E-03  4176   0.158E-01    0.218E-02
RMM:   2    -0.134091813826E+03   -0.27988E-04   -0.28855E-04  4487   0.386E-02    0.146E-02
RMM:   3    -0.134091813275E+03    0.55071E-06   -0.23495E-05  2357   0.199E-02
 275 F= -.13409181E+03 E0= -.13408662E+03  d E =-.468132E-04
quench:  g(F)=  0.000E+00 g(S)=  0.000E+00 dE (1.order)= 0.000E+00
 bond charge predicted
       N       E                     dE             d eps       ncg     rms          rms(c)
DAV:   1    -0.134091824990E+03   -0.11164E-04   -0.12365E-02  4185   0.205E-01    0.312E-02
RMM:   2    -0.134091876484E+03   -0.51494E-04   -0.53316E-04  4709   0.497E-02    0.230E-02
RMM:   3    -0.134091874184E+03    0.22998E-05   -0.38699E-05  2597   0.216E-02
 276 F= -.13409187E+03 E0= -.13408670E+03  d E =-.609089E-04
quench:  g(F)=  0.000E+00 g(S)=  0.000E+00 dE (1.order)= 0.000E+00
 bond charge predicted
       N       E                     dE             d eps       ncg     rms          rms(c)
DAV:   1    -0.134091834737E+03    0.41747E-04   -0.15968E-02  4698   0.276E-01    0.352E-02
RMM:   2    -0.134091908800E+03   -0.74062E-04   -0.79543E-04  5570   0.590E-02    0.260E-02
RMM:   3    -0.134091900532E+03    0.82682E-05   -0.50000E-05  2739   0.240E-02
 277 F= -.13409190E+03 E0= -.13408671E+03  d E =-.263474E-04
quench:  g(F)=  0.000E+00 g(S)=  0.000E+00 dE (1.order)= 0.000E+00
 bond charge predicted
       N       E                     dE             d eps       ncg     rms          rms(c)
DAV:   1    -0.134091931693E+03   -0.22893E-04   -0.73743E-03  5094   0.194E-01    0.308E-02
RMM:   2    -0.134091985727E+03   -0.54034E-04   -0.39336E-04  4444   0.458E-02    0.365E-02
RMM:   3    -0.134091958764E+03    0.26963E-04   -0.41165E-05  2776   0.249E-02    0.226E-02
RMM:   4    -0.134091950814E+03    0.79501E-05   -0.14385E-05  2309   0.181E-02
 278 F= -.13409195E+03 E0= -.13408676E+03  d E =-.502821E-04
quench:  g(F)=  0.000E+00 g(S)=  0.000E+00 dE (1.order)= 0.000E+00
 bond charge predicted
       N       E                     dE             d eps       ncg     rms          rms(c)
DAV:   1    -0.134091974033E+03   -0.15270E-04   -0.54486E-03  4122   0.140E-01    0.204E-02
RMM:   2    -0.134091997475E+03   -0.23442E-04   -0.24008E-04  4151   0.370E-02    0.169E-02
RMM:   3    -0.134091994990E+03    0.24854E-05   -0.25903E-05  2416   0.221E-02
 279 F= -.13409199E+03 E0= -.13408681E+03  d E =-.441760E-04
quench:  g(F)=  0.000E+00 g(S)=  0.000E+00 dE (1.order)= 0.000E+00
 bond charge predicted
       N       E                     dE             d eps       ncg     rms          rms(c)
DAV:   1    -0.134092012989E+03   -0.15514E-04   -0.10639E-02  4095   0.180E-01    0.278E-02
RMM:   2    -0.134092050490E+03   -0.37501E-04   -0.43077E-04  4410   0.434E-02    0.170E-02
RMM:   3    -0.134092046984E+03    0.35055E-05   -0.22783E-05  2384   0.154E-02
 280 F= -.13409205E+03 E0= -.13408685E+03  d E =-.519945E-04
quench:  g(F)=  0.000E+00 g(S)=  0.000E+00 dE (1.order)= 0.000E+00
 bond charge predicted
       N       E                     dE             d eps       ncg     rms          rms(c)
DAV:   1    -0.134092021426E+03    0.29064E-04   -0.17176E-02  4347   0.257E-01    0.353E-02
RMM:   2    -0.134092109228E+03   -0.87802E-04   -0.79722E-04  5748   0.603E-02    0.309E-02
RMM:   3    -0.134092100019E+03    0.92088E-05   -0.58934E-05  2919   0.261E-02
 281 F= -.13409210E+03 E0= -.13408692E+03  d E =-.530347E-04
quench:  g(F)=  0.000E+00 g(S)=  0.000E+00 dE (1.order)= 0.000E+00
 bond charge predicted
       N       E                     dE             d eps       ncg     rms          rms(c)
DAV:   1    -0.134092108710E+03    0.51798E-06   -0.80857E-03  5346   0.223E-01    0.311E-02
RMM:   2    -0.134092145870E+03   -0.37161E-04   -0.44198E-04  4276   0.396E-02    0.212E-02
RMM:   3    -0.134092136376E+03    0.94940E-05   -0.24035E-05  2483   0.157E-02
 282 F= -.13409214E+03 E0= -.13408695E+03  d E =-.363575E-04
quench:  g(F)=  0.000E+00 g(S)=  0.000E+00 dE (1.order)= 0.000E+00
 bond charge predicted
       N       E                     dE             d eps       ncg     rms          rms(c)
DAV:   1    -0.134092160275E+03   -0.14404E-04   -0.47675E-03  5301   0.192E-01    0.239E-02
RMM:   2    -0.134092251142E+03   -0.90867E-04   -0.27649E-04  4335   0.499E-02    0.534E-02
RMM:   3    -0.134092174225E+03    0.76917E-04   -0.50537E-05  3105   0.289E-02    0.111E-02
RMM:   4    -0.134092174146E+03    0.78144E-07   -0.70009E-06  2212   0.116E-02
 283 F= -.13409217E+03 E0= -.13408699E+03  d E =-.377700E-04
quench:  g(F)=  0.000E+00 g(S)=  0.000E+00 dE (1.order)= 0.000E+00
 bond charge predicted
       N       E                     dE             d eps       ncg     rms          rms(c)
DAV:   1    -0.134092199268E+03   -0.25043E-04   -0.92202E-03  4158   0.157E-01    0.256E-02
RMM:   2    -0.134092229408E+03   -0.30140E-04   -0.35255E-04  4162   0.384E-02    0.155E-02
RMM:   3    -0.134092225894E+03    0.35136E-05   -0.16824E-05  2311   0.146E-02
 284 F= -.13409223E+03 E0= -.13408703E+03  d E =-.517476E-04
quench:  g(F)=  0.000E+00 g(S)=  0.000E+00 dE (1.order)= 0.000E+00
 bond charge predicted
       N       E                     dE             d eps       ncg     rms          rms(c)
DAV:   1    -0.134092207906E+03    0.21502E-04   -0.17934E-02  4284   0.256E-01    0.354E-02
RMM:   2    -0.134092297887E+03   -0.89981E-04   -0.81777E-04  5868   0.609E-02    0.286E-02
RMM:   3    -0.134092292619E+03    0.52679E-05   -0.61277E-05  2868   0.251E-02
 285 F= -.13409229E+03 E0= -.13408711E+03  d E =-.667247E-04
quench:  g(F)=  0.000E+00 g(S)=  0.000E+00 dE (1.order)= 0.000E+00
 bond charge predicted
       N       E                     dE             d eps       ncg     rms          rms(c)
DAV:   1    -0.134092269327E+03    0.28560E-04   -0.12287E-02  5184   0.251E-01    0.379E-02
RMM:   2    -0.134092322860E+03   -0.53533E-04   -0.65044E-04  4650   0.466E-02    0.266E-02
RMM:   3    -0.134092308298E+03    0.14561E-04   -0.35912E-05  2647   0.183E-02    0.169E-02
RMM:   4    -0.134092315258E+03   -0.69598E-05   -0.17664E-05  2351   0.196E-02
 286 F= -.13409232E+03 E0= -.13408712E+03  d E =-.226395E-04
quench:  g(F)=  0.000E+00 g(S)=  0.000E+00 dE (1.order)= 0.000E+00
 bond charge predicted
       N       E                     dE             d eps       ncg     rms          rms(c)
DAV:   1    -0.134092335447E+03   -0.27149E-04   -0.81279E-03  5166   0.219E-01    0.280E-02
RMM:   2    -0.134092376832E+03   -0.41385E-04   -0.42592E-04  4929   0.423E-02    0.221E-02
RMM:   3    -0.134092370827E+03    0.60058E-05   -0.31233E-05  2551   0.211E-02
 287 F= -.13409237E+03 E0= -.13408719E+03  d E =-.555685E-04
quench:  g(F)=  0.000E+00 g(S)=  0.000E+00 dE (1.order)= 0.000E+00
 bond charge predicted
       N       E                     dE             d eps       ncg     rms          rms(c)
DAV:   1    -0.134092387875E+03   -0.11042E-04   -0.56277E-03  5229   0.190E-01    0.214E-02
RMM:   2    -0.134092419214E+03   -0.31340E-04   -0.24913E-04  3821   0.368E-02    0.238E-02
RMM:   3    -0.134092409254E+03    0.99599E-05   -0.26977E-05  2414   0.204E-02
 288 F= -.13409241E+03 E0= -.13408721E+03  d E =-.384276E-04
quench:  g(F)=  0.000E+00 g(S)=  0.000E+00 dE (1.order)= 0.000E+00
 bond charge predicted
       N       E                     dE             d eps       ncg     rms          rms(c)
DAV:   1    -0.134092412735E+03    0.64790E-05   -0.11192E-02  4167   0.201E-01    0.286E-02
RMM:   2    -0.134092464470E+03   -0.51735E-04   -0.53413E-04  5368   0.494E-02    0.209E-02
RMM:   3    -0.134092460765E+03    0.37049E-05   -0.31957E-05  2501   0.202E-02
 289 F= -.13409246E+03 E0= -.13408726E+03  d E =-.515107E-04
quench:  g(F)=  0.000E+00 g(S)=  0.000E+00 dE (1.order)= 0.000E+00
 bond charge predicted
       N       E                     dE             d eps       ncg     rms          rms(c)
DAV:   1    -0.134092462344E+03    0.21262E-05   -0.12630E-02  4806   0.231E-01    0.358E-02
RMM:   2    -0.134092532358E+03   -0.70014E-04   -0.58953E-04  4757   0.505E-02    0.357E-02
RMM:   3    -0.134092508789E+03    0.23568E-04   -0.50822E-05  2998   0.248E-02    0.293E-02
RMM:   4    -0.134092494655E+03    0.14134E-04   -0.18897E-05  2319   0.221E-02    0.121E-02
RMM:   5    -0.134092493076E+03    0.15786E-05   -0.61867E-06  2210   0.110E-02
 290 F= -.13409249E+03 E0= -.13408730E+03  d E =-.323113E-04
quench:  g(F)=  0.000E+00 g(S)=  0.000E+00 dE (1.order)= 0.000E+00
 bond charge predicted
       N       E                     dE             d eps       ncg     rms          rms(c)
DAV:   1    -0.134092518344E+03   -0.23689E-04   -0.95767E-03  4185   0.167E-01    0.297E-02
RMM:   2    -0.134092558384E+03   -0.40040E-04   -0.45919E-04  5082   0.427E-02    0.208E-02
RMM:   3    -0.134092552963E+03    0.54207E-05   -0.24412E-05  2429   0.160E-02
 291 F= -.13409255E+03 E0= -.13408737E+03  d E =-.598868E-04
quench:  g(F)=  0.000E+00 g(S)=  0.000E+00 dE (1.order)= 0.000E+00
 bond charge predicted
       N       E                     dE             d eps       ncg     rms          rms(c)
DAV:   1    -0.134092580320E+03   -0.21936E-04   -0.55308E-03  5292   0.187E-01    0.239E-02
RMM:   2    -0.134092638361E+03   -0.58042E-04   -0.27203E-04  4188   0.449E-02    0.410E-02
RMM:   3    -0.134092594874E+03    0.43487E-04   -0.36846E-05  2645   0.247E-02    0.147E-02
RMM:   4    -0.134092592955E+03    0.19196E-05   -0.86906E-06  2196   0.148E-02
 292 F= -.13409259E+03 E0= -.13408740E+03  d E =-.399915E-04
quench:  g(F)=  0.000E+00 g(S)=  0.000E+00 dE (1.order)= 0.000E+00
 bond charge predicted
       N       E                     dE             d eps       ncg     rms          rms(c)
DAV:   1    -0.134092613626E+03   -0.18751E-04   -0.99469E-03  4131   0.175E-01    0.259E-02
RMM:   2    -0.134092652198E+03   -0.38572E-04   -0.39827E-04  4921   0.428E-02    0.161E-02
RMM:   3    -0.134092649770E+03    0.24272E-05   -0.23933E-05  2378   0.187E-02
 293 F= -.13409265E+03 E0= -.13408746E+03  d E =-.568158E-04
quench:  g(F)=  0.000E+00 g(S)=  0.000E+00 dE (1.order)= 0.000E+00
 bond charge predicted
       N       E                     dE             d eps       ncg     rms          rms(c)
DAV:   1    -0.134092655516E+03   -0.33183E-05   -0.13396E-02  4248   0.206E-01    0.339E-02
RMM:   2    -0.134092706229E+03   -0.50713E-04   -0.58788E-04  4697   0.488E-02    0.231E-02
RMM:   3    -0.134092703410E+03    0.28188E-05   -0.32129E-05  2555   0.187E-02
 294 F= -.13409270E+03 E0= -.13408750E+03  d E =-.536395E-04
quench:  g(F)=  0.000E+00 g(S)=  0.000E+00 dE (1.order)= 0.000E+00
 bond charge predicted
       N       E                     dE             d eps       ncg     rms          rms(c)
DAV:   1    -0.134092700441E+03    0.57876E-05   -0.10941E-02  5058   0.250E-01    0.298E-02
RMM:   2    -0.134092766300E+03   -0.65858E-04   -0.54850E-04  5190   0.495E-02    0.308E-02
RMM:   3    -0.134092751371E+03    0.14929E-04   -0.45980E-05  2720   0.239E-02    0.245E-02
RMM:   4    -0.134092742245E+03    0.91264E-05   -0.15726E-05  2276   0.199E-02
 295 F= -.13409274E+03 E0= -.13408755E+03  d E =-.388347E-04
quench:  g(F)=  0.000E+00 g(S)=  0.000E+00 dE (1.order)= 0.000E+00
 bond charge predicted
       N       E                     dE             d eps       ncg     rms          rms(c)
DAV:   1    -0.134092776517E+03   -0.25146E-04   -0.49317E-03  4149   0.109E-01    0.225E-02
RMM:   2    -0.134092791901E+03   -0.15384E-04   -0.20244E-04  3558   0.290E-02    0.157E-02
RMM:   3    -0.134092790616E+03    0.12854E-05   -0.17092E-05  2344   0.172E-02
 296 F= -.13409279E+03 E0= -.13408760E+03  d E =-.483712E-04
quench:  g(F)=  0.000E+00 g(S)=  0.000E+00 dE (1.order)= 0.000E+00
 bond charge predicted
       N       E                     dE             d eps       ncg     rms          rms(c)
DAV:   1    -0.134092807253E+03   -0.15352E-04   -0.82860E-03  4383   0.189E-01    0.238E-02
RMM:   2    -0.134092857476E+03   -0.50223E-04   -0.37815E-04  4896   0.447E-02    0.251E-02
RMM:   3    -0.134092844952E+03    0.12525E-04   -0.35417E-05  2487   0.217E-02    0.193E-02
RMM:   4    -0.134092839970E+03    0.49813E-05   -0.10144E-05  2213   0.174E-02
 297 F= -.13409284E+03 E0= -.13408765E+03  d E =-.493546E-04
quench:  g(F)=  0.000E+00 g(S)=  0.000E+00 dE (1.order)= 0.000E+00
 bond charge predicted
       N       E                     dE             d eps       ncg     rms          rms(c)
DAV:   1    -0.134092859322E+03   -0.14370E-04   -0.14970E-02  4077   0.197E-01    0.335E-02
RMM:   2    -0.134092906783E+03   -0.47461E-04   -0.56583E-04  4621   0.451E-02    0.217E-02
RMM:   3    -0.134092898091E+03    0.86922E-05   -0.26087E-05  2475   0.160E-02
 298 F= -.13409290E+03 E0= -.13408770E+03  d E =-.581209E-04
quench:  g(F)=  0.000E+00 g(S)=  0.000E+00 dE (1.order)= 0.000E+00
 bond charge predicted
       N       E                     dE             d eps       ncg     rms          rms(c)
DAV:   1    -0.134092877265E+03    0.29518E-04   -0.15612E-02  4608   0.257E-01    0.358E-02
RMM:   2    -0.134092978966E+03   -0.10170E-03   -0.77881E-04  5551   0.609E-02    0.418E-02
RMM:   3    -0.134092945220E+03    0.33745E-04   -0.70450E-05  3370   0.299E-02    0.276E-02
RMM:   4    -0.134092933972E+03    0.11249E-04   -0.15678E-05  2302   0.186E-02    0.117E-02
RMM:   5    -0.134092932517E+03    0.14544E-05   -0.67289E-06  2229   0.123E-02
 299 F= -.13409293E+03 E0= -.13408774E+03  d E =-.344260E-04
quench:  g(F)=  0.000E+00 g(S)=  0.000E+00 dE (1.order)= 0.000E+00
 bond charge predicted
       N       E                     dE             d eps       ncg     rms          rms(c)
DAV:   1    -0.134092977293E+03   -0.43321E-04   -0.71373E-03  4311   0.145E-01    0.307E-02
RMM:   2    -0.134093005681E+03   -0.28388E-04   -0.37866E-04  4241   0.370E-02    0.221E-02
RMM:   3    -0.134092995099E+03    0.10582E-04   -0.21652E-05  2461   0.153E-02    0.124E-02
RMM:   4    -0.134092995711E+03   -0.61149E-06   -0.13636E-05  2262   0.180E-02
 300 F= -.13409300E+03 E0= -.13408780E+03  d E =-.631934E-04
quench:  g(F)=  0.000E+00 g(S)=  0.000E+00 dE (1.order)= 0.000E+00
 bond charge predicted
       N       E                     dE             d eps       ncg     rms          rms(c)
DAV:   1    -0.134093016708E+03   -0.21609E-04   -0.55675E-03  4716   0.163E-01    0.199E-02
RMM:   2    -0.134093048713E+03   -0.32006E-04   -0.25980E-04  4276   0.385E-02    0.209E-02
RMM:   3    -0.134093041023E+03    0.76902E-05   -0.24532E-05  2371   0.204E-02
 301 F= -.13409304E+03 E0= -.13408785E+03  d E =-.453125E-04
quench:  g(F)=  0.000E+00 g(S)=  0.000E+00 dE (1.order)= 0.000E+00
 bond charge predicted
       N       E                     dE             d eps       ncg     rms          rms(c)
DAV:   1    -0.134093057081E+03   -0.83677E-05   -0.10256E-02  4266   0.189E-01    0.274E-02
RMM:   2    -0.134093095738E+03   -0.38657E-04   -0.43414E-04  4474   0.438E-02    0.179E-02
RMM:   3    -0.134093089683E+03    0.60557E-05   -0.24010E-05  2392   0.184E-02
 302 F= -.13409309E+03 E0= -.13408790E+03  d E =-.486595E-04
quench:  g(F)=  0.000E+00 g(S)=  0.000E+00 dE (1.order)= 0.000E+00
 bond charge predicted
       N       E                     dE             d eps       ncg     rms          rms(c)
DAV:   1    -0.134093078191E+03    0.17548E-04   -0.15002E-02  4401   0.243E-01    0.336E-02
RMM:   2    -0.134093158935E+03   -0.80744E-04   -0.70854E-04  5629   0.563E-02    0.338E-02
RMM:   3    -0.134093142117E+03    0.16819E-04   -0.53434E-05  2775   0.242E-02    0.270E-02
RMM:   4    -0.134093132117E+03    0.99995E-05   -0.18964E-05  2300   0.224E-02
 303 F= -.13409313E+03 E0= -.13408794E+03  d E =-.424343E-04
quench:  g(F)=  0.000E+00 g(S)=  0.000E+00 dE (1.order)= 0.000E+00
 bond charge predicted
       N       E                     dE             d eps       ncg     rms          rms(c)
DAV:   1    -0.134093171380E+03   -0.29264E-04   -0.72655E-03  4392   0.149E-01    0.302E-02
RMM:   2    -0.134093198683E+03   -0.27303E-04   -0.35305E-04  4203   0.407E-02    0.247E-02
RMM:   3    -0.134093189198E+03    0.94849E-05   -0.33539E-05  2566   0.232E-02
 304 F= -.13409319E+03 E0= -.13408800E+03  d E =-.570815E-04
quench:  g(F)=  0.000E+00 g(S)=  0.000E+00 dE (1.order)= 0.000E+00
 bond charge predicted
       N       E                     dE             d eps       ncg     rms          rms(c)
DAV:   1    -0.134093209402E+03   -0.10719E-04   -0.53081E-03  4410   0.157E-01    0.195E-02
RMM:   2    -0.134093236238E+03   -0.26836E-04   -0.24675E-04  4187   0.378E-02    0.182E-02
RMM:   3    -0.134093232934E+03    0.33043E-05   -0.26134E-05  2378   0.208E-02
 305 F= -.13409323E+03 E0= -.13408804E+03  d E =-.437355E-04
quench:  g(F)=  0.000E+00 g(S)=  0.000E+00 dE (1.order)= 0.000E+00
 bond charge predicted
       N       E                     dE             d eps       ncg     rms          rms(c)
DAV:   1    -0.134093251552E+03   -0.15314E-04   -0.89926E-03  4419   0.185E-01    0.269E-02
RMM:   2    -0.134093286864E+03   -0.35312E-04   -0.38526E-04  4301   0.428E-02    0.199E-02
RMM:   3    -0.134093285158E+03    0.17057E-05   -0.26894E-05  2461   0.200E-02
 306 F= -.13409329E+03 E0= -.13408808E+03  d E =-.522240E-04
quench:  g(F)=  0.000E+00 g(S)=  0.000E+00 dE (1.order)= 0.000E+00
 bond charge predicted
       N       E                     dE             d eps       ncg     rms          rms(c)
DAV:   1    -0.134093271600E+03    0.15264E-04   -0.13407E-02  4590   0.242E-01    0.320E-02
RMM:   2    -0.134093337112E+03   -0.65513E-04   -0.66424E-04  5393   0.550E-02    0.263E-02
RMM:   3    -0.134093331016E+03    0.60964E-05   -0.47544E-05  2753   0.248E-02
 307 F= -.13409333E+03 E0= -.13408814E+03  d E =-.458580E-04
quench:  g(F)=  0.000E+00 g(S)=  0.000E+00 dE (1.order)= 0.000E+00
 bond charge predicted
       N       E                     dE             d eps       ncg     rms          rms(c)
DAV:   1    -0.134093352998E+03   -0.15886E-04   -0.68788E-03  5373   0.204E-01    0.288E-02
RMM:   2    -0.134093394290E+03   -0.41291E-04   -0.35492E-04  4177   0.415E-02    0.289E-02
RMM:   3    -0.134093383301E+03    0.10989E-04   -0.34437E-05  2611   0.224E-02    0.238E-02
RMM:   4    -0.134093373403E+03    0.98974E-05   -0.15147E-05  2281   0.200E-02
 308 F= -.13409337E+03 E0= -.13408818E+03  d E =-.423874E-04
quench:  g(F)=  0.000E+00 g(S)=  0.000E+00 dE (1.order)= 0.000E+00
 bond charge predicted
       N       E                     dE             d eps       ncg     rms          rms(c)
DAV:   1    -0.134093399046E+03   -0.15745E-04   -0.59920E-03  4167   0.138E-01    0.210E-02
RMM:   2    -0.134093422542E+03   -0.23496E-04   -0.24530E-04  4142   0.347E-02    0.130E-02
RMM:   3    -0.134093421508E+03    0.10333E-05   -0.21714E-05  2291   0.191E-02
 309 F= -.13409342E+03 E0= -.13408823E+03  d E =-.481049E-04
quench:  g(F)=  0.000E+00 g(S)=  0.000E+00 dE (1.order)= 0.000E+00
 bond charge predicted
       N       E                     dE             d eps       ncg     rms          rms(c)
DAV:   1    -0.134093441245E+03   -0.18703E-04   -0.93750E-03  4266   0.177E-01    0.266E-02
RMM:   2    -0.134093476629E+03   -0.35384E-04   -0.39021E-04  4301   0.419E-02    0.187E-02
RMM:   3    -0.134093477241E+03   -0.61248E-06   -0.25659E-05  2434   0.192E-02
