 vasp.5.4.4.18Apr17-6-g9f103f2a35 (build Feb 06 2024 13:54:16) complex          
  
 POSCAR found type information on POSCAR  Cu Pd Cu N  O 
 04/POSCAR found :  5 types and      40 ions
 scaLAPACK will be used

 ----------------------------------------------------------------------------- 
|                                                                             |
|  ADVICE TO THIS USER RUNNING 'VASP/VAMP'   (HEAR YOUR MASTER'S VOICE ...):  |
|                                                                             |
|      You enforced a specific xc-type in the INCAR file,                     |
|      a different type was found on the POTCAR file                          |
|          I HOPE YOU KNOW, WHAT YOU ARE  DOING                               |
|                                                                             |
 ----------------------------------------------------------------------------- 

 LDA part: xc-table for Pade appr. of Perdew
 POSCAR found type information on POSCAR  Cu Pd Cu N  O 
 00/POSCAR found :  5 types and      40 ions
 POSCAR found type information on POSCAR  Cu Pd Cu N  O 
 06/POSCAR found :  5 types and      40 ions
 Jacobian:    20.5888137679208     
 POSCAR, INCAR and KPOINTS ok, starting setup
 FFT: planning ...
 WAVECAR not read
 entering main loop
       N       E                     dE             d eps       ncg     rms          rms(c)
DAV:   1     0.418738736441E+04    0.41874E+04   -0.17852E+05  4032   0.203E+03
DAV:   2     0.612308415867E+03   -0.35751E+04   -0.34459E+04  4032   0.460E+02
DAV:   3    -0.312299634754E+02   -0.64354E+03   -0.59224E+03  4680   0.232E+02
DAV:   4    -0.150513944645E+03   -0.11928E+03   -0.10545E+03  7047   0.932E+01
DAV:   5    -0.163461329453E+03   -0.12947E+02   -0.12199E+02  6273   0.314E+01    0.448E+01
RMM:   6    -0.181307477615E+03   -0.17846E+02   -0.37358E+02  4079   0.967E+01    0.517E+01
RMM:   7    -0.172220407197E+03    0.90871E+01   -0.12368E+02  4173   0.451E+01    0.350E+01
RMM:   8    -0.147599882115E+03    0.24621E+02   -0.20754E+01  4063   0.202E+01    0.247E+01
RMM:   9    -0.140052885652E+03    0.75470E+01   -0.69616E+00  4111   0.125E+01    0.143E+01
RMM:  10    -0.136102037859E+03    0.39508E+01   -0.13549E+01  4125   0.135E+01    0.901E+00
RMM:  11    -0.134997935734E+03    0.11041E+01   -0.30044E+00  4132   0.692E+00    0.472E+00
RMM:  12    -0.134762699901E+03    0.23524E+00   -0.80668E-01  4114   0.373E+00    0.365E+00
RMM:  13    -0.134779176083E+03   -0.16476E-01   -0.64087E-01  4104   0.317E+00    0.377E+00
RMM:  14    -0.134588578157E+03    0.19060E+00   -0.23363E-01  4238   0.135E+00    0.274E+00
RMM:  15    -0.134478428465E+03    0.11015E+00   -0.27579E-01  4148   0.182E+00    0.166E+00
RMM:  16    -0.134447714730E+03    0.30714E-01   -0.89511E-02  4134   0.100E+00    0.113E+00
RMM:  17    -0.134429276925E+03    0.18438E-01   -0.26038E-02  4353   0.455E-01    0.759E-01
RMM:  18    -0.134418873497E+03    0.10403E-01   -0.95808E-03  4206   0.297E-01    0.495E-01
RMM:  19    -0.134413229451E+03    0.56440E-02   -0.98524E-03  4164   0.280E-01    0.240E-01
RMM:  20    -0.134412527691E+03    0.70176E-03   -0.20715E-03  4816   0.119E-01    0.191E-01
RMM:  21    -0.134411847034E+03    0.68066E-03   -0.12508E-03  4140   0.104E-01    0.118E-01
RMM:  22    -0.134412025516E+03   -0.17848E-03   -0.67254E-04  4270   0.625E-02    0.107E-01
RMM:  23    -0.134412171824E+03   -0.14631E-03   -0.41475E-04  4107   0.485E-02    0.581E-02
RMM:  24    -0.134412350710E+03   -0.17889E-03   -0.14339E-04  4036   0.249E-02    0.383E-02
RMM:  25    -0.134412964567E+03   -0.61386E-03   -0.18858E-04  3915   0.265E-02    0.378E-02
RMM:  26    -0.134413207139E+03   -0.24257E-03   -0.66813E-05  3014   0.200E-02    0.243E-02
RMM:  27    -0.134413326351E+03   -0.11921E-03   -0.31585E-05  2535   0.180E-02    0.241E-02
RMM:  28    -0.134413460554E+03   -0.13420E-03   -0.22705E-05  2472   0.144E-02    0.261E-02
RMM:  29    -0.134413518128E+03   -0.57574E-04   -0.12228E-05  2384   0.137E-02    0.185E-02
RMM:  30    -0.134413573680E+03   -0.55552E-04   -0.12886E-05  2414   0.104E-02    0.100E-02
RMM:  31    -0.134413601868E+03   -0.28187E-04   -0.67265E-06  2342   0.917E-03    0.596E-03
RMM:  32    -0.134413615484E+03   -0.13616E-04   -0.39702E-06  2316   0.744E-03    0.276E-03
RMM:  33    -0.134413622357E+03   -0.68732E-05   -0.19229E-06  2273   0.486E-03
   1 F= -.13441362E+03 E0= -.13440951E+03  d E =-.134414E+03
quench:  g(F)=  0.000E+00 g(S)=  0.000E+00 dE (1.order)= 0.000E+00
 bond charge predicted
       N       E                     dE             d eps       ncg     rms          rms(c)
DAV:   1    -0.134419773422E+03   -0.61579E-02   -0.87673E-01  4212   0.161E+00    0.260E-01
RMM:   2    -0.134423783758E+03   -0.40103E-02   -0.45251E-02  6021   0.432E-01    0.161E-01
RMM:   3    -0.134423513672E+03    0.27009E-03   -0.29970E-03  4234   0.180E-01    0.166E-01
RMM:   4    -0.134423234416E+03    0.27926E-03   -0.86274E-04  4141   0.121E-01    0.104E-01
RMM:   5    -0.134423200749E+03    0.33667E-04   -0.48914E-04  4107   0.911E-02    0.879E-02
RMM:   6    -0.134423075594E+03    0.12516E-03   -0.24891E-04  4053   0.705E-02    0.308E-02
RMM:   7    -0.134423070156E+03    0.54383E-05   -0.86570E-05  3599   0.373E-02
   2 F= -.13442307E+03 E0= -.13441897E+03  d E =-.944780E-02
quench:  g(F)=  0.000E+00 g(S)=  0.000E+00 dE (1.order)= 0.000E+00
 bond charge predicted
       N       E                     dE             d eps       ncg     rms          rms(c)
DAV:   1    -0.134423903989E+03   -0.82839E-03   -0.54275E-01  4194   0.132E+00    0.207E-01
RMM:   2    -0.134427816674E+03   -0.39127E-02   -0.44660E-02  5731   0.432E-01    0.203E-01
RMM:   3    -0.134426739575E+03    0.10771E-02   -0.24195E-03  5685   0.103E-01    0.113E-01
RMM:   4    -0.134426755177E+03   -0.15602E-04   -0.61940E-04  4291   0.789E-02    0.108E-01
RMM:   5    -0.134426578917E+03    0.17626E-03   -0.29142E-04  4355   0.559E-02    0.482E-02
RMM:   6    -0.134426569982E+03    0.89341E-05   -0.23621E-04  4055   0.653E-02    0.398E-02
RMM:   7    -0.134426541444E+03    0.28538E-04   -0.67882E-05  3389   0.371E-02    0.109E-02
RMM:   8    -0.134426544073E+03   -0.26290E-05   -0.18173E-05  2360   0.162E-02
   3 F= -.13442654E+03 E0= -.13442248E+03  d E =-.347392E-02
quench:  g(F)=  0.000E+00 g(S)=  0.000E+00 dE (1.order)= 0.000E+00
 bond charge predicted
       N       E                     dE             d eps       ncg     rms          rms(c)
DAV:   1    -0.134426109190E+03    0.43225E-03   -0.29436E-01  4194   0.106E+00    0.140E-01
RMM:   2    -0.134427511281E+03   -0.14021E-02   -0.15063E-02  5293   0.307E-01    0.930E-02
RMM:   3    -0.134427429433E+03    0.81848E-04   -0.11654E-03  5109   0.870E-02    0.969E-02
RMM:   4    -0.134427285811E+03    0.14362E-03   -0.27593E-04  4143   0.606E-02    0.571E-02
RMM:   5    -0.134427250461E+03    0.35351E-04   -0.10217E-04  3873   0.412E-02    0.355E-02
RMM:   6    -0.134427235943E+03    0.14518E-04   -0.77599E-05  3843   0.397E-02    0.209E-02
RMM:   7    -0.134427228722E+03    0.72215E-05   -0.22031E-05  2394   0.224E-02
   4 F= -.13442723E+03 E0= -.13442318E+03  d E =-.684648E-03
quench:  g(F)=  0.000E+00 g(S)=  0.000E+00 dE (1.order)= 0.000E+00
 bond charge predicted
       N       E                     dE             d eps       ncg     rms          rms(c)
DAV:   1    -0.134427636581E+03   -0.40064E-03   -0.92781E-02  4050   0.543E-01    0.907E-02
RMM:   2    -0.134428179014E+03   -0.54243E-03   -0.61297E-03  5874   0.163E-01    0.750E-02
RMM:   3    -0.134428033988E+03    0.14503E-03   -0.36908E-04  5124   0.392E-02    0.409E-02
RMM:   4    -0.134428064704E+03   -0.30716E-04   -0.10834E-04  3942   0.330E-02    0.509E-02
RMM:   5    -0.134428012103E+03    0.52601E-04   -0.50996E-05  3128   0.302E-02    0.216E-02
RMM:   6    -0.134428006775E+03    0.53283E-05   -0.40395E-05  2905   0.302E-02
   5 F= -.13442801E+03 E0= -.13442397E+03  d E =-.778054E-03
quench:  g(F)=  0.000E+00 g(S)=  0.000E+00 dE (1.order)= 0.000E+00
 bond charge predicted
       N       E                     dE             d eps       ncg     rms          rms(c)
DAV:   1    -0.134428065226E+03   -0.53123E-04   -0.52602E-02  4185   0.491E-01    0.484E-02
RMM:   2    -0.134428328548E+03   -0.26332E-03   -0.27264E-03  5181   0.144E-01    0.358E-02
RMM:   3    -0.134428285434E+03    0.43114E-04   -0.23504E-04  4671   0.409E-02    0.235E-02
RMM:   4    -0.134428281780E+03    0.36536E-05   -0.26921E-05  2500   0.177E-02
   6 F= -.13442828E+03 E0= -.13442426E+03  d E =-.275005E-03
quench:  g(F)=  0.000E+00 g(S)=  0.000E+00 dE (1.order)= 0.000E+00
 bond charge predicted
       N       E                     dE             d eps       ncg     rms          rms(c)
DAV:   1    -0.134428068082E+03    0.21735E-03   -0.10248E-01  4158   0.699E-01    0.633E-02
RMM:   2    -0.134428619375E+03   -0.55129E-03   -0.54268E-03  5893   0.187E-01    0.572E-02
RMM:   3    -0.134428518507E+03    0.10087E-03   -0.34360E-04  5224   0.409E-02    0.489E-02
RMM:   4    -0.134428477200E+03    0.41307E-04   -0.55803E-05  3376   0.297E-02    0.279E-02
RMM:   5    -0.134428472485E+03    0.47142E-05   -0.18359E-05  2315   0.199E-02
   7 F= -.13442847E+03 E0= -.13442445E+03  d E =-.190705E-03
quench:  g(F)=  0.000E+00 g(S)=  0.000E+00 dE (1.order)= 0.000E+00
 bond charge predicted
       N       E                     dE             d eps       ncg     rms          rms(c)
DAV:   1    -0.134427866353E+03    0.61085E-03   -0.15378E-01  4140   0.835E-01    0.811E-02
RMM:   2    -0.134428634096E+03   -0.76774E-03   -0.80921E-03  5616   0.229E-01    0.560E-02
RMM:   3    -0.134428478377E+03    0.15572E-03   -0.47705E-04  5478   0.508E-02    0.369E-02
RMM:   4    -0.134428470805E+03    0.75719E-05   -0.60244E-05  3176   0.272E-02
   8 F= -.13442847E+03 E0= -.13442448E+03  d E =0.168048E-05
quench:  g(F)=  0.000E+00 g(S)=  0.000E+00 dE (1.order)= 0.000E+00
 bond charge predicted
       N       E                     dE             d eps       ncg     rms          rms(c)
DAV:   1    -0.134428235932E+03    0.24244E-03   -0.78648E-02  4626   0.589E-01    0.784E-02
RMM:   2    -0.134428825853E+03   -0.58992E-03   -0.51350E-03  5742   0.149E-01    0.966E-02
RMM:   3    -0.134428592381E+03    0.23347E-03   -0.35909E-04  4346   0.586E-02    0.600E-02
RMM:   4    -0.134428538948E+03    0.53432E-04   -0.92500E-05  3642   0.340E-02    0.309E-02
RMM:   5    -0.134428536559E+03    0.23896E-05   -0.41890E-05  2796   0.264E-02
   9 F= -.13442854E+03 E0= -.13442453E+03  d E =-.657538E-04
quench:  g(F)=  0.000E+00 g(S)=  0.000E+00 dE (1.order)= 0.000E+00
 bond charge predicted
       N       E                     dE             d eps       ncg     rms          rms(c)
DAV:   1    -0.134428523448E+03    0.15500E-04   -0.25918E-02  4590   0.350E-01    0.411E-02
RMM:   2    -0.134428668015E+03   -0.14457E-03   -0.15599E-03  5900   0.836E-02    0.300E-02
RMM:   3    -0.134428637042E+03    0.30973E-04   -0.70689E-05  3100   0.221E-02    0.199E-02
RMM:   4    -0.134428640641E+03   -0.35990E-05   -0.29237E-05  2491   0.264E-02
  10 F= -.13442864E+03 E0= -.13442464E+03  d E =-.104083E-03
quench:  g(F)=  0.000E+00 g(S)=  0.000E+00 dE (1.order)= 0.000E+00
 bond charge predicted
       N       E                     dE             d eps       ncg     rms          rms(c)
DAV:   1    -0.134428428962E+03    0.20808E-03   -0.36384E-02  4176   0.431E-01    0.381E-02
RMM:   2    -0.134428623120E+03   -0.19416E-03   -0.20033E-03  5936   0.109E-01    0.233E-02
RMM:   3    -0.134428581017E+03    0.42103E-04   -0.75313E-05  3386   0.268E-02    0.225E-02
RMM:   4    -0.134428578435E+03    0.25817E-05   -0.13929E-05  2301   0.173E-02
  11 F= -.13442858E+03 E0= -.13442459E+03  d E =0.622058E-04
quench:  g(F)=  0.000E+00 g(S)=  0.000E+00 dE (1.order)= 0.000E+00
 bond charge predicted
       N       E                     dE             d eps       ncg     rms          rms(c)
DAV:   1    -0.134428082130E+03    0.49889E-03   -0.78373E-02  4059   0.600E-01    0.539E-02
RMM:   2    -0.134428454256E+03   -0.37213E-03   -0.38151E-03  5847   0.158E-01    0.321E-02
RMM:   3    -0.134428376644E+03    0.77612E-04   -0.17200E-04  4124   0.318E-02    0.238E-02
RMM:   4    -0.134428375577E+03    0.10673E-05   -0.24194E-05  2429   0.212E-02
  12 F= -.13442838E+03 E0= -.13442438E+03  d E =0.202859E-03
quench:  g(F)=  0.000E+00 g(S)=  0.000E+00 dE (1.order)= 0.000E+00
 bond charge predicted
       N       E                     dE             d eps       ncg     rms          rms(c)
DAV:   1    -0.134427660468E+03    0.71618E-03   -0.10729E-01  4113   0.690E-01    0.731E-02
RMM:   2    -0.134428234471E+03   -0.57400E-03   -0.59757E-03  6073   0.177E-01    0.552E-02
RMM:   3    -0.134428122258E+03    0.11221E-03   -0.26481E-04  4665   0.417E-02    0.471E-02
RMM:   4    -0.134428098890E+03    0.23368E-04   -0.43892E-05  2878   0.262E-02    0.301E-02
RMM:   5    -0.134428088905E+03    0.99843E-05   -0.17690E-05  2379   0.192E-02
  13 F= -.13442809E+03 E0= -.13442411E+03  d E =0.286671E-03
quench:  g(F)=  0.000E+00 g(S)=  0.000E+00 dE (1.order)= 0.000E+00
 bond charge predicted
       N       E                     dE             d eps       ncg     rms          rms(c)
DAV:   1    -0.134427923384E+03    0.17551E-03   -0.38815E-02  4221   0.396E-01    0.563E-02
RMM:   2    -0.134428166697E+03   -0.24331E-03   -0.26302E-03  5999   0.104E-01    0.452E-02
RMM:   3    -0.134428114200E+03    0.52498E-04   -0.13417E-04  3933   0.279E-02    0.329E-02
RMM:   4    -0.134428106186E+03    0.80141E-05   -0.44143E-05  2854   0.271E-02
  14 F= -.13442811E+03 E0= -.13442414E+03  d E =-.172803E-04
quench:  g(F)=  0.000E+00 g(S)=  0.000E+00 dE (1.order)= 0.000E+00
 bond charge predicted
       N       E                     dE             d eps       ncg     rms          rms(c)
DAV:   1    -0.134428019060E+03    0.95140E-04   -0.12516E-02  5175   0.277E-01    0.274E-02
RMM:   2    -0.134428086887E+03   -0.67827E-04   -0.70544E-04  5246   0.623E-02    0.281E-02
RMM:   3    -0.134428069986E+03    0.16901E-04   -0.47274E-05  2907   0.259E-02    0.183E-02
RMM:   4    -0.134428066642E+03    0.33442E-05   -0.10749E-05  2222   0.166E-02
  15 F= -.13442807E+03 E0= -.13442410E+03  d E =0.395436E-04
quench:  g(F)=  0.000E+00 g(S)=  0.000E+00 dE (1.order)= 0.000E+00
 bond charge predicted
       N       E                     dE             d eps       ncg     rms          rms(c)
DAV:   1    -0.134427777443E+03    0.29254E-03   -0.29345E-02  4167   0.369E-01    0.337E-02
RMM:   2    -0.134427925229E+03   -0.14779E-03   -0.14746E-03  6072   0.942E-02    0.234E-02
RMM:   3    -0.134427902646E+03    0.22582E-04   -0.66803E-05  2978   0.191E-02    0.258E-02
RMM:   4    -0.134427890006E+03    0.12640E-04   -0.17812E-05  2280   0.206E-02    0.139E-02
RMM:   5    -0.134427889965E+03    0.40774E-07   -0.91562E-06  2164   0.145E-02
  16 F= -.13442789E+03 E0= -.13442392E+03  d E =0.176677E-03
quench:  g(F)=  0.000E+00 g(S)=  0.000E+00 dE (1.order)= 0.000E+00
 bond charge predicted
       N       E                     dE             d eps       ncg     rms          rms(c)
DAV:   1    -0.134427408499E+03    0.48151E-03   -0.61594E-02  4086   0.520E-01    0.486E-02
RMM:   2    -0.134427691476E+03   -0.28298E-03   -0.29408E-03  5829   0.136E-01    0.302E-02
RMM:   3    -0.134427636819E+03    0.54658E-04   -0.10904E-04  3721   0.301E-02    0.216E-02
RMM:   4    -0.134427637050E+03   -0.23130E-06   -0.20243E-05  2321   0.204E-02
  17 F= -.13442764E+03 E0= -.13442367E+03  d E =0.252915E-03
quench:  g(F)=  0.000E+00 g(S)=  0.000E+00 dE (1.order)= 0.000E+00
 bond charge predicted
       N       E                     dE             d eps       ncg     rms          rms(c)
DAV:   1    -0.134426899337E+03    0.73748E-03   -0.78273E-02  4140   0.587E-01    0.594E-02
RMM:   2    -0.134427330841E+03   -0.43150E-03   -0.44380E-03  5981   0.153E-01    0.450E-02
RMM:   3    -0.134427246773E+03    0.84069E-04   -0.20563E-04  4668   0.340E-02    0.428E-02
RMM:   4    -0.134427216540E+03    0.30232E-04   -0.36997E-05  2616   0.239E-02    0.276E-02
RMM:   5    -0.134427211212E+03    0.53276E-05   -0.29505E-05  2549   0.265E-02
  18 F= -.13442721E+03 E0= -.13442325E+03  d E =0.425838E-03
quench:  g(F)=  0.000E+00 g(S)=  0.000E+00 dE (1.order)= 0.000E+00
 bond charge predicted
       N       E                     dE             d eps       ncg     rms          rms(c)
DAV:   1    -0.134427092064E+03    0.12448E-03   -0.31334E-02  4149   0.338E-01    0.530E-02
RMM:   2    -0.134427281464E+03   -0.18940E-03   -0.21359E-03  5925   0.908E-02    0.438E-02
RMM:   3    -0.134427226687E+03    0.54777E-04   -0.10677E-04  3438   0.258E-02    0.264E-02
RMM:   4    -0.134427233119E+03   -0.64320E-05   -0.39902E-05  2844   0.283E-02
  19 F= -.13442723E+03 E0= -.13442327E+03  d E =-.219067E-04
quench:  g(F)=  0.000E+00 g(S)=  0.000E+00 dE (1.order)= 0.000E+00
 bond charge predicted
       N       E                     dE             d eps       ncg     rms          rms(c)
DAV:   1    -0.134427114213E+03    0.11247E-03   -0.81728E-03  5427   0.258E-01    0.219E-02
RMM:   2    -0.134427178781E+03   -0.64568E-04   -0.49986E-04  4979   0.525E-02    0.271E-02
RMM:   3    -0.134427152649E+03    0.26131E-04   -0.27938E-05  2516   0.180E-02    0.180E-02
RMM:   4    -0.134427149122E+03    0.35278E-05   -0.12372E-05  2184   0.189E-02
  20 F= -.13442715E+03 E0= -.13442319E+03  d E =0.839975E-04
quench:  g(F)=  0.000E+00 g(S)=  0.000E+00 dE (1.order)= 0.000E+00
 bond charge predicted
       N       E                     dE             d eps       ncg     rms          rms(c)
DAV:   1    -0.134426894834E+03    0.25782E-03   -0.18845E-02  4176   0.287E-01    0.268E-02
RMM:   2    -0.134426983952E+03   -0.89118E-04   -0.91528E-04  6020   0.743E-02    0.175E-02
RMM:   3    -0.134426966732E+03    0.17221E-04   -0.29854E-05  2495   0.170E-02    0.135E-02
RMM:   4    -0.134426966985E+03   -0.25357E-06   -0.12311E-05  2213   0.179E-02
  21 F= -.13442697E+03 E0= -.13442301E+03  d E =0.182136E-03
quench:  g(F)=  0.000E+00 g(S)=  0.000E+00 dE (1.order)= 0.000E+00
 bond charge predicted
       N       E                     dE             d eps       ncg     rms          rms(c)
DAV:   1    -0.134426500196E+03    0.46654E-03   -0.40893E-02  4050   0.428E-01    0.399E-02
RMM:   2    -0.134426704123E+03   -0.20393E-03   -0.20443E-03  6106   0.109E-01    0.250E-02
RMM:   3    -0.134426678080E+03    0.26044E-04   -0.89490E-05  3232   0.232E-02    0.309E-02
RMM:   4    -0.134426657657E+03    0.20423E-04   -0.20651E-05  2317   0.214E-02    0.162E-02
RMM:   5    -0.134426657444E+03    0.21239E-06   -0.12647E-05  2242   0.172E-02
  22 F= -.13442666E+03 E0= -.13442270E+03  d E =0.309541E-03
quench:  g(F)=  0.000E+00 g(S)=  0.000E+00 dE (1.order)= 0.000E+00
 bond charge predicted
       N       E                     dE             d eps       ncg     rms          rms(c)
DAV:   1    -0.134426084477E+03    0.57318E-03   -0.62506E-02  4158   0.510E-01    0.532E-02
RMM:   2    -0.134426391244E+03   -0.30677E-03   -0.32151E-03  6042   0.132E-01    0.364E-02
RMM:   3    -0.134426325279E+03    0.65965E-04   -0.11237E-04  3580   0.272E-02    0.230E-02
RMM:   4    -0.134426325683E+03   -0.40423E-06   -0.22100E-05  2364   0.221E-02
  23 F= -.13442633E+03 E0= -.13442236E+03  d E =0.331761E-03
quench:  g(F)=  0.000E+00 g(S)=  0.000E+00 dE (1.order)= 0.000E+00
 bond charge predicted
       N       E                     dE             d eps       ncg     rms          rms(c)
DAV:   1    -0.134426035828E+03    0.28945E-03   -0.27379E-02  4266   0.337E-01    0.448E-02
RMM:   2    -0.134426214160E+03   -0.17833E-03   -0.18288E-03  5968   0.857E-02    0.400E-02
RMM:   3    -0.134426176540E+03    0.37620E-04   -0.96050E-05  3619   0.272E-02    0.343E-02
RMM:   4    -0.134426159577E+03    0.16964E-04   -0.29110E-05  2460   0.239E-02    0.190E-02
RMM:   5    -0.134426152909E+03    0.66682E-05   -0.14573E-05  2307   0.171E-02
  24 F= -.13442615E+03 E0= -.13442220E+03  d E =0.172774E-03
quench:  g(F)=  0.000E+00 g(S)=  0.000E+00 dE (1.order)= 0.000E+00
 bond charge predicted
       N       E                     dE             d eps       ncg     rms          rms(c)
DAV:   1    -0.134426075774E+03    0.83803E-04   -0.11632E-02  4203   0.209E-01    0.297E-02
RMM:   2    -0.134426143467E+03   -0.67693E-04   -0.74842E-04  5631   0.550E-02    0.230E-02
RMM:   3    -0.134426126527E+03    0.16940E-04   -0.30127E-05  2493   0.142E-02    0.133E-02
RMM:   4    -0.134426127023E+03   -0.49557E-06   -0.14780E-05  2213   0.191E-02
  25 F= -.13442613E+03 E0= -.13442217E+03  d E =0.258860E-04
quench:  g(F)=  0.000E+00 g(S)=  0.000E+00 dE (1.order)= 0.000E+00
 bond charge predicted
       N       E                     dE             d eps       ncg     rms          rms(c)
DAV:   1    -0.134425886254E+03    0.24027E-03   -0.13625E-02  4167   0.251E-01    0.236E-02
RMM:   2    -0.134425958273E+03   -0.72019E-04   -0.73945E-04  5920   0.641E-02    0.136E-02
RMM:   3    -0.134425943326E+03    0.14947E-04   -0.24797E-05  2362   0.162E-02    0.114E-02
RMM:   4    -0.134425943051E+03    0.27493E-06   -0.10506E-05  2152   0.171E-02
  26 F= -.13442594E+03 E0= -.13442200E+03  d E =0.183971E-03
quench:  g(F)=  0.000E+00 g(S)=  0.000E+00 dE (1.order)= 0.000E+00
 bond charge predicted
       N       E                     dE             d eps       ncg     rms          rms(c)
DAV:   1    -0.134425577185E+03    0.36614E-03   -0.26641E-02  4086   0.335E-01    0.335E-02
RMM:   2    -0.134425712961E+03   -0.13578E-03   -0.13649E-03  6034   0.861E-02    0.271E-02
RMM:   3    -0.134425692200E+03    0.20760E-04   -0.55186E-05  2952   0.237E-02    0.269E-02
RMM:   4    -0.134425678269E+03    0.13931E-04   -0.16624E-05  2293   0.211E-02    0.139E-02
RMM:   5    -0.134425677916E+03    0.35330E-06   -0.71322E-06  2174   0.129E-02
  27 F= -.13442568E+03 E0= -.13442173E+03  d E =0.265136E-03
quench:  g(F)=  0.000E+00 g(S)=  0.000E+00 dE (1.order)= 0.000E+00
 bond charge predicted
       N       E                     dE             d eps       ncg     rms          rms(c)
DAV:   1    -0.134425255196E+03    0.42307E-03   -0.31526E-02  4131   0.355E-01    0.396E-02
RMM:   2    -0.134425429659E+03   -0.17446E-03   -0.18544E-03  5966   0.952E-02    0.292E-02
RMM:   3    -0.134425388847E+03    0.40812E-04   -0.72520E-05  3107   0.231E-02    0.198E-02
RMM:   4    -0.134425387375E+03    0.14721E-05   -0.23130E-05  2325   0.233E-02
  28 F= -.13442539E+03 E0= -.13442145E+03  d E =0.290541E-03
quench:  g(F)=  0.000E+00 g(S)=  0.000E+00 dE (1.order)= 0.000E+00
 bond charge predicted
       N       E                     dE             d eps       ncg     rms          rms(c)
DAV:   1    -0.134425255687E+03    0.13316E-03   -0.14122E-02  4410   0.240E-01    0.340E-02
RMM:   2    -0.134425359162E+03   -0.10348E-03   -0.96444E-04  5384   0.659E-02    0.360E-02
RMM:   3    -0.134425328095E+03    0.31067E-04   -0.55842E-05  3065   0.264E-02    0.270E-02
RMM:   4    -0.134425316350E+03    0.11746E-04   -0.15395E-05  2315   0.187E-02    0.128E-02
RMM:   5    -0.134425316026E+03    0.32393E-06   -0.94902E-06  2204   0.132E-02
  29 F= -.13442532E+03 E0= -.13442137E+03  d E =0.713494E-04
quench:  g(F)=  0.000E+00 g(S)=  0.000E+00 dE (1.order)= 0.000E+00
 bond charge predicted
       N       E                     dE             d eps       ncg     rms          rms(c)
DAV:   1    -0.134425153073E+03    0.16328E-03   -0.71680E-03  4203   0.181E-01    0.187E-02
RMM:   2    -0.134425194135E+03   -0.41062E-04   -0.42136E-04  5424   0.448E-02    0.121E-02
RMM:   3    -0.134425185876E+03    0.82589E-05   -0.14457E-05  2266   0.126E-02
  30 F= -.13442519E+03 E0= -.13442124E+03  d E =0.130149E-03
quench:  g(F)=  0.000E+00 g(S)=  0.000E+00 dE (1.order)= 0.000E+00
 bond charge predicted
       N       E                     dE             d eps       ncg     rms          rms(c)
DAV:   1    -0.134424929084E+03    0.26505E-03   -0.13441E-02  4176   0.241E-01    0.242E-02
RMM:   2    -0.134425001119E+03   -0.72035E-04   -0.71052E-04  5998   0.600E-02    0.204E-02
RMM:   3    -0.134424992434E+03    0.86846E-05   -0.29433E-05  2518   0.162E-02
  31 F= -.13442499E+03 E0= -.13442105E+03  d E =0.193442E-03
quench:  g(F)=  0.000E+00 g(S)=  0.000E+00 dE (1.order)= 0.000E+00
 bond charge predicted
       N       E                     dE             d eps       ncg     rms          rms(c)
DAV:   1    -0.134424620025E+03    0.38109E-03   -0.20630E-02  4068   0.309E-01    0.321E-02
RMM:   2    -0.134424742550E+03   -0.12253E-03   -0.12852E-03  5973   0.780E-02    0.238E-02
RMM:   3    -0.134424712900E+03    0.29650E-04   -0.44249E-05  2737   0.181E-02    0.165E-02
RMM:   4    -0.134424713880E+03   -0.98054E-06   -0.16108E-05  2262   0.199E-02
  32 F= -.13442471E+03 E0= -.13442077E+03  d E =0.278554E-03
quench:  g(F)=  0.000E+00 g(S)=  0.000E+00 dE (1.order)= 0.000E+00
 bond charge predicted
       N       E                     dE             d eps       ncg     rms          rms(c)
DAV:   1    -0.134424503815E+03    0.20908E-03   -0.16342E-02  4626   0.275E-01    0.347E-02
RMM:   2    -0.134424620927E+03   -0.11711E-03   -0.10555E-03  5683   0.658E-02    0.398E-02
RMM:   3    -0.134424583105E+03    0.37822E-04   -0.61688E-05  3153   0.250E-02    0.284E-02
RMM:   4    -0.134424569196E+03    0.13909E-04   -0.18164E-05  2332   0.208E-02    0.143E-02
RMM:   5    -0.134424569021E+03    0.17556E-06   -0.11287E-05  2224   0.147E-02
  33 F= -.13442457E+03 E0= -.13442062E+03  d E =0.144860E-03
quench:  g(F)=  0.000E+00 g(S)=  0.000E+00 dE (1.order)= 0.000E+00
 bond charge predicted
       N       E                     dE             d eps       ncg     rms          rms(c)
DAV:   1    -0.134424436644E+03    0.13255E-03   -0.67927E-03  4266   0.169E-01    0.201E-02
RMM:   2    -0.134424476362E+03   -0.39718E-04   -0.42125E-04  5152   0.430E-02    0.142E-02
RMM:   3    -0.134424467778E+03    0.85838E-05   -0.16497E-05  2292   0.124E-02
  34 F= -.13442447E+03 E0= -.13442053E+03  d E =0.101243E-03
quench:  g(F)=  0.000E+00 g(S)=  0.000E+00 dE (1.order)= 0.000E+00
 bond charge predicted
       N       E                     dE             d eps       ncg     rms          rms(c)
DAV:   1    -0.134424238153E+03    0.23821E-03   -0.10153E-02  4140   0.206E-01    0.214E-02
RMM:   2    -0.134424294076E+03   -0.55923E-04   -0.52117E-04  5795   0.521E-02    0.169E-02
RMM:   3    -0.134424285373E+03    0.87029E-05   -0.25864E-05  2419   0.167E-02
  35 F= -.13442429E+03 E0= -.13442035E+03  d E =0.182405E-03
quench:  g(F)=  0.000E+00 g(S)=  0.000E+00 dE (1.order)= 0.000E+00
 bond charge predicted
       N       E                     dE             d eps       ncg     rms          rms(c)
DAV:   1    -0.134423912763E+03    0.38131E-03   -0.18577E-02  4176   0.290E-01    0.293E-02
RMM:   2    -0.134424021432E+03   -0.10867E-03   -0.11232E-03  5849   0.747E-02    0.222E-02
RMM:   3    -0.134423996722E+03    0.24710E-04   -0.40980E-05  2619   0.214E-02    0.179E-02
RMM:   4    -0.134423996603E+03    0.11932E-06   -0.14554E-05  2254   0.193E-02
  36 F= -.13442400E+03 E0= -.13442005E+03  d E =0.288770E-03
quench:  g(F)=  0.000E+00 g(S)=  0.000E+00 dE (1.order)= 0.000E+00
 bond charge predicted
       N       E                     dE             d eps       ncg     rms          rms(c)
DAV:   1    -0.134423707884E+03    0.28884E-03   -0.18475E-02  4158   0.272E-01    0.353E-02
RMM:   2    -0.134423821934E+03   -0.11405E-03   -0.11493E-03  5915   0.701E-02    0.290E-02
RMM:   3    -0.134423797701E+03    0.24233E-04   -0.48011E-05  2795   0.184E-02    0.268E-02
RMM:   4    -0.134423786870E+03    0.10831E-04   -0.17179E-05  2277   0.210E-02    0.145E-02
RMM:   5    -0.134423785777E+03    0.10932E-05   -0.90640E-06  2211   0.128E-02
  37 F= -.13442379E+03 E0= -.13441984E+03  d E =0.210826E-03
quench:  g(F)=  0.000E+00 g(S)=  0.000E+00 dE (1.order)= 0.000E+00
 bond charge predicted
       N       E                     dE             d eps       ncg     rms          rms(c)
DAV:   1    -0.134423671324E+03    0.11555E-03   -0.65343E-03  4185   0.160E-01    0.217E-02
RMM:   2    -0.134423710779E+03   -0.39455E-04   -0.42134E-04  5052   0.432E-02    0.165E-02
RMM:   3    -0.134423703161E+03    0.76173E-05   -0.17930E-05  2388   0.140E-02
  38 F= -.13442370E+03 E0= -.13441976E+03  d E =0.826157E-04
quench:  g(F)=  0.000E+00 g(S)=  0.000E+00 dE (1.order)= 0.000E+00
 bond charge predicted
       N       E                     dE             d eps       ncg     rms          rms(c)
DAV:   1    -0.134423485195E+03    0.22558E-03   -0.81407E-03  4104   0.189E-01    0.195E-02
RMM:   2    -0.134423527367E+03   -0.42172E-04   -0.43497E-04  5589   0.479E-02    0.135E-02
RMM:   3    -0.134423522531E+03    0.48368E-05   -0.22128E-05  2362   0.137E-02
  39 F= -.13442352E+03 E0= -.13441958E+03  d E =0.180631E-03
quench:  g(F)=  0.000E+00 g(S)=  0.000E+00 dE (1.order)= 0.000E+00
 bond charge predicted
       N       E                     dE             d eps       ncg     rms          rms(c)
DAV:   1    -0.134423155158E+03    0.37221E-03   -0.17324E-02  4194   0.277E-01    0.287E-02
RMM:   2    -0.134423251057E+03   -0.95899E-04   -0.99046E-04  5997   0.715E-02    0.193E-02
RMM:   3    -0.134423230811E+03    0.20246E-04   -0.37844E-05  2562   0.186E-02    0.160E-02
RMM:   4    -0.134423230785E+03    0.25502E-07   -0.13862E-05  2194   0.190E-02
  40 F= -.13442323E+03 E0= -.13441929E+03  d E =0.291745E-03
quench:  g(F)=  0.000E+00 g(S)=  0.000E+00 dE (1.order)= 0.000E+00
 bond charge predicted
       N       E                     dE             d eps       ncg     rms          rms(c)
DAV:   1    -0.134422886272E+03    0.34454E-03   -0.20241E-02  4131   0.280E-01    0.358E-02
RMM:   2    -0.134423006312E+03   -0.12004E-03   -0.11899E-03  5934   0.728E-02    0.310E-02
RMM:   3    -0.134422979986E+03    0.26326E-04   -0.52143E-05  2857   0.230E-02    0.270E-02
RMM:   4    -0.134422969169E+03    0.10817E-04   -0.16492E-05  2281   0.203E-02    0.150E-02
RMM:   5    -0.134422968610E+03    0.55928E-06   -0.95693E-06  2200   0.138E-02
  41 F= -.13442297E+03 E0= -.13441902E+03  d E =0.262175E-03
quench:  g(F)=  0.000E+00 g(S)=  0.000E+00 dE (1.order)= 0.000E+00
 bond charge predicted
       N       E                     dE             d eps       ncg     rms          rms(c)
DAV:   1    -0.134422858041E+03    0.11113E-03   -0.63674E-03  4365   0.163E-01    0.220E-02
RMM:   2    -0.134422896935E+03   -0.38894E-04   -0.41581E-04  4929   0.425E-02    0.171E-02
RMM:   3    -0.134422889626E+03    0.73090E-05   -0.17751E-05  2389   0.146E-02
  42 F= -.13442289E+03 E0= -.13441895E+03  d E =0.789834E-04
quench:  g(F)=  0.000E+00 g(S)=  0.000E+00 dE (1.order)= 0.000E+00
 bond charge predicted
       N       E                     dE             d eps       ncg     rms          rms(c)
DAV:   1    -0.134422692288E+03    0.20465E-03   -0.61542E-03  4446   0.174E-01    0.180E-02
RMM:   2    -0.134422733032E+03   -0.40744E-04   -0.33810E-04  4958   0.438E-02    0.206E-02
RMM:   3    -0.134422720112E+03    0.12920E-04   -0.25381E-05  2377   0.181E-02    0.146E-02
RMM:   4    -0.134422717072E+03    0.30397E-05   -0.68772E-06  2172   0.144E-02
  43 F= -.13442272E+03 E0= -.13441878E+03  d E =0.172554E-03
quench:  g(F)=  0.000E+00 g(S)=  0.000E+00 dE (1.order)= 0.000E+00
 bond charge predicted
       N       E                     dE             d eps       ncg     rms          rms(c)
DAV:   1    -0.134422391532E+03    0.32858E-03   -0.13776E-02  4122   0.230E-01    0.244E-02
RMM:   2    -0.134422455532E+03   -0.64000E-04   -0.66006E-04  5706   0.594E-02    0.155E-02
RMM:   3    -0.134422445162E+03    0.10370E-04   -0.29660E-05  2397   0.162E-02    0.140E-02
RMM:   4    -0.134422444212E+03    0.95041E-06   -0.10006E-05  2228   0.163E-02
  44 F= -.13442244E+03 E0= -.13441851E+03  d E =0.272861E-03
quench:  g(F)=  0.000E+00 g(S)=  0.000E+00 dE (1.order)= 0.000E+00
 bond charge predicted
       N       E                     dE             d eps       ncg     rms          rms(c)
DAV:   1    -0.134422094224E+03    0.35094E-03   -0.18879E-02  4050   0.274E-01    0.332E-02
RMM:   2    -0.134422196539E+03   -0.10231E-03   -0.10671E-03  5956   0.703E-02    0.279E-02
RMM:   3    -0.134422180324E+03    0.16215E-04   -0.43779E-05  2730   0.208E-02    0.247E-02
RMM:   4    -0.134422170196E+03    0.10128E-04   -0.15902E-05  2286   0.207E-02    0.142E-02
RMM:   5    -0.134422169495E+03    0.70065E-06   -0.75161E-06  2203   0.125E-02
  45 F= -.13442217E+03 E0= -.13441822E+03  d E =0.274716E-03
quench:  g(F)=  0.000E+00 g(S)=  0.000E+00 dE (1.order)= 0.000E+00
 bond charge predicted
       N       E                     dE             d eps       ncg     rms          rms(c)
DAV:   1    -0.134422010744E+03    0.15945E-03   -0.83919E-03  4302   0.180E-01    0.244E-02
RMM:   2    -0.134422060701E+03   -0.49957E-04   -0.53817E-04  5265   0.459E-02    0.183E-02
RMM:   3    -0.134422050221E+03    0.10480E-04   -0.21499E-05  2471   0.139E-02    0.140E-02
RMM:   4    -0.134422051774E+03   -0.15533E-05   -0.11826E-05  2256   0.171E-02
  46 F= -.13442205E+03 E0= -.13441811E+03  d E =0.117721E-03
quench:  g(F)=  0.000E+00 g(S)=  0.000E+00 dE (1.order)= 0.000E+00
 bond charge predicted
       N       E                     dE             d eps       ncg     rms          rms(c)
DAV:   1    -0.134421896177E+03    0.15404E-03   -0.52348E-03  4392   0.157E-01    0.167E-02
RMM:   2    -0.134421924124E+03   -0.27947E-04   -0.30868E-04  4762   0.384E-02    0.121E-02
RMM:   3    -0.134421918761E+03    0.53628E-05   -0.12391E-05  2247   0.133E-02
  47 F= -.13442192E+03 E0= -.13441798E+03  d E =0.133014E-03
quench:  g(F)=  0.000E+00 g(S)=  0.000E+00 dE (1.order)= 0.000E+00
 bond charge predicted
       N       E                     dE             d eps       ncg     rms          rms(c)
DAV:   1    -0.134421640376E+03    0.28375E-03   -0.97986E-03  4149   0.203E-01    0.213E-02
RMM:   2    -0.134421697131E+03   -0.56755E-04   -0.52219E-04  5807   0.511E-02    0.173E-02
RMM:   3    -0.134421687835E+03    0.92968E-05   -0.27488E-05  2424   0.163E-02
  48 F= -.13442169E+03 E0= -.13441775E+03  d E =0.230926E-03
quench:  g(F)=  0.000E+00 g(S)=  0.000E+00 dE (1.order)= 0.000E+00
 bond charge predicted
       N       E                     dE             d eps       ncg     rms          rms(c)
DAV:   1    -0.134421369611E+03    0.32752E-03   -0.14371E-02  4230   0.250E-01    0.291E-02
RMM:   2    -0.134421450368E+03   -0.80756E-04   -0.85793E-04  5703   0.635E-02    0.234E-02
RMM:   3    -0.134421433531E+03    0.16837E-04   -0.28004E-05  2474   0.191E-02    0.172E-02
RMM:   4    -0.134421435521E+03   -0.19905E-05   -0.12516E-05  2302   0.180E-02
  49 F= -.13442144E+03 E0= -.13441749E+03  d E =0.252313E-03
quench:  g(F)=  0.000E+00 g(S)=  0.000E+00 dE (1.order)= 0.000E+00
 bond charge predicted
       N       E                     dE             d eps       ncg     rms          rms(c)
DAV:   1    -0.134421248554E+03    0.18498E-03   -0.83547E-03  4356   0.191E-01    0.241E-02
RMM:   2    -0.134421303157E+03   -0.54603E-04   -0.55267E-04  5204   0.486E-02    0.223E-02
RMM:   3    -0.134421289674E+03    0.13484E-04   -0.24614E-05  2480   0.166E-02    0.182E-02
RMM:   4    -0.134421286227E+03    0.34468E-05   -0.12354E-05  2206   0.179E-02
  50 F= -.13442129E+03 E0= -.13441734E+03  d E =0.149295E-03
quench:  g(F)=  0.000E+00 g(S)=  0.000E+00 dE (1.order)= 0.000E+00
 bond charge predicted
       N       E                     dE             d eps       ncg     rms          rms(c)
DAV:   1    -0.134421137828E+03    0.15185E-03   -0.53560E-03  4419   0.155E-01    0.179E-02
RMM:   2    -0.134421169596E+03   -0.31769E-04   -0.31921E-04  4733   0.385E-02    0.155E-02
RMM:   3    -0.134421162310E+03    0.72861E-05   -0.16361E-05  2346   0.164E-02
  51 F= -.13442116E+03 E0= -.13441722E+03  d E =0.123916E-03
quench:  g(F)=  0.000E+00 g(S)=  0.000E+00 dE (1.order)= 0.000E+00
 bond charge predicted
       N       E                     dE             d eps       ncg     rms          rms(c)
DAV:   1    -0.134420900326E+03    0.26927E-03   -0.85094E-03  4185   0.194E-01    0.206E-02
RMM:   2    -0.134420950809E+03   -0.50483E-04   -0.50469E-04  5452   0.497E-02    0.153E-02
RMM:   3    -0.134420943003E+03    0.78060E-05   -0.21501E-05  2399   0.141E-02
  52 F= -.13442094E+03 E0= -.13441700E+03  d E =0.219307E-03
quench:  g(F)=  0.000E+00 g(S)=  0.000E+00 dE (1.order)= 0.000E+00
 bond charge predicted
       N       E                     dE             d eps       ncg     rms          rms(c)
DAV:   1    -0.134420655415E+03    0.29539E-03   -0.12545E-02  4194   0.231E-01    0.272E-02
RMM:   2    -0.134420729024E+03   -0.73609E-04   -0.76490E-04  5662   0.595E-02    0.223E-02
RMM:   3    -0.134420712193E+03    0.16831E-04   -0.26894E-05  2498   0.177E-02    0.173E-02
RMM:   4    -0.134420713334E+03   -0.11414E-05   -0.12051E-05  2293   0.179E-02
  53 F= -.13442071E+03 E0= -.13441677E+03  d E =0.229669E-03
quench:  g(F)=  0.000E+00 g(S)=  0.000E+00 dE (1.order)= 0.000E+00
 bond charge predicted
       N       E                     dE             d eps       ncg     rms          rms(c)
DAV:   1    -0.134420525256E+03    0.18694E-03   -0.80280E-03  4221   0.186E-01    0.233E-02
RMM:   2    -0.134420581703E+03   -0.56447E-04   -0.53323E-04  5191   0.484E-02    0.245E-02
RMM:   3    -0.134420565101E+03    0.16602E-04   -0.24767E-05  2463   0.176E-02    0.186E-02
RMM:   4    -0.134420561266E+03    0.38344E-05   -0.12495E-05  2200   0.180E-02
  54 F= -.13442056E+03 E0= -.13441662E+03  d E =0.152068E-03
quench:  g(F)=  0.000E+00 g(S)=  0.000E+00 dE (1.order)= 0.000E+00
 bond charge predicted
       N       E                     dE             d eps       ncg     rms          rms(c)
DAV:   1    -0.134420407752E+03    0.15735E-03   -0.55986E-03  4221   0.153E-01    0.185E-02
RMM:   2    -0.134420440117E+03   -0.32365E-04   -0.33147E-04  4843   0.390E-02    0.157E-02
RMM:   3    -0.134420432338E+03    0.77792E-05   -0.15242E-05  2340   0.158E-02
  55 F= -.13442043E+03 E0= -.13441649E+03  d E =0.128929E-03
quench:  g(F)=  0.000E+00 g(S)=  0.000E+00 dE (1.order)= 0.000E+00
 bond charge predicted
       N       E                     dE             d eps       ncg     rms          rms(c)
DAV:   1    -0.134420179454E+03    0.26066E-03   -0.82539E-03  4167   0.188E-01    0.205E-02
RMM:   2    -0.134420228913E+03   -0.49459E-04   -0.48387E-04  5478   0.477E-02    0.160E-02
RMM:   3    -0.134420222213E+03    0.67000E-05   -0.22196E-05  2404   0.143E-02
  56 F= -.13442022E+03 E0= -.13441628E+03  d E =0.210124E-03
quench:  g(F)=  0.000E+00 g(S)=  0.000E+00 dE (1.order)= 0.000E+00
 bond charge predicted
       N       E                     dE             d eps       ncg     rms          rms(c)
DAV:   1    -0.134419952335E+03    0.27658E-03   -0.11416E-02  4248   0.225E-01    0.261E-02
RMM:   2    -0.134420019177E+03   -0.66843E-04   -0.71246E-04  5606   0.562E-02    0.210E-02
RMM:   3    -0.134420003878E+03    0.15300E-04   -0.22242E-05  2397   0.151E-02    0.138E-02
RMM:   4    -0.134420004159E+03   -0.28118E-06   -0.12273E-05  2170   0.177E-02
  57 F= -.13442000E+03 E0= -.13441606E+03  d E =0.218055E-03
quench:  g(F)=  0.000E+00 g(S)=  0.000E+00 dE (1.order)= 0.000E+00
 bond charge predicted
       N       E                     dE             d eps       ncg     rms          rms(c)
DAV:   1    -0.134419825061E+03    0.17882E-03   -0.70866E-03  4122   0.171E-01    0.216E-02
RMM:   2    -0.134419873861E+03   -0.48800E-04   -0.46564E-04  5021   0.460E-02    0.213E-02
RMM:   3    -0.134419862547E+03    0.11313E-04   -0.20645E-05  2404   0.171E-02    0.180E-02
RMM:   4    -0.134419857939E+03    0.46085E-05   -0.10558E-05  2193   0.164E-02
  58 F= -.13441986E+03 E0= -.13441591E+03  d E =0.146220E-03
quench:  g(F)=  0.000E+00 g(S)=  0.000E+00 dE (1.order)= 0.000E+00
 bond charge predicted
       N       E                     dE             d eps       ncg     rms          rms(c)
DAV:   1    -0.134419695731E+03    0.16682E-03   -0.55533E-03  4104   0.143E-01    0.178E-02
RMM:   2    -0.134419724144E+03   -0.28413E-04   -0.30154E-04  4777   0.371E-02    0.134E-02
RMM:   3    -0.134419719006E+03    0.51389E-05   -0.11759E-05  2219   0.137E-02
  59 F= -.13441972E+03 E0= -.13441578E+03  d E =0.138933E-03
quench:  g(F)=  0.000E+00 g(S)=  0.000E+00 dE (1.order)= 0.000E+00
 bond charge predicted
       N       E                     dE             d eps       ncg     rms          rms(c)
DAV:   1    -0.134419452114E+03    0.27203E-03   -0.84285E-03  4140   0.182E-01    0.203E-02
RMM:   2    -0.134419497679E+03   -0.45565E-04   -0.45980E-04  5515   0.465E-02    0.139E-02
RMM:   3    -0.134419491814E+03    0.58642E-05   -0.19397E-05  2360   0.141E-02
  60 F= -.13441949E+03 E0= -.13441555E+03  d E =0.227191E-03
quench:  g(F)=  0.000E+00 g(S)=  0.000E+00 dE (1.order)= 0.000E+00
 bond charge predicted
       N       E                     dE             d eps       ncg     rms          rms(c)
DAV:   1    -0.134419214827E+03    0.28285E-03   -0.11280E-02  4077   0.222E-01    0.259E-02
RMM:   2    -0.134419278164E+03   -0.63337E-04   -0.67448E-04  5620   0.549E-02    0.197E-02
RMM:   3    -0.134419269391E+03    0.87727E-05   -0.22603E-05  2484   0.137E-02
  61 F= -.13441927E+03 E0= -.13441532E+03  d E =0.222423E-03
quench:  g(F)=  0.000E+00 g(S)=  0.000E+00 dE (1.order)= 0.000E+00
 bond charge predicted
       N       E                     dE             d eps       ncg     rms          rms(c)
DAV:   1    -0.134419096031E+03    0.18213E-03   -0.61919E-03  4797   0.183E-01    0.210E-02
RMM:   2    -0.134419150294E+03   -0.54263E-04   -0.41321E-04  4812   0.435E-02    0.262E-02
RMM:   3    -0.134419128549E+03    0.21745E-04   -0.22153E-05  2411   0.172E-02    0.167E-02
RMM:   4    -0.134419125797E+03    0.27515E-05   -0.10470E-05  2181   0.162E-02
  62 F= -.13441913E+03 E0= -.13441518E+03  d E =0.143594E-03
quench:  g(F)=  0.000E+00 g(S)=  0.000E+00 dE (1.order)= 0.000E+00
 bond charge predicted
       N       E                     dE             d eps       ncg     rms          rms(c)
DAV:   1    -0.134418965801E+03    0.16275E-03   -0.49010E-03  4176   0.133E-01    0.169E-02
RMM:   2    -0.134418989585E+03   -0.23784E-04   -0.25826E-04  4554   0.347E-02    0.137E-02
RMM:   3    -0.134418985894E+03    0.36917E-05   -0.12125E-05  2275   0.131E-02
  63 F= -.13441899E+03 E0= -.13441504E+03  d E =0.139904E-03
quench:  g(F)=  0.000E+00 g(S)=  0.000E+00 dE (1.order)= 0.000E+00
 bond charge predicted
       N       E                     dE             d eps       ncg     rms          rms(c)
DAV:   1    -0.134418712651E+03    0.27693E-03   -0.81574E-03  4167   0.189E-01    0.204E-02
RMM:   2    -0.134418762359E+03   -0.49708E-04   -0.46849E-04  5493   0.477E-02    0.155E-02
RMM:   3    -0.134418754862E+03    0.74971E-05   -0.25222E-05  2415   0.159E-02
  64 F= -.13441875E+03 E0= -.13441481E+03  d E =0.231031E-03
quench:  g(F)=  0.000E+00 g(S)=  0.000E+00 dE (1.order)= 0.000E+00
 bond charge predicted
       N       E                     dE             d eps       ncg     rms          rms(c)
DAV:   1    -0.134418465509E+03    0.29685E-03   -0.11044E-02  4284   0.222E-01    0.265E-02
RMM:   2    -0.134418528135E+03   -0.62626E-04   -0.66907E-04  5479   0.553E-02    0.208E-02
RMM:   3    -0.134418515165E+03    0.12970E-04   -0.25577E-05  2403   0.175E-02    0.151E-02
RMM:   4    -0.134418517603E+03   -0.24380E-05   -0.11214E-05  2296   0.170E-02
  65 F= -.13441852E+03 E0= -.13441457E+03  d E =0.237259E-03
quench:  g(F)=  0.000E+00 g(S)=  0.000E+00 dE (1.order)= 0.000E+00
 bond charge predicted
       N       E                     dE             d eps       ncg     rms          rms(c)
DAV:   1    -0.134418335078E+03    0.18009E-03   -0.65062E-03  4491   0.174E-01    0.213E-02
RMM:   2    -0.134418381416E+03   -0.46338E-04   -0.42735E-04  4851   0.434E-02    0.218E-02
RMM:   3    -0.134418368519E+03    0.12896E-04   -0.21914E-05  2424   0.164E-02    0.170E-02
RMM:   4    -0.134418365214E+03    0.33051E-05   -0.10754E-05  2186   0.170E-02
  66 F= -.13441837E+03 E0= -.13441442E+03  d E =0.152389E-03
quench:  g(F)=  0.000E+00 g(S)=  0.000E+00 dE (1.order)= 0.000E+00
 bond charge predicted
       N       E                     dE             d eps       ncg     rms          rms(c)
DAV:   1    -0.134418197973E+03    0.17055E-03   -0.51069E-03  4158   0.145E-01    0.173E-02
RMM:   2    -0.134418225424E+03   -0.27451E-04   -0.29362E-04  4737   0.367E-02    0.136E-02
RMM:   3    -0.134418220070E+03    0.53543E-05   -0.12763E-05  2276   0.147E-02
  67 F= -.13441822E+03 E0= -.13441428E+03  d E =0.145145E-03
quench:  g(F)=  0.000E+00 g(S)=  0.000E+00 dE (1.order)= 0.000E+00
 bond charge predicted
       N       E                     dE             d eps       ncg     rms          rms(c)
DAV:   1    -0.134417949067E+03    0.27636E-03   -0.78798E-03  4122   0.181E-01    0.202E-02
RMM:   2    -0.134417996213E+03   -0.47146E-04   -0.46044E-04  5374   0.462E-02    0.156E-02
RMM:   3    -0.134417989199E+03    0.70147E-05   -0.20685E-05  2382   0.142E-02
  68 F= -.13441799E+03 E0= -.13441404E+03  d E =0.230871E-03
quench:  g(F)=  0.000E+00 g(S)=  0.000E+00 dE (1.order)= 0.000E+00
 bond charge predicted
       N       E                     dE             d eps       ncg     rms          rms(c)
DAV:   1    -0.134417710622E+03    0.28559E-03   -0.10487E-02  4131   0.215E-01    0.254E-02
RMM:   2    -0.134417772474E+03   -0.61853E-04   -0.65404E-04  5500   0.535E-02    0.199E-02
RMM:   3    -0.134417758225E+03    0.14249E-04   -0.21684E-05  2427   0.148E-02    0.131E-02
RMM:   4    -0.134417758593E+03   -0.36768E-06   -0.11301E-05  2191   0.169E-02
  69 F= -.13441776E+03 E0= -.13441381E+03  d E =0.230606E-03
quench:  g(F)=  0.000E+00 g(S)=  0.000E+00 dE (1.order)= 0.000E+00
 bond charge predicted
       N       E                     dE             d eps       ncg     rms          rms(c)
DAV:   1    -0.134417573802E+03    0.18442E-03   -0.63092E-03  4284   0.163E-01    0.206E-02
RMM:   2    -0.134417619102E+03   -0.45300E-04   -0.42119E-04  4856   0.438E-02    0.219E-02
RMM:   3    -0.134417605653E+03    0.13449E-04   -0.19854E-05  2370   0.169E-02    0.171E-02
RMM:   4    -0.134417601789E+03    0.38643E-05   -0.98269E-06  2189   0.158E-02
  70 F= -.13441760E+03 E0= -.13441365E+03  d E =0.156804E-03
quench:  g(F)=  0.000E+00 g(S)=  0.000E+00 dE (1.order)= 0.000E+00
 bond charge predicted
       N       E                     dE             d eps       ncg     rms          rms(c)
DAV:   1    -0.134417430441E+03    0.17521E-03   -0.51627E-03  4167   0.137E-01    0.175E-02
RMM:   2    -0.134417455212E+03   -0.24771E-04   -0.27636E-04  4643   0.354E-02    0.128E-02
RMM:   3    -0.134417450586E+03    0.46261E-05   -0.11339E-05  2243   0.138E-02
  71 F= -.13441745E+03 E0= -.13441350E+03  d E =0.151203E-03
quench:  g(F)=  0.000E+00 g(S)=  0.000E+00 dE (1.order)= 0.000E+00
 bond charge predicted
       N       E                     dE             d eps       ncg     rms          rms(c)
DAV:   1    -0.134417181876E+03    0.27334E-03   -0.76678E-03  4149   0.171E-01    0.197E-02
RMM:   2    -0.134417222254E+03   -0.40378E-04   -0.41640E-04  5313   0.438E-02    0.123E-02
RMM:   3    -0.134417215059E+03    0.71952E-05   -0.16767E-05  2259   0.119E-02
  72 F= -.13441722E+03 E0= -.13441326E+03  d E =0.235528E-03
quench:  g(F)=  0.000E+00 g(S)=  0.000E+00 dE (1.order)= 0.000E+00
 bond charge predicted
       N       E                     dE             d eps       ncg     rms          rms(c)
DAV:   1    -0.134416946842E+03    0.27541E-03   -0.10235E-02  4122   0.193E-01    0.251E-02
RMM:   2    -0.134417001738E+03   -0.54896E-04   -0.57270E-04  5544   0.506E-02    0.216E-02
RMM:   3    -0.134416996103E+03    0.56352E-05   -0.26488E-05  2473   0.173E-02
  73 F= -.13441700E+03 E0= -.13441305E+03  d E =0.218955E-03
quench:  g(F)=  0.000E+00 g(S)=  0.000E+00 dE (1.order)= 0.000E+00
 bond charge predicted
       N       E                     dE             d eps       ncg     rms          rms(c)
DAV:   1    -0.134416807296E+03    0.19444E-03   -0.57905E-03  4806   0.182E-01    0.196E-02
RMM:   2    -0.134416848256E+03   -0.40960E-04   -0.38737E-04  4670   0.401E-02    0.175E-02
RMM:   3    -0.134416839719E+03    0.85364E-05   -0.17405E-05  2374   0.149E-02
  74 F= -.13441684E+03 E0= -.13441289E+03  d E =0.156384E-03
quench:  g(F)=  0.000E+00 g(S)=  0.000E+00 dE (1.order)= 0.000E+00
 bond charge predicted
       N       E                     dE             d eps       ncg     rms          rms(c)
DAV:   1    -0.134416677733E+03    0.17052E-03   -0.43902E-03  4653   0.155E-01    0.173E-02
RMM:   2    -0.134416703635E+03   -0.25901E-04   -0.27417E-04  4391   0.339E-02    0.130E-02
RMM:   3    -0.134416699275E+03    0.43601E-05   -0.11766E-05  2277   0.132E-02
  75 F= -.13441670E+03 E0= -.13441275E+03  d E =0.140445E-03
quench:  g(F)=  0.000E+00 g(S)=  0.000E+00 dE (1.order)= 0.000E+00
 bond charge predicted
       N       E                     dE             d eps       ncg     rms          rms(c)
DAV:   1    -0.134416446448E+03    0.25719E-03   -0.67475E-03  4050   0.171E-01    0.195E-02
RMM:   2    -0.134416488859E+03   -0.42411E-04   -0.39768E-04  5170   0.436E-02    0.164E-02
RMM:   3    -0.134416481613E+03    0.72456E-05   -0.23278E-05  2385   0.159E-02
  76 F= -.13441648E+03 E0= -.13441253E+03  d E =0.217662E-03
quench:  g(F)=  0.000E+00 g(S)=  0.000E+00 dE (1.order)= 0.000E+00
 bond charge predicted
       N       E                     dE             d eps       ncg     rms          rms(c)
DAV:   1    -0.134416209479E+03    0.27938E-03   -0.94656E-03  4122   0.204E-01    0.246E-02
RMM:   2    -0.134416263493E+03   -0.54014E-04   -0.57699E-04  5342   0.511E-02    0.191E-02
RMM:   3    -0.134416251582E+03    0.11911E-04   -0.20999E-05  2399   0.158E-02    0.136E-02
RMM:   4    -0.134416254160E+03   -0.25786E-05   -0.99334E-06  2292   0.160E-02
  77 F= -.13441625E+03 E0= -.13441230E+03  d E =0.227453E-03
quench:  g(F)=  0.000E+00 g(S)=  0.000E+00 dE (1.order)= 0.000E+00
 bond charge predicted
       N       E                     dE             d eps       ncg     rms          rms(c)
DAV:   1    -0.134416054401E+03    0.19718E-03   -0.64911E-03  4329   0.172E-01    0.208E-02
RMM:   2    -0.134416099506E+03   -0.45105E-04   -0.42318E-04  4868   0.435E-02    0.205E-02
RMM:   3    -0.134416087982E+03    0.11524E-04   -0.21058E-05  2402   0.163E-02    0.168E-02
RMM:   4    -0.134416084724E+03    0.32582E-05   -0.10511E-05  2186   0.167E-02
  78 F= -.13441608E+03 E0= -.13441213E+03  d E =0.169436E-03
quench:  g(F)=  0.000E+00 g(S)=  0.000E+00 dE (1.order)= 0.000E+00
 bond charge predicted
       N       E                     dE             d eps       ncg     rms          rms(c)
DAV:   1    -0.134415919516E+03    0.16847E-03   -0.50993E-03  4140   0.143E-01    0.177E-02
RMM:   2    -0.134415946991E+03   -0.27475E-04   -0.29493E-04  4664   0.365E-02    0.143E-02
RMM:   3    -0.134415940741E+03    0.62497E-05   -0.13552E-05  2326   0.152E-02
  79 F= -.13441594E+03 E0= -.13441199E+03  d E =0.143983E-03
quench:  g(F)=  0.000E+00 g(S)=  0.000E+00 dE (1.order)= 0.000E+00
 bond charge predicted
       N       E                     dE             d eps       ncg     rms          rms(c)
DAV:   1    -0.134415693044E+03    0.25395E-03   -0.64937E-03  4221   0.166E-01    0.186E-02
RMM:   2    -0.134415733514E+03   -0.40469E-04   -0.39012E-04  5039   0.418E-02    0.151E-02
RMM:   3    -0.134415727596E+03    0.59176E-05   -0.18586E-05  2368   0.142E-02
  80 F= -.13441573E+03 E0= -.13441177E+03  d E =0.213145E-03
quench:  g(F)=  0.000E+00 g(S)=  0.000E+00 dE (1.order)= 0.000E+00
 bond charge predicted
       N       E                     dE             d eps       ncg     rms          rms(c)
DAV:   1    -0.134415481257E+03    0.25226E-03   -0.82036E-03  4302   0.191E-01    0.227E-02
RMM:   2    -0.134415529984E+03   -0.48727E-04   -0.51649E-04  5203   0.472E-02    0.180E-02
RMM:   3    -0.134415519458E+03    0.10526E-04   -0.18522E-05  2311   0.140E-02    0.119E-02
RMM:   4    -0.134415519620E+03   -0.16225E-06   -0.86391E-06  2249   0.146E-02
  81 F= -.13441552E+03 E0= -.13441156E+03  d E =0.207976E-03
quench:  g(F)=  0.000E+00 g(S)=  0.000E+00 dE (1.order)= 0.000E+00
 bond charge predicted
       N       E                     dE             d eps       ncg     rms          rms(c)
DAV:   1    -0.134415328494E+03    0.19096E-03   -0.57353E-03  4410   0.164E-01    0.192E-02
RMM:   2    -0.134415369997E+03   -0.41503E-04   -0.37857E-04  4705   0.423E-02    0.211E-02
RMM:   3    -0.134415356961E+03    0.13036E-04   -0.19591E-05  2356   0.169E-02    0.162E-02
RMM:   4    -0.134415353808E+03    0.31531E-05   -0.89238E-06  2174   0.151E-02
  82 F= -.13441535E+03 E0= -.13441140E+03  d E =0.165812E-03
quench:  g(F)=  0.000E+00 g(S)=  0.000E+00 dE (1.order)= 0.000E+00
 bond charge predicted
       N       E                     dE             d eps       ncg     rms          rms(c)
DAV:   1    -0.134415164394E+03    0.19257E-03   -0.56195E-03  4167   0.143E-01    0.182E-02
RMM:   2    -0.134415192346E+03   -0.27952E-04   -0.30649E-04  4744   0.371E-02    0.141E-02
RMM:   3    -0.134415187167E+03    0.51785E-05   -0.12841E-05  2250   0.145E-02
  83 F= -.13441519E+03 E0= -.13441123E+03  d E =0.166640E-03
quench:  g(F)=  0.000E+00 g(S)=  0.000E+00 dE (1.order)= 0.000E+00
 bond charge predicted
       N       E                     dE             d eps       ncg     rms          rms(c)
DAV:   1    -0.134414916406E+03    0.27594E-03   -0.74893E-03  4158   0.173E-01    0.200E-02
RMM:   2    -0.134414961569E+03   -0.45162E-04   -0.43944E-04  5200   0.453E-02    0.163E-02
RMM:   3    -0.134414954400E+03    0.71681E-05   -0.21806E-05  2394   0.156E-02
  84 F= -.13441495E+03 E0= -.13441100E+03  d E =0.232767E-03
quench:  g(F)=  0.000E+00 g(S)=  0.000E+00 dE (1.order)= 0.000E+00
 bond charge predicted
       N       E                     dE             d eps       ncg     rms          rms(c)
DAV:   1    -0.134414708497E+03    0.25307E-03   -0.84934E-03  4293   0.198E-01    0.237E-02
RMM:   2    -0.134414757044E+03   -0.48547E-04   -0.52845E-04  5202   0.474E-02    0.181E-02
RMM:   3    -0.134414746284E+03    0.10760E-04   -0.18288E-05  2329   0.141E-02    0.121E-02
RMM:   4    -0.134414746634E+03   -0.34970E-06   -0.96297E-06  2167   0.156E-02
  85 F= -.13441475E+03 E0= -.13441079E+03  d E =0.207767E-03
quench:  g(F)=  0.000E+00 g(S)=  0.000E+00 dE (1.order)= 0.000E+00
 bond charge predicted
       N       E                     dE             d eps       ncg     rms          rms(c)
DAV:   1    -0.134414567917E+03    0.17837E-03   -0.52487E-03  4194   0.147E-01    0.184E-02
RMM:   2    -0.134414604393E+03   -0.36476E-04   -0.34019E-04  4604   0.404E-02    0.191E-02
RMM:   3    -0.134414595678E+03    0.87150E-05   -0.17429E-05  2350   0.164E-02
  86 F= -.13441460E+03 E0= -.13441064E+03  d E =0.150956E-03
quench:  g(F)=  0.000E+00 g(S)=  0.000E+00 dE (1.order)= 0.000E+00
 bond charge predicted
       N       E                     dE             d eps       ncg     rms          rms(c)
DAV:   1    -0.134414404411E+03    0.19998E-03   -0.50011E-03  4401   0.155E-01    0.170E-02
RMM:   2    -0.134414434449E+03   -0.30038E-04   -0.31782E-04  4620   0.379E-02    0.120E-02
RMM:   3    -0.134414428449E+03    0.59994E-05   -0.11741E-05  2222   0.120E-02
  87 F= -.13441443E+03 E0= -.13441047E+03  d E =0.167229E-03
quench:  g(F)=  0.000E+00 g(S)=  0.000E+00 dE (1.order)= 0.000E+00
 bond charge predicted
       N       E                     dE             d eps       ncg     rms          rms(c)
DAV:   1    -0.134414174282E+03    0.26017E-03   -0.70596E-03  4149   0.159E-01    0.192E-02
RMM:   2    -0.134414212062E+03   -0.37780E-04   -0.39311E-04  4948   0.423E-02    0.131E-02
RMM:   3    -0.134414205133E+03    0.69286E-05   -0.17376E-05  2281   0.127E-02
  88 F= -.13441421E+03 E0= -.13441025E+03  d E =0.223316E-03
quench:  g(F)=  0.000E+00 g(S)=  0.000E+00 dE (1.order)= 0.000E+00
 bond charge predicted
       N       E                     dE             d eps       ncg     rms          rms(c)
DAV:   1    -0.134413969331E+03    0.24273E-03   -0.83872E-03  4158   0.183E-01    0.231E-02
RMM:   2    -0.134414026517E+03   -0.57186E-04   -0.50225E-04  5276   0.473E-02    0.231E-02
RMM:   3    -0.134414011651E+03    0.14866E-04   -0.26658E-05  2444   0.184E-02    0.198E-02
RMM:   4    -0.134414005250E+03    0.64015E-05   -0.10046E-05  2248   0.168E-02
  89 F= -.13441401E+03 E0= -.13441005E+03  d E =0.199883E-03
quench:  g(F)=  0.000E+00 g(S)=  0.000E+00 dE (1.order)= 0.000E+00
 bond charge predicted
       N       E                     dE             d eps       ncg     rms          rms(c)
DAV:   1    -0.134413811091E+03    0.20056E-03   -0.58165E-03  4176   0.140E-01    0.185E-02
RMM:   2    -0.134413843151E+03   -0.32060E-04   -0.33003E-04  4611   0.379E-02    0.140E-02
RMM:   3    -0.134413836679E+03    0.64728E-05   -0.14821E-05  2271   0.141E-02
  90 F= -.13441384E+03 E0= -.13440987E+03  d E =0.168571E-03
quench:  g(F)=  0.000E+00 g(S)=  0.000E+00 dE (1.order)= 0.000E+00
 bond charge predicted
       N       E                     dE             d eps       ncg     rms          rms(c)
DAV:   1    -0.134413646821E+03    0.19633E-03   -0.55858E-03  4149   0.154E-01    0.182E-02
RMM:   2    -0.134413684968E+03   -0.38146E-04   -0.33748E-04  4848   0.396E-02    0.171E-02
RMM:   3    -0.134413675965E+03    0.90025E-05   -0.18090E-05  2384   0.161E-02
  91 F= -.13441368E+03 E0= -.13440972E+03  d E =0.160713E-03
quench:  g(F)=  0.000E+00 g(S)=  0.000E+00 dE (1.order)= 0.000E+00
 bond charge predicted
       N       E                     dE             d eps       ncg     rms          rms(c)
DAV:   1    -0.134413425129E+03    0.25984E-03   -0.66585E-03  4338   0.175E-01    0.192E-02
RMM:   2    -0.134413467059E+03   -0.41930E-04   -0.43519E-04  4962   0.438E-02    0.147E-02
RMM:   3    -0.134413457485E+03    0.95736E-05   -0.14886E-05  2258   0.133E-02
  92 F= -.13441346E+03 E0= -.13440950E+03  d E =0.218480E-03
quench:  g(F)=  0.000E+00 g(S)=  0.000E+00 dE (1.order)= 0.000E+00
 bond charge predicted
       N       E                     dE             d eps       ncg     rms          rms(c)
DAV:   1    -0.134413239928E+03    0.22713E-03   -0.74371E-03  4158   0.179E-01    0.222E-02
RMM:   2    -0.134413290927E+03   -0.50998E-04   -0.44598E-04  5089   0.445E-02    0.249E-02
RMM:   3    -0.134413277009E+03    0.13917E-04   -0.25529E-05  2439   0.178E-02    0.184E-02
RMM:   4    -0.134413271279E+03    0.57301E-05   -0.97993E-06  2227   0.166E-02
  93 F= -.13441327E+03 E0= -.13440931E+03  d E =0.186206E-03
quench:  g(F)=  0.000E+00 g(S)=  0.000E+00 dE (1.order)= 0.000E+00
 bond charge predicted
       N       E                     dE             d eps       ncg     rms          rms(c)
DAV:   1    -0.134413074094E+03    0.20292E-03   -0.56879E-03  4149   0.140E-01    0.181E-02
RMM:   2    -0.134413104535E+03   -0.30442E-04   -0.31852E-04  4620   0.373E-02    0.141E-02
RMM:   3    -0.134413099012E+03    0.55235E-05   -0.14335E-05  2297   0.133E-02
  94 F= -.13441310E+03 E0= -.13440914E+03  d E =0.172268E-03
quench:  g(F)=  0.000E+00 g(S)=  0.000E+00 dE (1.order)= 0.000E+00
 bond charge predicted
       N       E                     dE             d eps       ncg     rms          rms(c)
DAV:   1    -0.134412896578E+03    0.20796E-03   -0.60818E-03  4158   0.168E-01    0.190E-02
RMM:   2    -0.134412936257E+03   -0.39680E-04   -0.35882E-04  4954   0.413E-02    0.199E-02
RMM:   3    -0.134412928181E+03    0.80762E-05   -0.20510E-05  2398   0.163E-02
  95 F= -.13441293E+03 E0= -.13440896E+03  d E =0.170831E-03
quench:  g(F)=  0.000E+00 g(S)=  0.000E+00 dE (1.order)= 0.000E+00
 bond charge predicted
       N       E                     dE             d eps       ncg     rms          rms(c)
DAV:   1    -0.134412675936E+03    0.26032E-03   -0.68415E-03  4212   0.176E-01    0.202E-02
RMM:   2    -0.134412718801E+03   -0.42865E-04   -0.45036E-04  4999   0.444E-02    0.154E-02
RMM:   3    -0.134412709333E+03    0.94683E-05   -0.17542E-05  2290   0.135E-02
  96 F= -.13441271E+03 E0= -.13440874E+03  d E =0.218848E-03
quench:  g(F)=  0.000E+00 g(S)=  0.000E+00 dE (1.order)= 0.000E+00
 bond charge predicted
       N       E                     dE             d eps       ncg     rms          rms(c)
DAV:   1    -0.134412506697E+03    0.21210E-03   -0.68355E-03  4338   0.176E-01    0.220E-02
RMM:   2    -0.134412561991E+03   -0.55294E-04   -0.42530E-04  4973   0.439E-02    0.265E-02
RMM:   3    -0.134412540547E+03    0.21443E-04   -0.26814E-05  2445   0.189E-02    0.183E-02
RMM:   4    -0.134412535671E+03    0.48761E-05   -0.91984E-06  2248   0.159E-02
  97 F= -.13441254E+03 E0= -.13440857E+03  d E =0.173661E-03
quench:  g(F)=  0.000E+00 g(S)=  0.000E+00 dE (1.order)= 0.000E+00
 bond charge predicted
       N       E                     dE             d eps       ncg     rms          rms(c)
DAV:   1    -0.134412335628E+03    0.20492E-03   -0.52898E-03  4176   0.134E-01    0.173E-02
RMM:   2    -0.134412363887E+03   -0.28259E-04   -0.28761E-04  4379   0.360E-02    0.129E-02
RMM:   3    -0.134412358776E+03    0.51116E-05   -0.14140E-05  2276   0.139E-02
  98 F= -.13441236E+03 E0= -.13440839E+03  d E =0.176896E-03
quench:  g(F)=  0.000E+00 g(S)=  0.000E+00 dE (1.order)= 0.000E+00
 bond charge predicted
       N       E                     dE             d eps       ncg     rms          rms(c)
DAV:   1    -0.134412140129E+03    0.22376E-03   -0.62900E-03  4140   0.164E-01    0.194E-02
RMM:   2    -0.134412183081E+03   -0.42952E-04   -0.37788E-04  4974   0.420E-02    0.182E-02
RMM:   3    -0.134412172962E+03    0.10120E-04   -0.20195E-05  2394   0.163E-02    0.172E-02
RMM:   4    -0.134412168535E+03    0.44270E-05   -0.75988E-06  2179   0.149E-02
  99 F= -.13441217E+03 E0= -.13440820E+03  d E =0.190241E-03
quench:  g(F)=  0.000E+00 g(S)=  0.000E+00 dE (1.order)= 0.000E+00
 bond charge predicted
       N       E                     dE             d eps       ncg     rms          rms(c)
DAV:   1    -0.134411913565E+03    0.25940E-03   -0.72744E-03  4050   0.156E-01    0.198E-02
RMM:   2    -0.134411949706E+03   -0.36141E-04   -0.38060E-04  4724   0.414E-02    0.142E-02
RMM:   3    -0.134411943073E+03    0.66332E-05   -0.17791E-05  2303   0.136E-02
 100 F= -.13441194E+03 E0= -.13440797E+03  d E =0.225462E-03
quench:  g(F)=  0.000E+00 g(S)=  0.000E+00 dE (1.order)= 0.000E+00
 bond charge predicted
       N       E                     dE             d eps       ncg     rms          rms(c)
DAV:   1    -0.134411717950E+03    0.23176E-03   -0.74466E-03  4284   0.181E-01    0.220E-02
RMM:   2    -0.134411772190E+03   -0.54240E-04   -0.45630E-04  5111   0.450E-02    0.229E-02
RMM:   3    -0.134411756678E+03    0.15512E-04   -0.27171E-05  2450   0.182E-02    0.191E-02
RMM:   4    -0.134411750794E+03    0.58849E-05   -0.93959E-06  2246   0.162E-02
 101 F= -.13441175E+03 E0= -.13440778E+03  d E =0.192279E-03
quench:  g(F)=  0.000E+00 g(S)=  0.000E+00 dE (1.order)= 0.000E+00
 bond charge predicted
       N       E                     dE             d eps       ncg     rms          rms(c)
DAV:   1    -0.134411544041E+03    0.21264E-03   -0.55953E-03  4176   0.136E-01    0.180E-02
RMM:   2    -0.134411573820E+03   -0.29779E-04   -0.30655E-04  4433   0.369E-02    0.134E-02
RMM:   3    -0.134411568260E+03    0.55602E-05   -0.15237E-05  2279   0.138E-02
 102 F= -.13441157E+03 E0= -.13440760E+03  d E =0.182534E-03
quench:  g(F)=  0.000E+00 g(S)=  0.000E+00 dE (1.order)= 0.000E+00
 bond charge predicted
       N       E                     dE             d eps       ncg     rms          rms(c)
DAV:   1    -0.134411365042E+03    0.20878E-03   -0.58980E-03  4158   0.159E-01    0.191E-02
RMM:   2    -0.134411407017E+03   -0.41975E-04   -0.35592E-04  4866   0.405E-02    0.193E-02
RMM:   3    -0.134411395526E+03    0.11491E-04   -0.20884E-05  2394   0.167E-02    0.166E-02
RMM:   4    -0.134411391529E+03    0.39969E-05   -0.72585E-06  2177   0.144E-02
 103 F= -.13441139E+03 E0= -.13440742E+03  d E =0.176731E-03
quench:  g(F)=  0.000E+00 g(S)=  0.000E+00 dE (1.order)= 0.000E+00
 bond charge predicted
       N       E                     dE             d eps       ncg     rms          rms(c)
DAV:   1    -0.134411149274E+03    0.24625E-03   -0.66865E-03  4068   0.151E-01    0.189E-02
RMM:   2    -0.134411182124E+03   -0.32850E-04   -0.34459E-04  4660   0.395E-02    0.134E-02
RMM:   3    -0.134411176171E+03    0.59531E-05   -0.16271E-05  2284   0.136E-02
 104 F= -.13441118E+03 E0= -.13440720E+03  d E =0.215358E-03
quench:  g(F)=  0.000E+00 g(S)=  0.000E+00 dE (1.order)= 0.000E+00
 bond charge predicted
       N       E                     dE             d eps       ncg     rms          rms(c)
DAV:   1    -0.134410939031E+03    0.24309E-03   -0.77647E-03  4194   0.180E-01    0.219E-02
RMM:   2    -0.134410991756E+03   -0.52725E-04   -0.46492E-04  5172   0.456E-02    0.211E-02
RMM:   3    -0.134410979116E+03    0.12640E-04   -0.25741E-05  2429   0.176E-02    0.192E-02
RMM:   4    -0.134410973596E+03    0.55205E-05   -0.93375E-06  2185   0.163E-02
 105 F= -.13441097E+03 E0= -.13440700E+03  d E =0.202575E-03
quench:  g(F)=  0.000E+00 g(S)=  0.000E+00 dE (1.order)= 0.000E+00
 bond charge predicted
       N       E                     dE             d eps       ncg     rms          rms(c)
DAV:   1    -0.134410746280E+03    0.23284E-03   -0.65445E-03  4032   0.147E-01    0.193E-02
RMM:   2    -0.134410779994E+03   -0.33713E-04   -0.35655E-04  4627   0.396E-02    0.144E-02
RMM:   3    -0.134410773315E+03    0.66783E-05   -0.15951E-05  2287   0.137E-02
 106 F= -.13441077E+03 E0= -.13440680E+03  d E =0.200280E-03
quench:  g(F)=  0.000E+00 g(S)=  0.000E+00 dE (1.order)= 0.000E+00
 bond charge predicted
       N       E                     dE             d eps       ncg     rms          rms(c)
DAV:   1    -0.134410574947E+03    0.20505E-03   -0.61021E-03  4293   0.165E-01    0.199E-02
RMM:   2    -0.134410621453E+03   -0.46505E-04   -0.37920E-04  4864   0.417E-02    0.217E-02
RMM:   3    -0.134410606652E+03    0.14801E-04   -0.23517E-05  2411   0.175E-02    0.169E-02
RMM:   4    -0.134410602686E+03    0.39656E-05   -0.78421E-06  2179   0.148E-02
 107 F= -.13441060E+03 E0= -.13440663E+03  d E =0.170629E-03
quench:  g(F)=  0.000E+00 g(S)=  0.000E+00 dE (1.order)= 0.000E+00
 bond charge predicted
       N       E                     dE             d eps       ncg     rms          rms(c)
DAV:   1    -0.134410378947E+03    0.22770E-03   -0.59339E-03  4032   0.142E-01    0.180E-02
RMM:   2    -0.134410408402E+03   -0.29455E-04   -0.30921E-04  4504   0.373E-02    0.129E-02
RMM:   3    -0.134410402946E+03    0.54564E-05   -0.14455E-05  2266   0.136E-02
 108 F= -.13441040E+03 E0= -.13440643E+03  d E =0.199740E-03
quench:  g(F)=  0.000E+00 g(S)=  0.000E+00 dE (1.order)= 0.000E+00
 bond charge predicted
       N       E                     dE             d eps       ncg     rms          rms(c)
DAV:   1    -0.134410170374E+03    0.23803E-03   -0.71762E-03  4176   0.172E-01    0.210E-02
RMM:   2    -0.134410218298E+03   -0.47924E-04   -0.42617E-04  5098   0.440E-02    0.196E-02
RMM:   3    -0.134410207413E+03    0.10886E-04   -0.22678E-05  2417   0.170E-02    0.184E-02
RMM:   4    -0.134410202282E+03    0.51304E-05   -0.85498E-06  2184   0.156E-02
 109 F= -.13441020E+03 E0= -.13440623E+03  d E =0.200664E-03
quench:  g(F)=  0.000E+00 g(S)=  0.000E+00 dE (1.order)= 0.000E+00
 bond charge predicted
       N       E                     dE             d eps       ncg     rms          rms(c)
DAV:   1    -0.134409956934E+03    0.25048E-03   -0.68995E-03  4032   0.151E-01    0.197E-02
RMM:   2    -0.134409991739E+03   -0.34804E-04   -0.36815E-04  4679   0.404E-02    0.144E-02
RMM:   3    -0.134409984969E+03    0.67700E-05   -0.16634E-05  2297   0.138E-02
 110 F= -.13440998E+03 E0= -.13440601E+03  d E =0.217313E-03
quench:  g(F)=  0.000E+00 g(S)=  0.000E+00 dE (1.order)= 0.000E+00
 bond charge predicted
       N       E                     dE             d eps       ncg     rms          rms(c)
DAV:   1    -0.134409783437E+03    0.20830E-03   -0.63576E-03  4302   0.168E-01    0.204E-02
RMM:   2    -0.134409831481E+03   -0.48044E-04   -0.39606E-04  4904   0.422E-02    0.221E-02
RMM:   3    -0.134409816489E+03    0.14992E-04   -0.23063E-05  2414   0.176E-02    0.174E-02
RMM:   4    -0.134409812252E+03    0.42374E-05   -0.83026E-06  2181   0.152E-02
 111 F= -.13440981E+03 E0= -.13440584E+03  d E =0.172717E-03
quench:  g(F)=  0.000E+00 g(S)=  0.000E+00 dE (1.order)= 0.000E+00
 bond charge predicted
       N       E                     dE             d eps       ncg     rms          rms(c)
DAV:   1    -0.134409608354E+03    0.20814E-03   -0.52742E-03  4032   0.133E-01    0.172E-02
RMM:   2    -0.134409634912E+03   -0.26558E-04   -0.27899E-04  4315   0.354E-02    0.127E-02
RMM:   3    -0.134409629968E+03    0.49440E-05   -0.13366E-05  2246   0.138E-02
 112 F= -.13440963E+03 E0= -.13440565E+03  d E =0.182284E-03
quench:  g(F)=  0.000E+00 g(S)=  0.000E+00 dE (1.order)= 0.000E+00
 bond charge predicted
       N       E                     dE             d eps       ncg     rms          rms(c)
DAV:   1    -0.134409409111E+03    0.22580E-03   -0.63993E-03  4185   0.164E-01    0.198E-02
RMM:   2    -0.134409451958E+03   -0.42847E-04   -0.37721E-04  4973   0.418E-02    0.183E-02
RMM:   3    -0.134409442410E+03    0.95480E-05   -0.22646E-05  2402   0.167E-02
 113 F= -.13440944E+03 E0= -.13440547E+03  d E =0.187559E-03
quench:  g(F)=  0.000E+00 g(S)=  0.000E+00 dE (1.order)= 0.000E+00
 bond charge predicted
       N       E                     dE             d eps       ncg     rms          rms(c)
DAV:   1    -0.134409187500E+03    0.26446E-03   -0.65917E-03  4500   0.175E-01    0.198E-02
RMM:   2    -0.134409229203E+03   -0.41702E-04   -0.43443E-04  4865   0.426E-02    0.157E-02
RMM:   3    -0.134409219966E+03    0.92368E-05   -0.15744E-05  2302   0.137E-02
 114 F= -.13440922E+03 E0= -.13440524E+03  d E =0.222444E-03
quench:  g(F)=  0.000E+00 g(S)=  0.000E+00 dE (1.order)= 0.000E+00
 bond charge predicted
       N       E                     dE             d eps       ncg     rms          rms(c)
DAV:   1    -0.134409034835E+03    0.19437E-03   -0.60305E-03  4383   0.171E-01    0.211E-02
RMM:   2    -0.134409083506E+03   -0.48670E-04   -0.37532E-04  4783   0.417E-02    0.277E-02
RMM:   3    -0.134409064573E+03    0.18932E-04   -0.25323E-05  2428   0.184E-02    0.165E-02
RMM:   4    -0.134409060312E+03    0.42610E-05   -0.89635E-06  2224   0.157E-02
 115 F= -.13440906E+03 E0= -.13440508E+03  d E =0.159654E-03
quench:  g(F)=  0.000E+00 g(S)=  0.000E+00 dE (1.order)= 0.000E+00
 bond charge predicted
       N       E                     dE             d eps       ncg     rms          rms(c)
DAV:   1    -0.134408864302E+03    0.20027E-03   -0.48682E-03  4149   0.130E-01    0.168E-02
RMM:   2    -0.134408889306E+03   -0.25004E-04   -0.26300E-04  4344   0.344E-02    0.127E-02
RMM:   3    -0.134408884825E+03    0.44802E-05   -0.13437E-05  2255   0.137E-02
 116 F= -.13440888E+03 E0= -.13440491E+03  d E =0.175487E-03
quench:  g(F)=  0.000E+00 g(S)=  0.000E+00 dE (1.order)= 0.000E+00
 bond charge predicted
       N       E                     dE             d eps       ncg     rms          rms(c)
DAV:   1    -0.134408649627E+03    0.23968E-03   -0.66799E-03  4050   0.166E-01    0.200E-02
RMM:   2    -0.134408688974E+03   -0.39347E-04   -0.37509E-04  5021   0.430E-02    0.187E-02
RMM:   3    -0.134408683893E+03    0.50815E-05   -0.21979E-05  2402   0.163E-02
 117 F= -.13440868E+03 E0= -.13440470E+03  d E =0.200933E-03
quench:  g(F)=  0.000E+00 g(S)=  0.000E+00 dE (1.order)= 0.000E+00
 bond charge predicted
       N       E                     dE             d eps       ncg     rms          rms(c)
DAV:   1    -0.134408400407E+03    0.28857E-03   -0.78265E-03  4266   0.190E-01    0.218E-02
RMM:   2    -0.134408448129E+03   -0.47721E-04   -0.50303E-04  5061   0.465E-02    0.162E-02
RMM:   3    -0.134408437230E+03    0.10899E-04   -0.20746E-05  2336   0.139E-02    0.115E-02
RMM:   4    -0.134408437954E+03   -0.72390E-06   -0.10474E-05  2210   0.160E-02
 118 F= -.13440844E+03 E0= -.13440446E+03  d E =0.245939E-03
quench:  g(F)=  0.000E+00 g(S)=  0.000E+00 dE (1.order)= 0.000E+00
 bond charge predicted
       N       E                     dE             d eps       ncg     rms          rms(c)
DAV:   1    -0.134408249076E+03    0.18815E-03   -0.68606E-03  4392   0.177E-01    0.227E-02
RMM:   2    -0.134408295604E+03   -0.46528E-04   -0.42969E-04  4891   0.435E-02    0.244E-02
RMM:   3    -0.134408283004E+03    0.12600E-04   -0.25172E-05  2441   0.178E-02    0.188E-02
RMM:   4    -0.134408276841E+03    0.61634E-05   -0.10573E-05  2229   0.174E-02
 119 F= -.13440828E+03 E0= -.13440430E+03  d E =0.161113E-03
quench:  g(F)=  0.000E+00 g(S)=  0.000E+00 dE (1.order)= 0.000E+00
 bond charge predicted
       N       E                     dE             d eps       ncg     rms          rms(c)
DAV:   1    -0.134408084514E+03    0.19849E-03   -0.47796E-03  4194   0.134E-01    0.166E-02
RMM:   2    -0.134408110584E+03   -0.26071E-04   -0.27317E-04  4405   0.346E-02    0.121E-02
RMM:   3    -0.134408105361E+03    0.52236E-05   -0.12973E-05  2218   0.147E-02
 120 F= -.13440811E+03 E0= -.13440412E+03  d E =0.171480E-03
quench:  g(F)=  0.000E+00 g(S)=  0.000E+00 dE (1.order)= 0.000E+00
 bond charge predicted
       N       E                     dE             d eps       ncg     rms          rms(c)
DAV:   1    -0.134407878539E+03    0.23204E-03   -0.62477E-03  4140   0.157E-01    0.191E-02
RMM:   2    -0.134407913567E+03   -0.35028E-04   -0.35242E-04  4908   0.398E-02    0.148E-02
RMM:   3    -0.134407908406E+03    0.51610E-05   -0.15395E-05  2366   0.144E-02
 121 F= -.13440791E+03 E0= -.13440393E+03  d E =0.196954E-03
quench:  g(F)=  0.000E+00 g(S)=  0.000E+00 dE (1.order)= 0.000E+00
 bond charge predicted
       N       E                     dE             d eps       ncg     rms          rms(c)
DAV:   1    -0.134407633399E+03    0.28017E-03   -0.74864E-03  4419   0.184E-01    0.207E-02
RMM:   2    -0.134407679407E+03   -0.46008E-04   -0.47682E-04  5009   0.451E-02    0.151E-02
RMM:   3    -0.134407670496E+03    0.89102E-05   -0.19944E-05  2399   0.133E-02
 122 F= -.13440767E+03 E0= -.13440369E+03  d E =0.237910E-03
quench:  g(F)=  0.000E+00 g(S)=  0.000E+00 dE (1.order)= 0.000E+00
 bond charge predicted
       N       E                     dE             d eps       ncg     rms          rms(c)
DAV:   1    -0.134407473327E+03    0.20608E-03   -0.67114E-03  4329   0.173E-01    0.220E-02
RMM:   2    -0.134407526384E+03   -0.53057E-04   -0.42570E-04  4909   0.437E-02    0.251E-02
RMM:   3    -0.134407507683E+03    0.18701E-04   -0.25624E-05  2442   0.185E-02    0.183E-02
RMM:   4    -0.134407503266E+03    0.44171E-05   -0.91515E-06  2182   0.159E-02
 123 F= -.13440750E+03 E0= -.13440352E+03  d E =0.167231E-03
quench:  g(F)=  0.000E+00 g(S)=  0.000E+00 dE (1.order)= 0.000E+00
 bond charge predicted
       N       E                     dE             d eps       ncg     rms          rms(c)
DAV:   1    -0.134407318863E+03    0.18882E-03   -0.46897E-03  4086   0.126E-01    0.165E-02
RMM:   2    -0.134407342815E+03   -0.23953E-04   -0.25043E-04  4209   0.339E-02    0.122E-02
RMM:   3    -0.134407339579E+03    0.32365E-05   -0.13733E-05  2320   0.144E-02
 124 F= -.13440734E+03 E0= -.13440335E+03  d E =0.163687E-03
quench:  g(F)=  0.000E+00 g(S)=  0.000E+00 dE (1.order)= 0.000E+00
 bond charge predicted
       N       E                     dE             d eps       ncg     rms          rms(c)
DAV:   1    -0.134407113837E+03    0.22898E-03   -0.60893E-03  4194   0.158E-01    0.188E-02
RMM:   2    -0.134407151564E+03   -0.37727E-04   -0.35233E-04  4915   0.407E-02    0.162E-02
RMM:   3    -0.134407143970E+03    0.75941E-05   -0.17762E-05  2385   0.157E-02
 125 F= -.13440714E+03 E0= -.13440316E+03  d E =0.195609E-03
quench:  g(F)=  0.000E+00 g(S)=  0.000E+00 dE (1.order)= 0.000E+00
 bond charge predicted
       N       E                     dE             d eps       ncg     rms          rms(c)
DAV:   1    -0.134406860665E+03    0.29090E-03   -0.77007E-03  4356   0.187E-01    0.210E-02
RMM:   2    -0.134406908369E+03   -0.47704E-04   -0.49699E-04  5080   0.464E-02    0.159E-02
RMM:   3    -0.134406897523E+03    0.10846E-04   -0.18092E-05  2322   0.138E-02    0.118E-02
RMM:   4    -0.134406898702E+03   -0.11785E-05   -0.98991E-06  2212   0.156E-02
 126 F= -.13440690E+03 E0= -.13440291E+03  d E =0.245268E-03
quench:  g(F)=  0.000E+00 g(S)=  0.000E+00 dE (1.order)= 0.000E+00
 bond charge predicted
       N       E                     dE             d eps       ncg     rms          rms(c)
DAV:   1    -0.134406694507E+03    0.20302E-03   -0.71954E-03  4302   0.177E-01    0.227E-02
RMM:   2    -0.134406740954E+03   -0.46447E-04   -0.44759E-04  5010   0.440E-02    0.191E-02
RMM:   3    -0.134406730325E+03    0.10629E-04   -0.19768E-05  2409   0.153E-02    0.183E-02
RMM:   4    -0.134406724698E+03    0.56265E-05   -0.90891E-06  2245   0.160E-02
 127 F= -.13440672E+03 E0= -.13440274E+03  d E =0.174003E-03
quench:  g(F)=  0.000E+00 g(S)=  0.000E+00 dE (1.order)= 0.000E+00
 bond charge predicted
       N       E                     dE             d eps       ncg     rms          rms(c)
DAV:   1    -0.134406529788E+03    0.20054E-03   -0.49437E-03  4167   0.132E-01    0.167E-02
RMM:   2    -0.134406556966E+03   -0.27178E-04   -0.27652E-04  4386   0.353E-02    0.122E-02
RMM:   3    -0.134406551644E+03    0.53215E-05   -0.13031E-05  2230   0.144E-02
 128 F= -.13440655E+03 E0= -.13440256E+03  d E =0.173054E-03
quench:  g(F)=  0.000E+00 g(S)=  0.000E+00 dE (1.order)= 0.000E+00
 bond charge predicted
       N       E                     dE             d eps       ncg     rms          rms(c)
DAV:   1    -0.134406330233E+03    0.22673E-03   -0.61057E-03  4167   0.153E-01    0.189E-02
RMM:   2    -0.134406362473E+03   -0.32240E-04   -0.33576E-04  4873   0.394E-02    0.140E-02
RMM:   3    -0.134406360277E+03    0.21961E-05   -0.14245E-05  2375   0.137E-02
 129 F= -.13440636E+03 E0= -.13440237E+03  d E =0.191368E-03
quench:  g(F)=  0.000E+00 g(S)=  0.000E+00 dE (1.order)= 0.000E+00
 bond charge predicted
       N       E                     dE             d eps       ncg     rms          rms(c)
DAV:   1    -0.134406085455E+03    0.27702E-03   -0.75728E-03  4131   0.182E-01    0.209E-02
RMM:   2    -0.134406133088E+03   -0.47633E-04   -0.46715E-04  5124   0.455E-02    0.169E-02
RMM:   3    -0.134406124932E+03    0.81564E-05   -0.23071E-05  2417   0.153E-02
 130 F= -.13440612E+03 E0= -.13440214E+03  d E =0.235345E-03
quench:  g(F)=  0.000E+00 g(S)=  0.000E+00 dE (1.order)= 0.000E+00
 bond charge predicted
       N       E                     dE             d eps       ncg     rms          rms(c)
DAV:   1    -0.134405911440E+03    0.22165E-03   -0.70667E-03  4554   0.187E-01    0.222E-02
RMM:   2    -0.134405951542E+03   -0.40102E-04   -0.43841E-04  4947   0.424E-02    0.166E-02
RMM:   3    -0.134405943258E+03    0.82837E-05   -0.16475E-05  2313   0.137E-02
 131 F= -.13440594E+03 E0= -.13440195E+03  d E =0.181673E-03
quench:  g(F)=  0.000E+00 g(S)=  0.000E+00 dE (1.order)= 0.000E+00
 bond charge predicted
       N       E                     dE             d eps       ncg     rms          rms(c)
DAV:   1    -0.134405766271E+03    0.18527E-03   -0.45042E-03  4626   0.149E-01    0.180E-02
RMM:   2    -0.134405806452E+03   -0.40181E-04   -0.28755E-04  4366   0.380E-02    0.257E-02
RMM:   3    -0.134405787879E+03    0.18573E-04   -0.20235E-05  2341   0.176E-02    0.130E-02
[...]
RMM:   3    -0.134372479722E+03    0.12575E-04   -0.34792E-05  2567   0.189E-02    0.225E-02
RMM:   4    -0.134372472006E+03    0.77153E-05   -0.13282E-05  2183   0.190E-02
 274 F= -.13437247E+03 E0= -.13436828E+03  d E =0.300222E-03
quench:  g(F)=  0.000E+00 g(S)=  0.000E+00 dE (1.order)= 0.000E+00
 bond charge predicted
       N       E                     dE             d eps       ncg     rms          rms(c)
DAV:   1    -0.134372199895E+03    0.27983E-03   -0.89086E-03  4131   0.175E-01    0.256E-02
RMM:   2    -0.134372243092E+03   -0.43197E-04   -0.48473E-04  5316   0.450E-02    0.181E-02
RMM:   3    -0.134372235605E+03    0.74870E-05   -0.18914E-05  2376   0.136E-02
 275 F= -.13437224E+03 E0= -.13436805E+03  d E =0.236401E-03
quench:  g(F)=  0.000E+00 g(S)=  0.000E+00 dE (1.order)= 0.000E+00
 bond charge predicted
       N       E                     dE             d eps       ncg     rms          rms(c)
DAV:   1    -0.134371962015E+03    0.28108E-03   -0.69516E-03  4599   0.190E-01    0.221E-02
RMM:   2    -0.134372020657E+03   -0.58642E-04   -0.46684E-04  5020   0.464E-02    0.268E-02
RMM:   3    -0.134371997521E+03    0.23136E-04   -0.29719E-05  2484   0.191E-02    0.177E-02
RMM:   4    -0.134371994106E+03    0.34153E-05   -0.10894E-05  2180   0.169E-02
 276 F= -.13437199E+03 E0= -.13436780E+03  d E =0.241499E-03
quench:  g(F)=  0.000E+00 g(S)=  0.000E+00 dE (1.order)= 0.000E+00
 bond charge predicted
       N       E                     dE             d eps       ncg     rms          rms(c)
DAV:   1    -0.134371713166E+03    0.28436E-03   -0.81762E-03  4122   0.170E-01    0.238E-02
RMM:   2    -0.134371752684E+03   -0.39518E-04   -0.42821E-04  5179   0.434E-02    0.168E-02
RMM:   3    -0.134371745842E+03    0.68420E-05   -0.17857E-05  2377   0.146E-02
 277 F= -.13437175E+03 E0= -.13436756E+03  d E =0.248264E-03
quench:  g(F)=  0.000E+00 g(S)=  0.000E+00 dE (1.order)= 0.000E+00
 bond charge predicted
       N       E                     dE             d eps       ncg     rms          rms(c)
DAV:   1    -0.134371388547E+03    0.36414E-03   -0.96600E-03  4293   0.210E-01    0.251E-02
RMM:   2    -0.134371453497E+03   -0.64950E-04   -0.61680E-04  5466   0.527E-02    0.217E-02
RMM:   3    -0.134371441739E+03    0.11758E-04   -0.35663E-05  2559   0.193E-02    0.229E-02
RMM:   4    -0.134371433548E+03    0.81908E-05   -0.13363E-05  2186   0.192E-02
 278 F= -.13437143E+03 E0= -.13436724E+03  d E =0.312293E-03
quench:  g(F)=  0.000E+00 g(S)=  0.000E+00 dE (1.order)= 0.000E+00
 bond charge predicted
       N       E                     dE             d eps       ncg     rms          rms(c)
DAV:   1    -0.134371142224E+03    0.29951E-03   -0.99576E-03  4131   0.184E-01    0.269E-02
RMM:   2    -0.134371190341E+03   -0.48117E-04   -0.53912E-04  5441   0.474E-02    0.192E-02
RMM:   3    -0.134371181945E+03    0.83963E-05   -0.20879E-05  2396   0.140E-02
 279 F= -.13437118E+03 E0= -.13436699E+03  d E =0.251603E-03
quench:  g(F)=  0.000E+00 g(S)=  0.000E+00 dE (1.order)= 0.000E+00
 bond charge predicted
       N       E                     dE             d eps       ncg     rms          rms(c)
DAV:   1    -0.134370928199E+03    0.26214E-03   -0.67251E-03  4716   0.191E-01    0.220E-02
RMM:   2    -0.134370988361E+03   -0.60162E-04   -0.45999E-04  4954   0.463E-02    0.282E-02
RMM:   3    -0.134370961829E+03    0.26532E-04   -0.29894E-05  2483   0.193E-02    0.172E-02
RMM:   4    -0.134370958879E+03    0.29497E-05   -0.10887E-05  2193   0.166E-02
 280 F= -.13437096E+03 E0= -.13436676E+03  d E =0.223066E-03
quench:  g(F)=  0.000E+00 g(S)=  0.000E+00 dE (1.order)= 0.000E+00
 bond charge predicted
       N       E                     dE             d eps       ncg     rms          rms(c)
DAV:   1    -0.134370694011E+03    0.26782E-03   -0.74516E-03  4176   0.163E-01    0.225E-02
RMM:   2    -0.134370730371E+03   -0.36359E-04   -0.39179E-04  5080   0.420E-02    0.157E-02
RMM:   3    -0.134370724045E+03    0.63258E-05   -0.16410E-05  2359   0.144E-02
 281 F= -.13437072E+03 E0= -.13436653E+03  d E =0.234834E-03
quench:  g(F)=  0.000E+00 g(S)=  0.000E+00 dE (1.order)= 0.000E+00
 bond charge predicted
       N       E                     dE             d eps       ncg     rms          rms(c)
DAV:   1    -0.134370357798E+03    0.37257E-03   -0.98826E-03  4338   0.209E-01    0.252E-02
RMM:   2    -0.134370422658E+03   -0.64860E-04   -0.61590E-04  5578   0.531E-02    0.201E-02
RMM:   3    -0.134370413644E+03    0.90134E-05   -0.34193E-05  2550   0.187E-02
 282 F= -.13437041E+03 E0= -.13436621E+03  d E =0.310401E-03
quench:  g(F)=  0.000E+00 g(S)=  0.000E+00 dE (1.order)= 0.000E+00
 bond charge predicted
       N       E                     dE             d eps       ncg     rms          rms(c)
DAV:   1    -0.134370093216E+03    0.32944E-03   -0.10656E-02  4482   0.228E-01    0.277E-02
RMM:   2    -0.134370158811E+03   -0.65595E-04   -0.70285E-04  5433   0.543E-02    0.222E-02
RMM:   3    -0.134370147924E+03    0.10887E-04   -0.25471E-05  2487   0.173E-02    0.163E-02
RMM:   4    -0.134370145710E+03    0.22139E-05   -0.11119E-05  2270   0.167E-02
 283 F= -.13437015E+03 E0= -.13436595E+03  d E =0.267934E-03
quench:  g(F)=  0.000E+00 g(S)=  0.000E+00 dE (1.order)= 0.000E+00
 bond charge predicted
       N       E                     dE             d eps       ncg     rms          rms(c)
DAV:   1    -0.134369918693E+03    0.22923E-03   -0.61209E-03  4518   0.169E-01    0.205E-02
RMM:   2    -0.134369958242E+03   -0.39549E-04   -0.40658E-04  4801   0.417E-02    0.164E-02
RMM:   3    -0.134369950826E+03    0.74155E-05   -0.20317E-05  2394   0.163E-02
 284 F= -.13436995E+03 E0= -.13436574E+03  d E =0.194884E-03
quench:  g(F)=  0.000E+00 g(S)=  0.000E+00 dE (1.order)= 0.000E+00
 bond charge predicted
       N       E                     dE             d eps       ncg     rms          rms(c)
DAV:   1    -0.134369693039E+03    0.26520E-03   -0.64663E-03  4446   0.180E-01    0.208E-02
RMM:   2    -0.134369736697E+03   -0.43658E-04   -0.41055E-04  5019   0.435E-02    0.174E-02
RMM:   3    -0.134369728228E+03    0.84687E-05   -0.20645E-05  2406   0.161E-02
 285 F= -.13436973E+03 E0= -.13436553E+03  d E =0.222598E-03
quench:  g(F)=  0.000E+00 g(S)=  0.000E+00 dE (1.order)= 0.000E+00
 bond charge predicted
       N       E                     dE             d eps       ncg     rms          rms(c)
DAV:   1    -0.134369358805E+03    0.37789E-03   -0.96985E-03  4365   0.214E-01    0.251E-02
RMM:   2    -0.134369420621E+03   -0.61816E-04   -0.64314E-04  5477   0.540E-02    0.179E-02
RMM:   3    -0.134369408547E+03    0.12074E-04   -0.28462E-05  2472   0.170E-02    0.153E-02
RMM:   4    -0.134369408131E+03    0.41632E-06   -0.11599E-05  2235   0.170E-02
 286 F= -.13436941E+03 E0= -.13436520E+03  d E =0.320098E-03
quench:  g(F)=  0.000E+00 g(S)=  0.000E+00 dE (1.order)= 0.000E+00
 bond charge predicted
       N       E                     dE             d eps       ncg     rms          rms(c)
DAV:   1    -0.134369094541E+03    0.31401E-03   -0.11236E-02  4212   0.216E-01    0.291E-02
RMM:   2    -0.134369161542E+03   -0.67001E-04   -0.68369E-04  5641   0.542E-02    0.222E-02
RMM:   3    -0.134369147550E+03    0.13992E-04   -0.27643E-05  2509   0.174E-02    0.199E-02
RMM:   4    -0.134369141825E+03    0.57254E-05   -0.12058E-05  2253   0.181E-02
 287 F= -.13436914E+03 E0= -.13436493E+03  d E =0.266306E-03
quench:  g(F)=  0.000E+00 g(S)=  0.000E+00 dE (1.order)= 0.000E+00
 bond charge predicted
       N       E                     dE             d eps       ncg     rms          rms(c)
DAV:   1    -0.134368899208E+03    0.24834E-03   -0.68898E-03  4176   0.162E-01    0.215E-02
RMM:   2    -0.134368941475E+03   -0.42267E-04   -0.42889E-04  5056   0.445E-02    0.175E-02
RMM:   3    -0.134368933393E+03    0.80812E-05   -0.23507E-05  2383   0.175E-02
 288 F= -.13436893E+03 E0= -.13436472E+03  d E =0.208431E-03
quench:  g(F)=  0.000E+00 g(S)=  0.000E+00 dE (1.order)= 0.000E+00
 bond charge predicted
       N       E                     dE             d eps       ncg     rms          rms(c)
DAV:   1    -0.134368684212E+03    0.25726E-03   -0.65968E-03  4374   0.181E-01    0.213E-02
RMM:   2    -0.134368726031E+03   -0.41818E-04   -0.41371E-04  5048   0.449E-02    0.179E-02
RMM:   3    -0.134368721508E+03    0.45227E-05   -0.21534E-05  2411   0.163E-02
 289 F= -.13436872E+03 E0= -.13436451E+03  d E =0.211885E-03
quench:  g(F)=  0.000E+00 g(S)=  0.000E+00 dE (1.order)= 0.000E+00
 bond charge predicted
       N       E                     dE             d eps       ncg     rms          rms(c)
DAV:   1    -0.134368388627E+03    0.33740E-03   -0.84581E-03  4383   0.206E-01    0.238E-02
RMM:   2    -0.134368442511E+03   -0.53884E-04   -0.56639E-04  5264   0.499E-02    0.163E-02
RMM:   3    -0.134368431064E+03    0.11447E-04   -0.23566E-05  2433   0.159E-02    0.123E-02
RMM:   4    -0.134368430846E+03    0.21774E-06   -0.11003E-05  2170   0.168E-02
 290 F= -.13436843E+03 E0= -.13436422E+03  d E =0.290662E-03
quench:  g(F)=  0.000E+00 g(S)=  0.000E+00 dE (1.order)= 0.000E+00
 bond charge predicted
       N       E                     dE             d eps       ncg     rms          rms(c)
DAV:   1    -0.134368148434E+03    0.28263E-03   -0.96656E-03  4140   0.194E-01    0.269E-02
RMM:   2    -0.134368203649E+03   -0.55215E-04   -0.57796E-04  5472   0.503E-02    0.222E-02
RMM:   3    -0.134368197206E+03    0.64428E-05   -0.26452E-05  2488   0.175E-02
 291 F= -.13436820E+03 E0= -.13436398E+03  d E =0.233640E-03
quench:  g(F)=  0.000E+00 g(S)=  0.000E+00 dE (1.order)= 0.000E+00
 bond charge predicted
       N       E                     dE             d eps       ncg     rms          rms(c)
DAV:   1    -0.134367926268E+03    0.27738E-03   -0.69759E-03  4797   0.207E-01    0.210E-02
RMM:   2    -0.134367974507E+03   -0.48240E-04   -0.47796E-04  5007   0.436E-02    0.159E-02
RMM:   3    -0.134367966566E+03    0.79410E-05   -0.21140E-05  2441   0.151E-02
 292 F= -.13436797E+03 E0= -.13436375E+03  d E =0.230640E-03
quench:  g(F)=  0.000E+00 g(S)=  0.000E+00 dE (1.order)= 0.000E+00
 bond charge predicted
       N       E                     dE             d eps       ncg     rms          rms(c)
DAV:   1    -0.134367721791E+03    0.25272E-03   -0.68459E-03  4473   0.191E-01    0.226E-02
RMM:   2    -0.134367761534E+03   -0.39743E-04   -0.43384E-04  5077   0.432E-02    0.156E-02
RMM:   3    -0.134367754161E+03    0.73723E-05   -0.15086E-05  2315   0.136E-02
 293 F= -.13436775E+03 E0= -.13436354E+03  d E =0.212405E-03
quench:  g(F)=  0.000E+00 g(S)=  0.000E+00 dE (1.order)= 0.000E+00
 bond charge predicted
       N       E                     dE             d eps       ncg     rms          rms(c)
DAV:   1    -0.134367451851E+03    0.30968E-03   -0.78357E-03  4329   0.188E-01    0.231E-02
RMM:   2    -0.134367512104E+03   -0.60254E-04   -0.50140E-04  5367   0.485E-02    0.245E-02
RMM:   3    -0.134367493665E+03    0.18440E-04   -0.30376E-05  2496   0.186E-02    0.189E-02
RMM:   4    -0.134367489231E+03    0.44337E-05   -0.11556E-05  2171   0.179E-02
 294 F= -.13436749E+03 E0= -.13436327E+03  d E =0.264930E-03
quench:  g(F)=  0.000E+00 g(S)=  0.000E+00 dE (1.order)= 0.000E+00
 bond charge predicted
       N       E                     dE             d eps       ncg     rms          rms(c)
DAV:   1    -0.134367191541E+03    0.30212E-03   -0.97759E-03  4131   0.187E-01    0.261E-02
RMM:   2    -0.134367240079E+03   -0.48537E-04   -0.53175E-04  5510   0.483E-02    0.188E-02
RMM:   3    -0.134367230944E+03    0.91351E-05   -0.19116E-05  2383   0.137E-02
 295 F= -.13436723E+03 E0= -.13436301E+03  d E =0.258287E-03
quench:  g(F)=  0.000E+00 g(S)=  0.000E+00 dE (1.order)= 0.000E+00
 bond charge predicted
       N       E                     dE             d eps       ncg     rms          rms(c)
DAV:   1    -0.134366931014E+03    0.30906E-03   -0.84884E-03  4383   0.198E-01    0.239E-02
RMM:   2    -0.134367001208E+03   -0.70194E-04   -0.56177E-04  5354   0.505E-02    0.278E-02
RMM:   3    -0.134366975227E+03    0.25981E-04   -0.30832E-05  2539   0.191E-02    0.188E-02
RMM:   4    -0.134366971212E+03    0.40149E-05   -0.12605E-05  2174   0.184E-02
 296 F= -.13436697E+03 E0= -.13436275E+03  d E =0.259732E-03
quench:  g(F)=  0.000E+00 g(S)=  0.000E+00 dE (1.order)= 0.000E+00
 bond charge predicted
       N       E                     dE             d eps       ncg     rms          rms(c)
DAV:   1    -0.134366731846E+03    0.24338E-03   -0.76332E-03  4140   0.164E-01    0.234E-02
RMM:   2    -0.134366770673E+03   -0.38827E-04   -0.42517E-04  5216   0.431E-02    0.175E-02
RMM:   3    -0.134366763517E+03    0.71561E-05   -0.16568E-05  2341   0.136E-02
 297 F= -.13436676E+03 E0= -.13436254E+03  d E =0.207695E-03
quench:  g(F)=  0.000E+00 g(S)=  0.000E+00 dE (1.order)= 0.000E+00
 bond charge predicted
       N       E                     dE             d eps       ncg     rms          rms(c)
DAV:   1    -0.134366477416E+03    0.29326E-03   -0.72898E-03  4392   0.187E-01    0.219E-02
RMM:   2    -0.134366536545E+03   -0.59130E-04   -0.47596E-04  5252   0.473E-02    0.243E-02
RMM:   3    -0.134366516563E+03    0.19982E-04   -0.28767E-05  2472   0.182E-02    0.178E-02
RMM:   4    -0.134366512732E+03    0.38314E-05   -0.10946E-05  2168   0.174E-02
 298 F= -.13436651E+03 E0= -.13436229E+03  d E =0.250785E-03
quench:  g(F)=  0.000E+00 g(S)=  0.000E+00 dE (1.order)= 0.000E+00
 bond charge predicted
       N       E                     dE             d eps       ncg     rms          rms(c)
DAV:   1    -0.134366219225E+03    0.29734E-03   -0.93021E-03  4131   0.181E-01    0.251E-02
RMM:   2    -0.134366264171E+03   -0.44946E-04   -0.49067E-04  5366   0.466E-02    0.180E-02
RMM:   3    -0.134366259371E+03    0.47997E-05   -0.18539E-05  2440   0.140E-02
 299 F= -.13436626E+03 E0= -.13436203E+03  d E =0.253361E-03
quench:  g(F)=  0.000E+00 g(S)=  0.000E+00 dE (1.order)= 0.000E+00
 bond charge predicted
       N       E                     dE             d eps       ncg     rms          rms(c)
DAV:   1    -0.134365928172E+03    0.33600E-03   -0.93477E-03  4320   0.213E-01    0.247E-02
RMM:   2    -0.134366001423E+03   -0.73251E-04   -0.62001E-04  5449   0.523E-02    0.258E-02
RMM:   3    -0.134365978794E+03    0.22629E-04   -0.33197E-05  2574   0.192E-02    0.208E-02
RMM:   4    -0.134365973209E+03    0.55848E-05   -0.13500E-05  2181   0.192E-02
 300 F= -.13436597E+03 E0= -.13436175E+03  d E =0.286162E-03
quench:  g(F)=  0.000E+00 g(S)=  0.000E+00 dE (1.order)= 0.000E+00
 bond charge predicted
       N       E                     dE             d eps       ncg     rms          rms(c)
DAV:   1    -0.134365721761E+03    0.25703E-03   -0.86883E-03  4149   0.174E-01    0.250E-02
RMM:   2    -0.134365765298E+03   -0.43537E-04   -0.47791E-04  5335   0.455E-02    0.186E-02
RMM:   3    -0.134365757522E+03    0.77763E-05   -0.18466E-05  2377   0.140E-02
 301 F= -.13436576E+03 E0= -.13436153E+03  d E =0.215687E-03
quench:  g(F)=  0.000E+00 g(S)=  0.000E+00 dE (1.order)= 0.000E+00
 bond charge predicted
       N       E                     dE             d eps       ncg     rms          rms(c)
DAV:   1    -0.134365494594E+03    0.27070E-03   -0.68442E-03  4572   0.188E-01    0.215E-02
RMM:   2    -0.134365554785E+03   -0.60190E-04   -0.46286E-04  5123   0.462E-02    0.262E-02
RMM:   3    -0.134365530982E+03    0.23803E-04   -0.26265E-05  2466   0.181E-02    0.168E-02
RMM:   4    -0.134365527974E+03    0.30079E-05   -0.10701E-05  2169   0.170E-02
 302 F= -.13436553E+03 E0= -.13436130E+03  d E =0.229548E-03
quench:  g(F)=  0.000E+00 g(S)=  0.000E+00 dE (1.order)= 0.000E+00
 bond charge predicted
       N       E                     dE             d eps       ncg     rms          rms(c)
DAV:   1    -0.134365259831E+03    0.27115E-03   -0.81093E-03  4122   0.170E-01    0.235E-02
RMM:   2    -0.134365298885E+03   -0.39054E-04   -0.42553E-04  5202   0.437E-02    0.168E-02
RMM:   3    -0.134365295460E+03    0.34255E-05   -0.16671E-05  2414   0.138E-02
 303 F= -.13436530E+03 E0= -.13436106E+03  d E =0.232514E-03
quench:  g(F)=  0.000E+00 g(S)=  0.000E+00 dE (1.order)= 0.000E+00
 bond charge predicted
       N       E                     dE             d eps       ncg     rms          rms(c)
DAV:   1    -0.134364959835E+03    0.33905E-03   -0.90437E-03  4266   0.209E-01    0.243E-02
RMM:   2    -0.134365027850E+03   -0.68015E-04   -0.59392E-04  5472   0.515E-02    0.232E-02
RMM:   3    -0.134365010027E+03    0.17823E-04   -0.30367E-05  2534   0.186E-02    0.212E-02
RMM:   4    -0.134365003615E+03    0.64119E-05   -0.13322E-05  2180   0.193E-02
 304 F= -.13436500E+03 E0= -.13436077E+03  d E =0.291845E-03
quench:  g(F)=  0.000E+00 g(S)=  0.000E+00 dE (1.order)= 0.000E+00
 bond charge predicted
       N       E                     dE             d eps       ncg     rms          rms(c)
DAV:   1    -0.134364737699E+03    0.27233E-03   -0.91024E-03  4140   0.178E-01    0.256E-02
RMM:   2    -0.134364782575E+03   -0.44876E-04   -0.49422E-04  5379   0.464E-02    0.188E-02
RMM:   3    -0.134364774701E+03    0.78746E-05   -0.19002E-05  2386   0.142E-02
 305 F= -.13436477E+03 E0= -.13436054E+03  d E =0.228914E-03
quench:  g(F)=  0.000E+00 g(S)=  0.000E+00 dE (1.order)= 0.000E+00
 bond charge predicted
       N       E                     dE             d eps       ncg     rms          rms(c)
DAV:   1    -0.134364528917E+03    0.25366E-03   -0.63320E-03  4698   0.184E-01    0.210E-02
RMM:   2    -0.134364587271E+03   -0.58354E-04   -0.43213E-04  4974   0.448E-02    0.271E-02
RMM:   3    -0.134364562077E+03    0.25194E-04   -0.25458E-05  2451   0.180E-02    0.159E-02
RMM:   4    -0.134364559642E+03    0.24353E-05   -0.10442E-05  2175   0.165E-02
 306 F= -.13436456E+03 E0= -.13436032E+03  d E =0.215059E-03
quench:  g(F)=  0.000E+00 g(S)=  0.000E+00 dE (1.order)= 0.000E+00
 bond charge predicted
       N       E                     dE             d eps       ncg     rms          rms(c)
DAV:   1    -0.134364311678E+03    0.25040E-03   -0.70113E-03  4122   0.158E-01    0.219E-02
RMM:   2    -0.134364345688E+03   -0.34010E-04   -0.37028E-04  5036   0.410E-02    0.156E-02
RMM:   3    -0.134364340489E+03    0.51995E-05   -0.15101E-05  2318   0.137E-02
 307 F= -.13436434E+03 E0= -.13436010E+03  d E =0.219153E-03
quench:  g(F)=  0.000E+00 g(S)=  0.000E+00 dE (1.order)= 0.000E+00
 bond charge predicted
       N       E                     dE             d eps       ncg     rms          rms(c)
DAV:   1    -0.134364010217E+03    0.33547E-03   -0.87089E-03  4338   0.202E-01    0.238E-02
RMM:   2    -0.134364072905E+03   -0.62688E-04   -0.55759E-04  5483   0.505E-02    0.212E-02
RMM:   3    -0.134364058958E+03    0.13947E-04   -0.29075E-05  2509   0.181E-02    0.211E-02
RMM:   4    -0.134364052118E+03    0.68398E-05   -0.12716E-05  2179   0.191E-02
 308 F= -.13436405E+03 E0= -.13435981E+03  d E =0.288370E-03
quench:  g(F)=  0.000E+00 g(S)=  0.000E+00 dE (1.order)= 0.000E+00
 bond charge predicted
       N       E                     dE             d eps       ncg     rms          rms(c)
DAV:   1    -0.134363770264E+03    0.28869E-03   -0.95171E-03  4086   0.182E-01    0.261E-02
RMM:   2    -0.134363816970E+03   -0.46706E-04   -0.51426E-04  5427   0.472E-02    0.190E-02
RMM:   3    -0.134363808710E+03    0.82596E-05   -0.19308E-05  2391   0.142E-02
 309 F= -.13436381E+03 E0= -.13435957E+03  d E =0.243408E-03
quench:  g(F)=  0.000E+00 g(S)=  0.000E+00 dE (1.order)= 0.000E+00
 bond charge predicted
       N       E                     dE             d eps       ncg     rms          rms(c)
DAV:   1    -0.134363582790E+03    0.23418E-03   -0.58630E-03  4815   0.180E-01    0.205E-02
RMM:   2    -0.134363639182E+03   -0.56392E-04   -0.40229E-04  4846   0.435E-02    0.280E-02
RMM:   3    -0.134363613054E+03    0.26128E-04   -0.24849E-05  2438   0.180E-02    0.151E-02
RMM:   4    -0.134363611075E+03    0.19788E-05   -0.10143E-05  2180   0.160E-02
