 vasp.5.4.4.18Apr17-6-g9f103f2a35 (build Feb 06 2024 13:54:16) complex          
  
 POSCAR found type information on POSCAR  Cu Pd Cu N  O 
 02/POSCAR found :  5 types and      40 ions
 scaLAPACK will be used

 ----------------------------------------------------------------------------- 
|                                                                             |
|  ADVICE TO THIS USER RUNNING 'VASP/VAMP'   (HEAR YOUR MASTER'S VOICE ...):  |
|                                                                             |
|      You enforced a specific xc-type in the INCAR file,                     |
|      a different type was found on the POTCAR file                          |
|          I HOPE YOU KNOW, WHAT YOU ARE  DOING                               |
|                                                                             |
 ----------------------------------------------------------------------------- 

 LDA part: xc-table for Pade appr. of Perdew
 POSCAR found type information on POSCAR  Cu Pd Cu N  O 
 00/POSCAR found :  5 types and      40 ions
 POSCAR found type information on POSCAR  Cu Pd Cu N  O 
 06/POSCAR found :  5 types and      40 ions
 Jacobian:    20.5888137679208     
 POSCAR, INCAR and KPOINTS ok, starting setup
 FFT: planning ...
 WAVECAR not read
 entering main loop
       N       E                     dE             d eps       ncg     rms          rms(c)
DAV:   1     0.418775924834E+04    0.41878E+04   -0.17842E+05  4032   0.203E+03
DAV:   2     0.613879142343E+03   -0.35739E+04   -0.34450E+04  4032   0.460E+02
DAV:   3    -0.244209315114E+02   -0.63830E+03   -0.58522E+03  4671   0.232E+02
DAV:   4    -0.147142382957E+03   -0.12272E+03   -0.10754E+03  7290   0.927E+01
DAV:   5    -0.160078830068E+03   -0.12936E+02   -0.12772E+02  6210   0.300E+01    0.418E+01
RMM:   6    -0.153293874778E+03    0.67850E+01   -0.33178E+02  4104   0.904E+01    0.389E+01
RMM:   7    -0.152926596968E+03    0.36728E+00   -0.10455E+02  4173   0.420E+01    0.277E+01
RMM:   8    -0.141244704364E+03    0.11682E+02   -0.70358E+00  4101   0.107E+01    0.186E+01
RMM:   9    -0.139496591193E+03    0.17481E+01   -0.52489E+00  4113   0.979E+00    0.132E+01
RMM:  10    -0.134118349639E+03    0.53782E+01   -0.67974E+00  4110   0.722E+00    0.454E+00
RMM:  11    -0.133871638965E+03    0.24671E+00   -0.62599E-01  4179   0.252E+00    0.371E+00
RMM:  12    -0.133802920710E+03    0.68718E-01   -0.31084E-01  4124   0.202E+00    0.258E+00
RMM:  13    -0.133668402651E+03    0.13452E+00   -0.29490E-01  4142   0.191E+00    0.188E+00
RMM:  14    -0.133648847530E+03    0.19555E-01   -0.15323E-01  4186   0.111E+00    0.125E+00
RMM:  15    -0.133642292885E+03    0.65546E-02   -0.31406E-02  4561   0.488E-01    0.879E-01
RMM:  16    -0.133630197490E+03    0.12095E-01   -0.12394E-02  4792   0.263E-01    0.359E-01
RMM:  17    -0.133626615745E+03    0.35817E-02   -0.68940E-03  4136   0.253E-01    0.144E-01
RMM:  18    -0.133625849499E+03    0.76625E-03   -0.17039E-03  4243   0.147E-01    0.112E-01
RMM:  19    -0.133624898337E+03    0.95116E-03   -0.10473E-03  4764   0.775E-02    0.700E-02
RMM:  20    -0.133624860877E+03    0.37460E-04   -0.56030E-04  4386   0.526E-02    0.684E-02
RMM:  21    -0.133625077397E+03   -0.21652E-03   -0.21698E-04  4293   0.399E-02    0.563E-02
RMM:  22    -0.133625766801E+03   -0.68940E-03   -0.35832E-04  4076   0.357E-02    0.451E-02
RMM:  23    -0.133626087118E+03   -0.32032E-03   -0.95261E-05  3478   0.250E-02    0.234E-02
RMM:  24    -0.133626309349E+03   -0.22223E-03   -0.55072E-05  2823   0.193E-02    0.216E-02
RMM:  25    -0.133626453014E+03   -0.14366E-03   -0.38518E-05  2549   0.189E-02    0.276E-02
RMM:  26    -0.133626532985E+03   -0.79972E-04   -0.25381E-05  2486   0.175E-02    0.692E-03
RMM:  27    -0.133626566098E+03   -0.33112E-04   -0.12373E-05  2352   0.128E-02    0.518E-03
RMM:  28    -0.133626582379E+03   -0.16281E-04   -0.57481E-06  2315   0.953E-03    0.511E-03
RMM:  29    -0.133626588842E+03   -0.64636E-05   -0.35079E-06  2310   0.686E-03
   1 F= -.13362659E+03 E0= -.13362582E+03  d E =-.133627E+03
quench:  g(F)=  0.000E+00 g(S)=  0.000E+00 dE (1.order)= 0.000E+00
 bond charge predicted
       N       E                     dE             d eps       ncg     rms          rms(c)
DAV:   1    -0.133626597528E+03   -0.15149E-04   -0.29882E-04  4203   0.348E-02    0.404E-03
RMM:   2    -0.133626599039E+03   -0.15116E-05   -0.10929E-05  2341   0.101E-02
   2 F= -.13362660E+03 E0= -.13362583E+03  d E =-.101970E-04
quench:  g(F)=  0.000E+00 g(S)=  0.000E+00 dE (1.order)= 0.000E+00
 bond charge predicted
       N       E                     dE             d eps       ncg     rms          rms(c)
DAV:   1    -0.133626616537E+03   -0.19009E-04   -0.11235E-03  4338   0.709E-02    0.777E-03
RMM:   2    -0.133626622679E+03   -0.61418E-05   -0.53055E-05  2733   0.182E-02
   3 F= -.13362662E+03 E0= -.13362585E+03  d E =-.236391E-04
quench:  g(F)=  0.000E+00 g(S)=  0.000E+00 dE (1.order)= 0.000E+00
 bond charge predicted
       N       E                     dE             d eps       ncg     rms          rms(c)
DAV:   1    -0.133626641498E+03   -0.24961E-04   -0.23865E-03  4518   0.117E-01    0.122E-02
RMM:   2    -0.133626656238E+03   -0.14741E-04   -0.11895E-04  3377   0.267E-02    0.116E-02
RMM:   3    -0.133626652004E+03    0.42345E-05   -0.11114E-05  2243   0.145E-02
   4 F= -.13362665E+03 E0= -.13362589E+03  d E =-.293252E-04
quench:  g(F)=  0.000E+00 g(S)=  0.000E+00 dE (1.order)= 0.000E+00
 bond charge predicted
       N       E                     dE             d eps       ncg     rms          rms(c)
DAV:   1    -0.133626677799E+03   -0.21561E-04   -0.41667E-03  4266   0.134E-01    0.155E-02
RMM:   2    -0.133626696742E+03   -0.18943E-04   -0.19728E-04  3800   0.322E-02    0.107E-02
RMM:   3    -0.133626694010E+03    0.27328E-05   -0.11074E-05  2193   0.149E-02
   5 F= -.13362669E+03 E0= -.13362593E+03  d E =-.420058E-04
quench:  g(F)=  0.000E+00 g(S)=  0.000E+00 dE (1.order)= 0.000E+00
 bond charge predicted
       N       E                     dE             d eps       ncg     rms          rms(c)
DAV:   1    -0.133626719020E+03   -0.22278E-04   -0.64831E-03  4356   0.175E-01    0.193E-02
RMM:   2    -0.133626752254E+03   -0.33234E-04   -0.32443E-04  4487   0.387E-02    0.143E-02
RMM:   3    -0.133626746987E+03    0.52667E-05   -0.14627E-05  2300   0.139E-02
   6 F= -.13362675E+03 E0= -.13362598E+03  d E =-.529776E-04
quench:  g(F)=  0.000E+00 g(S)=  0.000E+00 dE (1.order)= 0.000E+00
 bond charge predicted
       N       E                     dE             d eps       ncg     rms          rms(c)
DAV:   1    -0.133626763402E+03   -0.11148E-04   -0.91696E-03  4365   0.210E-01    0.236E-02
RMM:   2    -0.133626808835E+03   -0.45433E-04   -0.47559E-04  4836   0.470E-02    0.154E-02
RMM:   3    -0.133626798928E+03    0.99072E-05   -0.14915E-05  2205   0.131E-02
   7 F= -.13362680E+03 E0= -.13362603E+03  d E =-.519409E-04
quench:  g(F)=  0.000E+00 g(S)=  0.000E+00 dE (1.order)= 0.000E+00
 bond charge predicted
       N       E                     dE             d eps       ncg     rms          rms(c)
DAV:   1    -0.133626823165E+03   -0.14330E-04   -0.12385E-02  4203   0.229E-01    0.266E-02
RMM:   2    -0.133626889484E+03   -0.66319E-04   -0.59211E-04  5213   0.531E-02    0.212E-02
RMM:   3    -0.133626873476E+03    0.16008E-04   -0.31227E-05  2518   0.185E-02    0.201E-02
RMM:   4    -0.133626867133E+03    0.63434E-05   -0.12985E-05  2201   0.199E-02
   8 F= -.13362687E+03 E0= -.13362610E+03  d E =-.682046E-04
quench:  g(F)=  0.000E+00 g(S)=  0.000E+00 dE (1.order)= 0.000E+00
 bond charge predicted
       N       E                     dE             d eps       ncg     rms          rms(c)
DAV:   1    -0.133626900200E+03   -0.26724E-04   -0.16336E-02  4194   0.243E-01    0.284E-02
RMM:   2    -0.133626964289E+03   -0.64088E-04   -0.66459E-04  5361   0.519E-02    0.195E-02
RMM:   3    -0.133626954729E+03    0.95596E-05   -0.26742E-05  2498   0.163E-02
   9 F= -.13362695E+03 E0= -.13362619E+03  d E =-.875965E-04
quench:  g(F)=  0.000E+00 g(S)=  0.000E+00 dE (1.order)= 0.000E+00
 bond charge predicted
       N       E                     dE             d eps       ncg     rms          rms(c)
DAV:   1    -0.133626960068E+03    0.42208E-05   -0.20607E-02  4167   0.308E-01    0.348E-02
RMM:   2    -0.133627063687E+03   -0.10362E-03   -0.10399E-03  5566   0.680E-02    0.220E-02
RMM:   3    -0.133627045867E+03    0.17821E-04   -0.37865E-05  2629   0.163E-02    0.229E-02
RMM:   4    -0.133627037927E+03    0.79396E-05   -0.17991E-05  2266   0.223E-02
  10 F= -.13362704E+03 E0= -.13362628E+03  d E =-.831977E-04
quench:  g(F)=  0.000E+00 g(S)=  0.000E+00 dE (1.order)= 0.000E+00
 bond charge predicted
       N       E                     dE             d eps       ncg     rms          rms(c)
DAV:   1    -0.133627060682E+03   -0.14816E-04   -0.25141E-02  4149   0.300E-01    0.343E-02
RMM:   2    -0.133627159716E+03   -0.99034E-04   -0.10246E-03  5446   0.665E-02    0.243E-02
RMM:   3    -0.133627146475E+03    0.13241E-04   -0.48947E-05  2809   0.253E-02    0.229E-02
RMM:   4    -0.133627134592E+03    0.11883E-04   -0.13762E-05  2275   0.195E-02    0.119E-02
RMM:   5    -0.133627136797E+03   -0.22047E-05   -0.78824E-06  2292   0.113E-02
  11 F= -.13362714E+03 E0= -.13362638E+03  d E =-.988701E-04
quench:  g(F)=  0.000E+00 g(S)=  0.000E+00 dE (1.order)= 0.000E+00
 bond charge predicted
       N       E                     dE             d eps       ncg     rms          rms(c)
DAV:   1    -0.133627147330E+03   -0.12738E-04   -0.29976E-02  4086   0.328E-01    0.366E-02
RMM:   2    -0.133627273497E+03   -0.12617E-03   -0.13296E-03  5734   0.726E-02    0.235E-02
RMM:   3    -0.133627250570E+03    0.22927E-04   -0.45080E-05  2717   0.191E-02    0.186E-02
RMM:   4    -0.133627247203E+03    0.33666E-05   -0.14224E-05  2279   0.190E-02
  12 F= -.13362725E+03 E0= -.13362649E+03  d E =-.110406E-03
quench:  g(F)=  0.000E+00 g(S)=  0.000E+00 dE (1.order)= 0.000E+00
 bond charge predicted
       N       E                     dE             d eps       ncg     rms          rms(c)
DAV:   1    -0.133627226598E+03    0.23972E-04   -0.30939E-02  4086   0.351E-01    0.395E-02
RMM:   2    -0.133627372518E+03   -0.14592E-03   -0.15635E-03  5730   0.828E-02    0.248E-02
RMM:   3    -0.133627340409E+03    0.32108E-04   -0.48406E-05  2821   0.182E-02    0.182E-02
RMM:   4    -0.133627343488E+03   -0.30786E-05   -0.19435E-05  2294   0.215E-02
  13 F= -.13362734E+03 E0= -.13362659E+03  d E =-.962848E-04
quench:  g(F)=  0.000E+00 g(S)=  0.000E+00 dE (1.order)= 0.000E+00
 bond charge predicted
       N       E                     dE             d eps       ncg     rms          rms(c)
DAV:   1    -0.133627334421E+03    0.59885E-05   -0.18772E-02  4347   0.286E-01    0.353E-02
RMM:   2    -0.133627443373E+03   -0.10895E-03   -0.11968E-03  5364   0.701E-02    0.292E-02
RMM:   3    -0.133627414806E+03    0.28566E-04   -0.50199E-05  2851   0.208E-02    0.208E-02
RMM:   4    -0.133627411469E+03    0.33372E-05   -0.18031E-05  2293   0.203E-02
  14 F= -.13362741E+03 E0= -.13362666E+03  d E =-.679813E-04
quench:  g(F)=  0.000E+00 g(S)=  0.000E+00 dE (1.order)= 0.000E+00
 bond charge predicted
       N       E                     dE             d eps       ncg     rms          rms(c)
DAV:   1    -0.133627447163E+03   -0.32356E-04   -0.53369E-03  4671   0.178E-01    0.191E-02
RMM:   2    -0.133627482049E+03   -0.34887E-04   -0.34667E-04  4381   0.407E-02    0.172E-02
RMM:   3    -0.133627473572E+03    0.84774E-05   -0.18893E-05  2343   0.171E-02
  15 F= -.13362747E+03 E0= -.13362672E+03  d E =-.621027E-04
quench:  g(F)=  0.000E+00 g(S)=  0.000E+00 dE (1.order)= 0.000E+00
 bond charge predicted
       N       E                     dE             d eps       ncg     rms          rms(c)
DAV:   1    -0.133627496742E+03   -0.14693E-04   -0.48353E-03  4455   0.161E-01    0.181E-02
RMM:   2    -0.133627523028E+03   -0.26285E-04   -0.25595E-04  4059   0.355E-02    0.120E-02
RMM:   3    -0.133627519249E+03    0.37790E-05   -0.12142E-05  2244   0.143E-02
  16 F= -.13362752E+03 E0= -.13362677E+03  d E =-.456768E-04
quench:  g(F)=  0.000E+00 g(S)=  0.000E+00 dE (1.order)= 0.000E+00
 bond charge predicted
       N       E                     dE             d eps       ncg     rms          rms(c)
DAV:   1    -0.133627542138E+03   -0.19111E-04   -0.70348E-03  4356   0.182E-01    0.206E-02
RMM:   2    -0.133627578441E+03   -0.36303E-04   -0.36473E-04  4549   0.415E-02    0.144E-02
RMM:   3    -0.133627572678E+03    0.57630E-05   -0.14705E-05  2298   0.140E-02
  17 F= -.13362757E+03 E0= -.13362682E+03  d E =-.534296E-04
quench:  g(F)=  0.000E+00 g(S)=  0.000E+00 dE (1.order)= 0.000E+00
 bond charge predicted
       N       E                     dE             d eps       ncg     rms          rms(c)
DAV:   1    -0.133627588220E+03   -0.97787E-05   -0.95892E-03  4329   0.219E-01    0.244E-02
RMM:   2    -0.133627636707E+03   -0.48487E-04   -0.50795E-04  4871   0.484E-02    0.159E-02
RMM:   3    -0.133627626162E+03    0.10544E-04   -0.14564E-05  2289   0.133E-02    0.125E-02
RMM:   4    -0.133627627427E+03   -0.12641E-05   -0.10425E-05  2227   0.167E-02
  18 F= -.13362763E+03 E0= -.13362688E+03  d E =-.547483E-04
quench:  g(F)=  0.000E+00 g(S)=  0.000E+00 dE (1.order)= 0.000E+00
 bond charge predicted
       N       E                     dE             d eps       ncg     rms          rms(c)
DAV:   1    -0.133627648664E+03   -0.22502E-04   -0.12757E-02  4050   0.230E-01    0.249E-02
RMM:   2    -0.133627705155E+03   -0.56491E-04   -0.59730E-04  5006   0.556E-02    0.157E-02
RMM:   3    -0.133627693555E+03    0.11600E-04   -0.24404E-05  2312   0.185E-02    0.124E-02
RMM:   4    -0.133627693274E+03    0.28146E-06   -0.11201E-05  2162   0.176E-02
  19 F= -.13362769E+03 E0= -.13362695E+03  d E =-.658472E-04
quench:  g(F)=  0.000E+00 g(S)=  0.000E+00 dE (1.order)= 0.000E+00
 bond charge predicted
       N       E                     dE             d eps       ncg     rms          rms(c)
DAV:   1    -0.133627711568E+03   -0.18013E-04   -0.16107E-02  4032   0.247E-01    0.279E-02
RMM:   2    -0.133627782839E+03   -0.71270E-04   -0.73849E-04  5271   0.584E-02    0.188E-02
RMM:   3    -0.133627769372E+03    0.13467E-04   -0.28881E-05  2461   0.192E-02    0.174E-02
RMM:   4    -0.133627765753E+03    0.36189E-05   -0.12804E-05  2223   0.191E-02
  20 F= -.13362777E+03 E0= -.13362702E+03  d E =-.724794E-04
quench:  g(F)=  0.000E+00 g(S)=  0.000E+00 dE (1.order)= 0.000E+00
 bond charge predicted
       N       E                     dE             d eps       ncg     rms          rms(c)
DAV:   1    -0.133627778372E+03   -0.89995E-05   -0.19587E-02  4032   0.273E-01    0.311E-02
RMM:   2    -0.133627860931E+03   -0.82559E-04   -0.87182E-04  5580   0.619E-02    0.186E-02
RMM:   3    -0.133627844072E+03    0.16858E-04   -0.24027E-05  2454   0.136E-02    0.135E-02
RMM:   4    -0.133627846225E+03   -0.21523E-05   -0.84641E-06  2255   0.131E-02
  21 F= -.13362785E+03 E0= -.13362711E+03  d E =-.804716E-04
quench:  g(F)=  0.000E+00 g(S)=  0.000E+00 dE (1.order)= 0.000E+00
 bond charge predicted
       N       E                     dE             d eps       ncg     rms          rms(c)
DAV:   1    -0.133627849225E+03   -0.51528E-05   -0.21223E-02  4077   0.299E-01    0.334E-02
RMM:   2    -0.133627952071E+03   -0.10285E-03   -0.10898E-03  5605   0.678E-02    0.222E-02
RMM:   3    -0.133627925879E+03    0.26192E-04   -0.32394E-05  2608   0.152E-02    0.165E-02
RMM:   4    -0.133627928422E+03   -0.25429E-05   -0.16341E-05  2270   0.208E-02
  22 F= -.13362793E+03 E0= -.13362719E+03  d E =-.821971E-04
quench:  g(F)=  0.000E+00 g(S)=  0.000E+00 dE (1.order)= 0.000E+00
 bond charge predicted
       N       E                     dE             d eps       ncg     rms          rms(c)
DAV:   1    -0.133627927897E+03   -0.20180E-05   -0.19278E-02  4086   0.277E-01    0.324E-02
RMM:   2    -0.133628023173E+03   -0.95276E-04   -0.10065E-03  5360   0.683E-02    0.229E-02
RMM:   3    -0.133628000519E+03    0.22654E-04   -0.38161E-05  2643   0.185E-02    0.160E-02
RMM:   4    -0.133628000344E+03    0.17582E-06   -0.13197E-05  2248   0.168E-02
  23 F= -.13362800E+03 E0= -.13362726E+03  d E =-.719216E-04
quench:  g(F)=  0.000E+00 g(S)=  0.000E+00 dE (1.order)= 0.000E+00
 bond charge predicted
       N       E                     dE             d eps       ncg     rms          rms(c)
DAV:   1    -0.133628017954E+03   -0.17434E-04   -0.11198E-02  4329   0.225E-01    0.272E-02
RMM:   2    -0.133628090565E+03   -0.72612E-04   -0.68894E-04  5041   0.549E-02    0.250E-02
RMM:   3    -0.133628066307E+03    0.24258E-04   -0.33795E-05  2583   0.203E-02    0.203E-02
RMM:   4    -0.133628059931E+03    0.63763E-05   -0.13660E-05  2205   0.193E-02
  24 F= -.13362806E+03 E0= -.13362732E+03  d E =-.595876E-04
quench:  g(F)=  0.000E+00 g(S)=  0.000E+00 dE (1.order)= 0.000E+00
 bond charge predicted
       N       E                     dE             d eps       ncg     rms          rms(c)
DAV:   1    -0.133628087062E+03   -0.20755E-04   -0.69227E-03  4122   0.155E-01    0.190E-02
RMM:   2    -0.133628117442E+03   -0.30380E-04   -0.31841E-04  4316   0.362E-02    0.141E-02
RMM:   3    -0.133628114175E+03    0.32675E-05   -0.15134E-05  2305   0.158E-02
  25 F= -.13362811E+03 E0= -.13362738E+03  d E =-.542435E-04
quench:  g(F)=  0.000E+00 g(S)=  0.000E+00 dE (1.order)= 0.000E+00
 bond charge predicted
       N       E                     dE             d eps       ncg     rms          rms(c)
DAV:   1    -0.133628128485E+03   -0.11043E-04   -0.66334E-03  4464   0.188E-01    0.204E-02
RMM:   2    -0.133628166054E+03   -0.37569E-04   -0.37798E-04  4542   0.403E-02    0.141E-02
RMM:   3    -0.133628158110E+03    0.79445E-05   -0.16880E-05  2328   0.134E-02
  26 F= -.13362816E+03 E0= -.13362742E+03  d E =-.439349E-04
quench:  g(F)=  0.000E+00 g(S)=  0.000E+00 dE (1.order)= 0.000E+00
 bond charge predicted
       N       E                     dE             d eps       ncg     rms          rms(c)
DAV:   1    -0.133628167289E+03   -0.12348E-05   -0.79696E-03  4293   0.202E-01    0.227E-02
RMM:   2    -0.133628209313E+03   -0.42024E-04   -0.44188E-04  4709   0.446E-02    0.147E-02
RMM:   3    -0.133628200645E+03    0.86678E-05   -0.14928E-05  2288   0.121E-02
  27 F= -.13362820E+03 E0= -.13362747E+03  d E =-.425352E-04
quench:  g(F)=  0.000E+00 g(S)=  0.000E+00 dE (1.order)= 0.000E+00
 bond charge predicted
       N       E                     dE             d eps       ncg     rms          rms(c)
DAV:   1    -0.133628208405E+03    0.90770E-06   -0.92221E-03  4194   0.209E-01    0.248E-02
RMM:   2    -0.133628266857E+03   -0.58452E-04   -0.51011E-04  4952   0.490E-02    0.225E-02
RMM:   3    -0.133628246348E+03    0.20509E-04   -0.29218E-05  2474   0.186E-02    0.187E-02
RMM:   4    -0.133628241418E+03    0.49298E-05   -0.12058E-05  2189   0.191E-02
  28 F= -.13362824E+03 E0= -.13362751E+03  d E =-.407732E-04
quench:  g(F)=  0.000E+00 g(S)=  0.000E+00 dE (1.order)= 0.000E+00
 bond charge predicted
       N       E                     dE             d eps       ncg     rms          rms(c)
DAV:   1    -0.133628253737E+03   -0.73891E-05   -0.10838E-02  4149   0.197E-01    0.240E-02
RMM:   2    -0.133628297813E+03   -0.44076E-04   -0.45669E-04  4963   0.438E-02    0.168E-02
RMM:   3    -0.133628292735E+03    0.50783E-05   -0.19648E-05  2396   0.152E-02
  29 F= -.13362829E+03 E0= -.13362756E+03  d E =-.513169E-04
quench:  g(F)=  0.000E+00 g(S)=  0.000E+00 dE (1.order)= 0.000E+00
 bond charge predicted
       N       E                     dE             d eps       ncg     rms          rms(c)
DAV:   1    -0.133628283753E+03    0.14060E-04   -0.12159E-02  4347   0.244E-01    0.283E-02
RMM:   2    -0.133628350518E+03   -0.66765E-04   -0.68248E-04  5268   0.541E-02    0.189E-02
RMM:   3    -0.133628336714E+03    0.13804E-04   -0.25365E-05  2448   0.149E-02    0.190E-02
RMM:   4    -0.133628330773E+03    0.59410E-05   -0.13552E-05  2223   0.197E-02
  30 F= -.13362833E+03 E0= -.13362760E+03  d E =-.380386E-04
quench:  g(F)=  0.000E+00 g(S)=  0.000E+00 dE (1.order)= 0.000E+00
 bond charge predicted
       N       E                     dE             d eps       ncg     rms          rms(c)
DAV:   1    -0.133628332142E+03    0.45728E-05   -0.13320E-02  4113   0.218E-01    0.263E-02
RMM:   2    -0.133628387867E+03   -0.55725E-04   -0.57907E-04  5078   0.505E-02    0.187E-02
RMM:   3    -0.133628381196E+03    0.66707E-05   -0.26410E-05  2415   0.201E-02
  31 F= -.13362838E+03 E0= -.13362765E+03  d E =-.504225E-04
quench:  g(F)=  0.000E+00 g(S)=  0.000E+00 dE (1.order)= 0.000E+00
 bond charge predicted
       N       E                     dE             d eps       ncg     rms          rms(c)
DAV:   1    -0.133628351870E+03    0.35996E-04   -0.12421E-02  4455   0.256E-01    0.297E-02
RMM:   2    -0.133628424968E+03   -0.73098E-04   -0.76789E-04  5278   0.557E-02    0.205E-02
RMM:   3    -0.133628407558E+03    0.17410E-04   -0.26577E-05  2526   0.135E-02    0.175E-02
RMM:   4    -0.133628404809E+03    0.27492E-05   -0.12558E-05  2233   0.181E-02
  32 F= -.13362840E+03 E0= -.13362768E+03  d E =-.236129E-04
quench:  g(F)=  0.000E+00 g(S)=  0.000E+00 dE (1.order)= 0.000E+00
 bond charge predicted
       N       E                     dE             d eps       ncg     rms          rms(c)
DAV:   1    -0.133628398495E+03    0.90630E-05   -0.10767E-02  4131   0.203E-01    0.248E-02
RMM:   2    -0.133628451516E+03   -0.53021E-04   -0.55697E-04  5045   0.505E-02    0.185E-02
RMM:   3    -0.133628442944E+03    0.85720E-05   -0.22345E-05  2379   0.179E-02
  33 F= -.13362844E+03 E0= -.13362772E+03  d E =-.381351E-04
quench:  g(F)=  0.000E+00 g(S)=  0.000E+00 dE (1.order)= 0.000E+00
 bond charge predicted
       N       E                     dE             d eps       ncg     rms          rms(c)
DAV:   1    -0.133628429896E+03    0.21620E-04   -0.83021E-03  4590   0.218E-01    0.245E-02
RMM:   2    -0.133628482739E+03   -0.52844E-04   -0.52604E-04  4874   0.459E-02    0.182E-02
RMM:   3    -0.133628470206E+03    0.12533E-04   -0.24070E-05  2412   0.157E-02    0.179E-02
RMM:   4    -0.133628464934E+03    0.52721E-05   -0.11261E-05  2196   0.180E-02
  34 F= -.13362846E+03 E0= -.13362774E+03  d E =-.219902E-04
quench:  g(F)=  0.000E+00 g(S)=  0.000E+00 dE (1.order)= 0.000E+00
 bond charge predicted
       N       E                     dE             d eps       ncg     rms          rms(c)
DAV:   1    -0.133628473067E+03   -0.28610E-05   -0.79086E-03  4104   0.168E-01    0.207E-02
RMM:   2    -0.133628507284E+03   -0.34216E-04   -0.35096E-04  4585   0.391E-02    0.153E-02
RMM:   3    -0.133628503857E+03    0.34267E-05   -0.17206E-05  2315   0.165E-02
  35 F= -.13362850E+03 E0= -.13362778E+03  d E =-.389228E-04
quench:  g(F)=  0.000E+00 g(S)=  0.000E+00 dE (1.order)= 0.000E+00
 bond charge predicted
       N       E                     dE             d eps       ncg     rms          rms(c)
DAV:   1    -0.133628495963E+03    0.11321E-04   -0.83606E-03  4437   0.209E-01    0.238E-02
RMM:   2    -0.133628543340E+03   -0.47377E-04   -0.49355E-04  4909   0.458E-02    0.153E-02
RMM:   3    -0.133628532305E+03    0.11036E-04   -0.17437E-05  2349   0.122E-02    0.136E-02
RMM:   4    -0.133628532251E+03    0.53864E-07   -0.83849E-06  2241   0.151E-02
  36 F= -.13362853E+03 E0= -.13362781E+03  d E =-.283940E-04
quench:  g(F)=  0.000E+00 g(S)=  0.000E+00 dE (1.order)= 0.000E+00
 bond charge predicted
       N       E                     dE             d eps       ncg     rms          rms(c)
DAV:   1    -0.133628534594E+03   -0.22887E-05   -0.99915E-03  4095   0.193E-01    0.230E-02
RMM:   2    -0.133628578719E+03   -0.44126E-04   -0.45994E-04  4820   0.475E-02    0.159E-02
RMM:   3    -0.133628571741E+03    0.69790E-05   -0.20500E-05  2318   0.189E-02
  37 F= -.13362857E+03 E0= -.13362785E+03  d E =-.394895E-04
quench:  g(F)=  0.000E+00 g(S)=  0.000E+00 dE (1.order)= 0.000E+00
 bond charge predicted
       N       E                     dE             d eps       ncg     rms          rms(c)
DAV:   1    -0.133628554580E+03    0.24139E-04   -0.11231E-02  4302   0.238E-01    0.273E-02
RMM:   2    -0.133628617322E+03   -0.62742E-04   -0.65181E-04  5181   0.528E-02    0.177E-02
RMM:   3    -0.133628604018E+03    0.13303E-04   -0.26928E-05  2446   0.132E-02    0.169E-02
RMM:   4    -0.133628601536E+03    0.24819E-05   -0.10783E-05  2244   0.171E-02
  38 F= -.13362860E+03 E0= -.13362788E+03  d E =-.297960E-04
quench:  g(F)=  0.000E+00 g(S)=  0.000E+00 dE (1.order)= 0.000E+00
 bond charge predicted
       N       E                     dE             d eps       ncg     rms          rms(c)
DAV:   1    -0.133628602803E+03    0.12157E-05   -0.12549E-02  4032   0.216E-01    0.260E-02
RMM:   2    -0.133628658794E+03   -0.55991E-04   -0.58340E-04  5169   0.516E-02    0.183E-02
RMM:   3    -0.133628649020E+03    0.97744E-05   -0.23488E-05  2400   0.180E-02
  39 F= -.13362865E+03 E0= -.13362793E+03  d E =-.474832E-04
quench:  g(F)=  0.000E+00 g(S)=  0.000E+00 dE (1.order)= 0.000E+00
 bond charge predicted
       N       E                     dE             d eps       ncg     rms          rms(c)
DAV:   1    -0.133628629427E+03    0.29367E-04   -0.12323E-02  4329   0.252E-01    0.292E-02
RMM:   2    -0.133628701138E+03   -0.71711E-04   -0.73680E-04  5269   0.551E-02    0.201E-02
RMM:   3    -0.133628685404E+03    0.15734E-04   -0.28723E-05  2495   0.152E-02    0.195E-02
RMM:   4    -0.133628679471E+03    0.59333E-05   -0.13925E-05  2223   0.197E-02
  40 F= -.13362868E+03 E0= -.13362797E+03  d E =-.304511E-04
quench:  g(F)=  0.000E+00 g(S)=  0.000E+00 dE (1.order)= 0.000E+00
 bond charge predicted
       N       E                     dE             d eps       ncg     rms          rms(c)
DAV:   1    -0.133628682017E+03    0.33874E-05   -0.11795E-02  4149   0.206E-01    0.255E-02
RMM:   2    -0.133628734718E+03   -0.52701E-04   -0.54915E-04  5021   0.495E-02    0.188E-02
RMM:   3    -0.133628727294E+03    0.74241E-05   -0.23952E-05  2381   0.191E-02
  41 F= -.13362873E+03 E0= -.13362802E+03  d E =-.478230E-04
quench:  g(F)=  0.000E+00 g(S)=  0.000E+00 dE (1.order)= 0.000E+00
 bond charge predicted
       N       E                     dE             d eps       ncg     rms          rms(c)
DAV:   1    -0.133628710941E+03    0.23777E-04   -0.10121E-02  4491   0.237E-01    0.269E-02
RMM:   2    -0.133628772117E+03   -0.61176E-04   -0.63196E-04  5108   0.505E-02    0.186E-02
RMM:   3    -0.133628758381E+03    0.13736E-04   -0.25456E-05  2456   0.143E-02    0.175E-02
RMM:   4    -0.133628754009E+03    0.43719E-05   -0.11662E-05  2218   0.180E-02
  42 F= -.13362875E+03 E0= -.13362804E+03  d E =-.267151E-04
quench:  g(F)=  0.000E+00 g(S)=  0.000E+00 dE (1.order)= 0.000E+00
 bond charge predicted
       N       E                     dE             d eps       ncg     rms          rms(c)
DAV:   1    -0.133628763531E+03   -0.51507E-05   -0.97934E-03  4122   0.189E-01    0.232E-02
RMM:   2    -0.133628807481E+03   -0.43950E-04   -0.45737E-04  4830   0.460E-02    0.169E-02
RMM:   3    -0.133628801764E+03    0.57171E-05   -0.20212E-05  2339   0.177E-02
  43 F= -.13362880E+03 E0= -.13362809E+03  d E =-.477551E-04
quench:  g(F)=  0.000E+00 g(S)=  0.000E+00 dE (1.order)= 0.000E+00
 bond charge predicted
       N       E                     dE             d eps       ncg     rms          rms(c)
DAV:   1    -0.133628793603E+03    0.13878E-04   -0.98053E-03  4437   0.228E-01    0.260E-02
RMM:   2    -0.133628850049E+03   -0.56446E-04   -0.58356E-04  5055   0.494E-02    0.172E-02
RMM:   3    -0.133628837750E+03    0.12299E-04   -0.22661E-05  2411   0.137E-02    0.166E-02
RMM:   4    -0.133628835370E+03    0.23798E-05   -0.10811E-05  2243   0.174E-02
  44 F= -.13362884E+03 E0= -.13362813E+03  d E =-.336059E-04
quench:  g(F)=  0.000E+00 g(S)=  0.000E+00 dE (1.order)= 0.000E+00
 bond charge predicted
       N       E                     dE             d eps       ncg     rms          rms(c)
DAV:   1    -0.133628847105E+03   -0.93550E-05   -0.10901E-02  4086   0.199E-01    0.241E-02
RMM:   2    -0.133628894421E+03   -0.47316E-04   -0.49230E-04  4915   0.476E-02    0.172E-02
RMM:   3    -0.133628886818E+03    0.76024E-05   -0.21815E-05  2345   0.186E-02
  45 F= -.13362889E+03 E0= -.13362818E+03  d E =-.514486E-04
quench:  g(F)=  0.000E+00 g(S)=  0.000E+00 dE (1.order)= 0.000E+00
 bond charge predicted
       N       E                     dE             d eps       ncg     rms          rms(c)
DAV:   1    -0.133628878328E+03    0.16092E-04   -0.11086E-02  4338   0.240E-01    0.275E-02
RMM:   2    -0.133628941440E+03   -0.63111E-04   -0.65925E-04  5159   0.523E-02    0.183E-02
RMM:   3    -0.133628927185E+03    0.14254E-04   -0.23938E-05  2449   0.133E-02    0.167E-02
RMM:   4    -0.133628925534E+03    0.16515E-05   -0.11247E-05  2248   0.175E-02
  46 F= -.13362893E+03 E0= -.13362822E+03  d E =-.387155E-04
quench:  g(F)=  0.000E+00 g(S)=  0.000E+00 dE (1.order)= 0.000E+00
 bond charge predicted
       N       E                     dE             d eps       ncg     rms          rms(c)
DAV:   1    -0.133628935986E+03   -0.88006E-05   -0.11527E-02  4032   0.207E-01    0.248E-02
RMM:   2    -0.133628988138E+03   -0.52152E-04   -0.54490E-04  5001   0.505E-02    0.180E-02
RMM:   3    -0.133628978925E+03    0.92132E-05   -0.22830E-05  2366   0.188E-02
  47 F= -.13362898E+03 E0= -.13362828E+03  d E =-.533907E-04
quench:  g(F)=  0.000E+00 g(S)=  0.000E+00 dE (1.order)= 0.000E+00
 bond charge predicted
       N       E                     dE             d eps       ncg     rms          rms(c)
DAV:   1    -0.133628967300E+03    0.20838E-04   -0.10746E-02  4365   0.239E-01    0.273E-02
RMM:   2    -0.133629030595E+03   -0.63295E-04   -0.65291E-04  5144   0.517E-02    0.188E-02
RMM:   3    -0.133629016673E+03    0.13922E-04   -0.26138E-05  2459   0.144E-02    0.180E-02
RMM:   4    -0.133629013498E+03    0.31747E-05   -0.12113E-05  2244   0.184E-02
  48 F= -.13362901E+03 E0= -.13362831E+03  d E =-.345736E-04
quench:  g(F)=  0.000E+00 g(S)=  0.000E+00 dE (1.order)= 0.000E+00
 bond charge predicted
       N       E                     dE             d eps       ncg     rms          rms(c)
DAV:   1    -0.133629021365E+03   -0.46922E-05   -0.10514E-02  4032   0.195E-01    0.239E-02
RMM:   2    -0.133629067890E+03   -0.46525E-04   -0.48526E-04  4876   0.470E-02    0.175E-02
RMM:   3    -0.133629059917E+03    0.79735E-05   -0.21201E-05  2347   0.179E-02
  49 F= -.13362906E+03 E0= -.13362836E+03  d E =-.464183E-04
quench:  g(F)=  0.000E+00 g(S)=  0.000E+00 dE (1.order)= 0.000E+00
 bond charge predicted
       N       E                     dE             d eps       ncg     rms          rms(c)
DAV:   1    -0.133629045070E+03    0.22820E-04   -0.96181E-03  4365   0.227E-01    0.260E-02
RMM:   2    -0.133629102129E+03   -0.57059E-04   -0.58856E-04  5057   0.492E-02    0.177E-02
RMM:   3    -0.133629089706E+03    0.12423E-04   -0.24231E-05  2436   0.143E-02    0.171E-02
RMM:   4    -0.133629085249E+03    0.44573E-05   -0.11145E-05  2212   0.177E-02
  50 F= -.13362909E+03 E0= -.13362839E+03  d E =-.253323E-04
quench:  g(F)=  0.000E+00 g(S)=  0.000E+00 dE (1.order)= 0.000E+00
 bond charge predicted
       N       E                     dE             d eps       ncg     rms          rms(c)
DAV:   1    -0.133629090955E+03   -0.12491E-05   -0.98059E-03  4149   0.188E-01    0.231E-02
RMM:   2    -0.133629133731E+03   -0.42776E-04   -0.44554E-04  4800   0.453E-02    0.167E-02
RMM:   3    -0.133629128679E+03    0.50521E-05   -0.20351E-05  2339   0.180E-02
  51 F= -.13362913E+03 E0= -.13362843E+03  d E =-.434301E-04
quench:  g(F)=  0.000E+00 g(S)=  0.000E+00 dE (1.order)= 0.000E+00
 bond charge predicted
       N       E                     dE             d eps       ncg     rms          rms(c)
DAV:   1    -0.133629118826E+03    0.14905E-04   -0.99110E-03  4446   0.229E-01    0.261E-02
RMM:   2    -0.133629175691E+03   -0.56865E-04   -0.59152E-04  5086   0.497E-02    0.172E-02
RMM:   3    -0.133629163014E+03    0.12677E-04   -0.21898E-05  2418   0.131E-02    0.159E-02
RMM:   4    -0.133629161458E+03    0.15563E-05   -0.10324E-05  2243   0.168E-02
  52 F= -.13362916E+03 E0= -.13362847E+03  d E =-.327789E-04
quench:  g(F)=  0.000E+00 g(S)=  0.000E+00 dE (1.order)= 0.000E+00
 bond charge predicted
       N       E                     dE             d eps       ncg     rms          rms(c)
DAV:   1    -0.133629172316E+03   -0.93022E-05   -0.10773E-02  4068   0.200E-01    0.239E-02
RMM:   2    -0.133629220053E+03   -0.47737E-04   -0.49707E-04  4904   0.484E-02    0.171E-02
RMM:   3    -0.133629212022E+03    0.80315E-05   -0.21249E-05  2338   0.185E-02
  53 F= -.13362921E+03 E0= -.13362852E+03  d E =-.505638E-04
quench:  g(F)=  0.000E+00 g(S)=  0.000E+00 dE (1.order)= 0.000E+00
 bond charge predicted
       N       E                     dE             d eps       ncg     rms          rms(c)
DAV:   1    -0.133629204765E+03    0.15288E-04   -0.11042E-02  4329   0.239E-01    0.273E-02
RMM:   2    -0.133629267556E+03   -0.62792E-04   -0.65153E-04  5159   0.522E-02    0.181E-02
RMM:   3    -0.133629253884E+03    0.13673E-04   -0.25349E-05  2448   0.137E-02    0.172E-02
RMM:   4    -0.133629251379E+03    0.25051E-05   -0.11404E-05  2245   0.177E-02
  54 F= -.13362925E+03 E0= -.13362856E+03  d E =-.393569E-04
quench:  g(F)=  0.000E+00 g(S)=  0.000E+00 dE (1.order)= 0.000E+00
 bond charge predicted
       N       E                     dE             d eps       ncg     rms          rms(c)
DAV:   1    -0.133629262132E+03   -0.82483E-05   -0.11507E-02  4041   0.205E-01    0.248E-02
RMM:   2    -0.133629313361E+03   -0.51229E-04   -0.53410E-04  4994   0.495E-02    0.179E-02
RMM:   3    -0.133629304461E+03    0.88996E-05   -0.22546E-05  2363   0.185E-02
  55 F= -.13362930E+03 E0= -.13362862E+03  d E =-.530825E-04
quench:  g(F)=  0.000E+00 g(S)=  0.000E+00 dE (1.order)= 0.000E+00
 bond charge predicted
       N       E                     dE             d eps       ncg     rms          rms(c)
DAV:   1    -0.133629297382E+03    0.15979E-04   -0.10842E-02  4365   0.240E-01    0.273E-02
RMM:   2    -0.133629360822E+03   -0.63440E-04   -0.65517E-04  5151   0.518E-02    0.187E-02
RMM:   3    -0.133629346742E+03    0.14080E-04   -0.25136E-05  2456   0.143E-02    0.178E-02
RMM:   4    -0.133629343808E+03    0.29343E-05   -0.12017E-05  2246   0.183E-02
  56 F= -.13362934E+03 E0= -.13362866E+03  d E =-.393468E-04
quench:  g(F)=  0.000E+00 g(S)=  0.000E+00 dE (1.order)= 0.000E+00
 bond charge predicted
       N       E                     dE             d eps       ncg     rms          rms(c)
DAV:   1    -0.133629357212E+03   -0.10470E-04   -0.10635E-02  4032   0.197E-01    0.239E-02
RMM:   2    -0.133629404494E+03   -0.47281E-04   -0.49258E-04  4905   0.475E-02    0.175E-02
RMM:   3    -0.133629396349E+03    0.81444E-05   -0.21337E-05  2347   0.182E-02
  57 F= -.13362940E+03 E0= -.13362871E+03  d E =-.525415E-04
quench:  g(F)=  0.000E+00 g(S)=  0.000E+00 dE (1.order)= 0.000E+00
 bond charge predicted
       N       E                     dE             d eps       ncg     rms          rms(c)
DAV:   1    -0.133629390455E+03    0.14039E-04   -0.99135E-03  4365   0.230E-01    0.259E-02
RMM:   2    -0.133629448868E+03   -0.58413E-04   -0.60080E-04  5057   0.498E-02    0.177E-02
RMM:   3    -0.133629436090E+03    0.12778E-04   -0.24238E-05  2433   0.142E-02    0.171E-02
RMM:   4    -0.133629431617E+03    0.44726E-05   -0.11111E-05  2214   0.176E-02
  58 F= -.13362943E+03 E0= -.13362875E+03  d E =-.352681E-04
quench:  g(F)=  0.000E+00 g(S)=  0.000E+00 dE (1.order)= 0.000E+00
 bond charge predicted
       N       E                     dE             d eps       ncg     rms          rms(c)
DAV:   1    -0.133629448043E+03   -0.11953E-04   -0.10076E-02  4140   0.191E-01    0.231E-02
RMM:   2    -0.133629492359E+03   -0.44316E-04   -0.45908E-04  4835   0.457E-02    0.168E-02
RMM:   3    -0.133629486629E+03    0.57299E-05   -0.20283E-05  2348   0.177E-02
  59 F= -.13362949E+03 E0= -.13362880E+03  d E =-.550118E-04
quench:  g(F)=  0.000E+00 g(S)=  0.000E+00 dE (1.order)= 0.000E+00
 bond charge predicted
       N       E                     dE             d eps       ncg     rms          rms(c)
DAV:   1    -0.133629485000E+03    0.73594E-05   -0.10062E-02  4437   0.229E-01    0.259E-02
RMM:   2    -0.133629542404E+03   -0.57405E-04   -0.59494E-04  5059   0.498E-02    0.172E-02
RMM:   3    -0.133629529720E+03    0.12684E-04   -0.22538E-05  2420   0.135E-02    0.162E-02
RMM:   4    -0.133629527838E+03    0.18821E-05   -0.10576E-05  2244   0.171E-02
  60 F= -.13362953E+03 E0= -.13362885E+03  d E =-.412088E-04
quench:  g(F)=  0.000E+00 g(S)=  0.000E+00 dE (1.order)= 0.000E+00
 bond charge predicted
       N       E                     dE             d eps       ncg     rms          rms(c)
DAV:   1    -0.133629546036E+03   -0.16316E-04   -0.10806E-02  4077   0.199E-01    0.237E-02
RMM:   2    -0.133629593613E+03   -0.47576E-04   -0.49380E-04  4883   0.481E-02    0.171E-02
RMM:   3    -0.133629585545E+03    0.80676E-05   -0.21352E-05  2343   0.185E-02
  61 F= -.13362959E+03 E0= -.13362891E+03  d E =-.577071E-04
quench:  g(F)=  0.000E+00 g(S)=  0.000E+00 dE (1.order)= 0.000E+00
 bond charge predicted
       N       E                     dE             d eps       ncg     rms          rms(c)
DAV:   1    -0.133629586404E+03    0.72082E-05   -0.11093E-02  4329   0.239E-01    0.270E-02
RMM:   2    -0.133629648986E+03   -0.62581E-04   -0.64866E-04  5150   0.521E-02    0.180E-02
RMM:   3    -0.133629635379E+03    0.13606E-04   -0.25056E-05  2448   0.136E-02    0.170E-02
RMM:   4    -0.133629633001E+03    0.23777E-05   -0.11244E-05  2246   0.176E-02
  62 F= -.13362963E+03 E0= -.13362896E+03  d E =-.474563E-04
quench:  g(F)=  0.000E+00 g(S)=  0.000E+00 dE (1.order)= 0.000E+00
 bond charge predicted
       N       E                     dE             d eps       ncg     rms          rms(c)
DAV:   1    -0.133629650618E+03   -0.15239E-04   -0.11794E-02  4032   0.208E-01    0.248E-02
RMM:   2    -0.133629702693E+03   -0.52075E-04   -0.54149E-04  5006   0.499E-02    0.179E-02
RMM:   3    -0.133629693615E+03    0.90782E-05   -0.22506E-05  2363   0.184E-02
  63 F= -.13362969E+03 E0= -.13362902E+03  d E =-.606139E-04
quench:  g(F)=  0.000E+00 g(S)=  0.000E+00 dE (1.order)= 0.000E+00
 bond charge predicted
       N       E                     dE             d eps       ncg     rms          rms(c)
DAV:   1    -0.133629688799E+03    0.13895E-04   -0.11621E-02  4347   0.245E-01    0.279E-02
RMM:   2    -0.133629754979E+03   -0.66180E-04   -0.68313E-04  5182   0.531E-02    0.190E-02
RMM:   3    -0.133629740575E+03    0.14404E-04   -0.26593E-05  2465   0.144E-02    0.182E-02
RMM:   4    -0.133629737323E+03    0.32524E-05   -0.12448E-05  2248   0.186E-02
  64 F= -.13362974E+03 E0= -.13362906E+03  d E =-.437074E-04
quench:  g(F)=  0.000E+00 g(S)=  0.000E+00 dE (1.order)= 0.000E+00
 bond charge predicted
       N       E                     dE             d eps       ncg     rms          rms(c)
DAV:   1    -0.133629752273E+03   -0.11698E-04   -0.11952E-02  4032   0.208E-01    0.252E-02
RMM:   2    -0.133629804471E+03   -0.52198E-04   -0.54318E-04  4997   0.498E-02    0.182E-02
RMM:   3    -0.133629795645E+03    0.88254E-05   -0.23548E-05  2371   0.189E-02
  65 F= -.13362980E+03 E0= -.13362912E+03  d E =-.583226E-04
quench:  g(F)=  0.000E+00 g(S)=  0.000E+00 dE (1.order)= 0.000E+00
 bond charge predicted
       N       E                     dE             d eps       ncg     rms          rms(c)
DAV:   1    -0.133629790307E+03    0.14164E-04   -0.10974E-02  4365   0.241E-01    0.275E-02
RMM:   2    -0.133629854530E+03   -0.64223E-04   -0.66477E-04  5154   0.520E-02    0.189E-02
RMM:   3    -0.133629840200E+03    0.14330E-04   -0.25640E-05  2464   0.142E-02    0.178E-02
RMM:   4    -0.133629835702E+03    0.44983E-05   -0.12163E-05  2220   0.183E-02
  66 F= -.13362984E+03 E0= -.13362917E+03  d E =-.400563E-04
quench:  g(F)=  0.000E+00 g(S)=  0.000E+00 dE (1.order)= 0.000E+00
 bond charge predicted
       N       E                     dE             d eps       ncg     rms          rms(c)
DAV:   1    -0.133629853081E+03   -0.12881E-04   -0.10476E-02  4149   0.195E-01    0.238E-02
RMM:   2    -0.133629900610E+03   -0.47529E-04   -0.49420E-04  4895   0.476E-02    0.176E-02
RMM:   3    -0.133629893809E+03    0.68017E-05   -0.21180E-05  2356   0.180E-02
  67 F= -.13362989E+03 E0= -.13362923E+03  d E =-.581072E-04
quench:  g(F)=  0.000E+00 g(S)=  0.000E+00 dE (1.order)= 0.000E+00
 bond charge predicted
       N       E                     dE             d eps       ncg     rms          rms(c)
DAV:   1    -0.133629895132E+03    0.54787E-05   -0.96396E-03  4455   0.227E-01    0.257E-02
RMM:   2    -0.133629951656E+03   -0.56524E-04   -0.58233E-04  5015   0.491E-02    0.175E-02
RMM:   3    -0.133629939359E+03    0.12297E-04   -0.23777E-05  2428   0.141E-02    0.168E-02
RMM:   4    -0.133629936765E+03    0.25937E-05   -0.10812E-05  2242   0.174E-02
  68 F= -.13362994E+03 E0= -.13362927E+03  d E =-.429563E-04
quench:  g(F)=  0.000E+00 g(S)=  0.000E+00 dE (1.order)= 0.000E+00
 bond charge predicted
       N       E                     dE             d eps       ncg     rms          rms(c)
DAV:   1    -0.133629954803E+03   -0.15444E-04   -0.99774E-03  4086   0.190E-01    0.230E-02
RMM:   2    -0.133629998556E+03   -0.43753E-04   -0.45432E-04  4817   0.458E-02    0.165E-02
RMM:   3    -0.133629991362E+03    0.71941E-05   -0.20017E-05  2324   0.177E-02
  69 F= -.13362999E+03 E0= -.13362933E+03  d E =-.545965E-04
quench:  g(F)=  0.000E+00 g(S)=  0.000E+00 dE (1.order)= 0.000E+00
 bond charge predicted
       N       E                     dE             d eps       ncg     rms          rms(c)
DAV:   1    -0.133629988154E+03    0.10402E-04   -0.10211E-02  4329   0.230E-01    0.261E-02
RMM:   2    -0.133630046354E+03   -0.58200E-04   -0.60115E-04  5084   0.504E-02    0.172E-02
RMM:   3    -0.133630033900E+03    0.12455E-04   -0.24261E-05  2422   0.136E-02    0.166E-02
RMM:   4    -0.133630031536E+03    0.23638E-05   -0.10704E-05  2243   0.173E-02
  70 F= -.13363003E+03 E0= -.13362937E+03  d E =-.401743E-04
quench:  g(F)=  0.000E+00 g(S)=  0.000E+00 dE (1.order)= 0.000E+00
 bond charge predicted
       N       E                     dE             d eps       ncg     rms          rms(c)
DAV:   1    -0.133630042297E+03   -0.83979E-05   -0.11175E-02  4041   0.202E-01    0.243E-02
RMM:   2    -0.133630091255E+03   -0.48957E-04   -0.50797E-04  4965   0.485E-02    0.173E-02
RMM:   3    -0.133630083280E+03    0.79748E-05   -0.21981E-05  2350   0.185E-02
  71 F= -.13363008E+03 E0= -.13362942E+03  d E =-.517440E-04
quench:  g(F)=  0.000E+00 g(S)=  0.000E+00 dE (1.order)= 0.000E+00
 bond charge predicted
       N       E                     dE             d eps       ncg     rms          rms(c)
DAV:   1    -0.133630072386E+03    0.18868E-04   -0.11183E-02  4356   0.241E-01    0.275E-02
RMM:   2    -0.133630136944E+03   -0.64558E-04   -0.66835E-04  5198   0.526E-02    0.184E-02
RMM:   3    -0.133630122749E+03    0.14195E-04   -0.26180E-05  2458   0.139E-02    0.174E-02
RMM:   4    -0.133630118512E+03    0.42371E-05   -0.11719E-05  2222   0.180E-02
  72 F= -.13363012E+03 E0= -.13362946E+03  d E =-.352326E-04
quench:  g(F)=  0.000E+00 g(S)=  0.000E+00 dE (1.order)= 0.000E+00
 bond charge predicted
       N       E                     dE             d eps       ncg     rms          rms(c)
DAV:   1    -0.133630127813E+03   -0.50638E-05   -0.11311E-02  4140   0.203E-01    0.247E-02
RMM:   2    -0.133630178660E+03   -0.50847E-04   -0.52887E-04  5002   0.495E-02    0.180E-02
RMM:   3    -0.133630171636E+03    0.70242E-05   -0.22800E-05  2377   0.187E-02
  73 F= -.13363017E+03 E0= -.13362951E+03  d E =-.531235E-04
quench:  g(F)=  0.000E+00 g(S)=  0.000E+00 dE (1.order)= 0.000E+00
 bond charge predicted
       N       E                     dE             d eps       ncg     rms          rms(c)
DAV:   1    -0.133630164140E+03    0.14520E-04   -0.10720E-02  4455   0.238E-01    0.271E-02
RMM:   2    -0.133630226796E+03   -0.62656E-04   -0.64745E-04  5153   0.516E-02    0.184E-02
RMM:   3    -0.133630212898E+03    0.13898E-04   -0.25165E-05  2455   0.140E-02    0.173E-02
RMM:   4    -0.133630208622E+03    0.42762E-05   -0.11582E-05  2220   0.179E-02
  74 F= -.13363021E+03 E0= -.13362955E+03  d E =-.369862E-04
quench:  g(F)=  0.000E+00 g(S)=  0.000E+00 dE (1.order)= 0.000E+00
 bond charge predicted
       N       E                     dE             d eps       ncg     rms          rms(c)
DAV:   1    -0.133630224019E+03   -0.11121E-04   -0.10771E-02  4122   0.198E-01    0.240E-02
RMM:   2    -0.133630272290E+03   -0.48270E-04   -0.50052E-04  4930   0.482E-02    0.175E-02
RMM:   3    -0.133630265727E+03    0.65632E-05   -0.21610E-05  2360   0.183E-02
  75 F= -.13363027E+03 E0= -.13362961E+03  d E =-.571045E-04
quench:  g(F)=  0.000E+00 g(S)=  0.000E+00 dE (1.order)= 0.000E+00
 bond charge predicted
       N       E                     dE             d eps       ncg     rms          rms(c)
DAV:   1    -0.133630264389E+03    0.79005E-05   -0.10471E-02  4455   0.235E-01    0.265E-02
RMM:   2    -0.133630324753E+03   -0.60364E-04   -0.62295E-04  5105   0.508E-02    0.178E-02
RMM:   3    -0.133630311584E+03    0.13169E-04   -0.24348E-05  2434   0.139E-02    0.169E-02
RMM:   4    -0.133630307391E+03    0.41930E-05   -0.11104E-05  2220   0.176E-02
  76 F= -.13363031E+03 E0= -.13362966E+03  d E =-.416645E-04
quench:  g(F)=  0.000E+00 g(S)=  0.000E+00 dE (1.order)= 0.000E+00
 bond charge predicted
       N       E                     dE             d eps       ncg     rms          rms(c)
DAV:   1    -0.133630323110E+03   -0.11526E-04   -0.11109E-02  4113   0.201E-01    0.240E-02
RMM:   2    -0.133630371750E+03   -0.48639E-04   -0.50415E-04  4939   0.483E-02    0.173E-02
RMM:   3    -0.133630365348E+03    0.64018E-05   -0.21670E-05  2361   0.184E-02
  77 F= -.13363037E+03 E0= -.13362971E+03  d E =-.579567E-04
quench:  g(F)=  0.000E+00 g(S)=  0.000E+00 dE (1.order)= 0.000E+00
 bond charge predicted
       N       E                     dE             d eps       ncg     rms          rms(c)
DAV:   1    -0.133630359352E+03    0.12397E-04   -0.11042E-02  4437   0.239E-01    0.272E-02
RMM:   2    -0.133630422755E+03   -0.63403E-04   -0.65622E-04  5183   0.522E-02    0.182E-02
RMM:   3    -0.133630408610E+03    0.14146E-04   -0.23981E-05  2451   0.136E-02    0.169E-02
RMM:   4    -0.133630404748E+03    0.38617E-05   -0.11340E-05  2221   0.176E-02
  78 F= -.13363040E+03 E0= -.13362976E+03  d E =-.394002E-04
quench:  g(F)=  0.000E+00 g(S)=  0.000E+00 dE (1.order)= 0.000E+00
 bond charge predicted
       N       E                     dE             d eps       ncg     rms          rms(c)
DAV:   1    -0.133630415681E+03   -0.70718E-05   -0.11438E-02  4122   0.205E-01    0.245E-02
RMM:   2    -0.133630466655E+03   -0.50974E-04   -0.53082E-04  4982   0.498E-02    0.176E-02
RMM:   3    -0.133630459480E+03    0.71751E-05   -0.22072E-05  2362   0.185E-02
  79 F= -.13363046E+03 E0= -.13362981E+03  d E =-.547322E-04
quench:  g(F)=  0.000E+00 g(S)=  0.000E+00 dE (1.order)= 0.000E+00
 bond charge predicted
       N       E                     dE             d eps       ncg     rms          rms(c)
DAV:   1    -0.133630450638E+03    0.16017E-04   -0.11212E-02  4446   0.242E-01    0.274E-02
RMM:   2    -0.133630515848E+03   -0.65210E-04   -0.67080E-04  5213   0.526E-02    0.185E-02
RMM:   3    -0.133630501587E+03    0.14261E-04   -0.25296E-05  2462   0.140E-02    0.177E-02
RMM:   4    -0.133630496961E+03    0.46261E-05   -0.11978E-05  2221   0.182E-02
  80 F= -.13363050E+03 E0= -.13362985E+03  d E =-.374806E-04
quench:  g(F)=  0.000E+00 g(S)=  0.000E+00 dE (1.order)= 0.000E+00
 bond charge predicted
       N       E                     dE             d eps       ncg     rms          rms(c)
DAV:   1    -0.133630509020E+03   -0.74326E-05   -0.11244E-02  4131   0.202E-01    0.245E-02
RMM:   2    -0.133630559122E+03   -0.50103E-04   -0.52072E-04  4966   0.488E-02    0.179E-02
RMM:   3    -0.133630552124E+03    0.69986E-05   -0.22107E-05  2369   0.183E-02
  81 F= -.13363055E+03 E0= -.13362991E+03  d E =-.551628E-04
quench:  g(F)=  0.000E+00 g(S)=  0.000E+00 dE (1.order)= 0.000E+00
 bond charge predicted
       N       E                     dE             d eps       ncg     rms          rms(c)
DAV:   1    -0.133630543372E+03    0.15750E-04   -0.10513E-02  4455   0.236E-01    0.268E-02
RMM:   2    -0.133630605350E+03   -0.61978E-04   -0.63696E-04  5155   0.511E-02    0.183E-02
RMM:   3    -0.133630591724E+03    0.13625E-04   -0.24555E-05  2453   0.142E-02    0.175E-02
RMM:   4    -0.133630587189E+03    0.45352E-05   -0.11732E-05  2218   0.181E-02
  82 F= -.13363059E+03 E0= -.13362995E+03  d E =-.350653E-04
quench:  g(F)=  0.000E+00 g(S)=  0.000E+00 dE (1.order)= 0.000E+00
 bond charge predicted
       N       E                     dE             d eps       ncg     rms          rms(c)
DAV:   1    -0.133630596925E+03   -0.52014E-05   -0.10519E-02  4122   0.195E-01    0.239E-02
RMM:   2    -0.133630643775E+03   -0.46850E-04   -0.48769E-04  4900   0.474E-02    0.173E-02
RMM:   3    -0.133630637621E+03    0.61539E-05   -0.21431E-05  2357   0.183E-02
  83 F= -.13363064E+03 E0= -.13363000E+03  d E =-.504324E-04
quench:  g(F)=  0.000E+00 g(S)=  0.000E+00 dE (1.order)= 0.000E+00
 bond charge predicted
       N       E                     dE             d eps       ncg     rms          rms(c)
DAV:   1    -0.133630626009E+03    0.17767E-04   -0.10423E-02  4455   0.234E-01    0.266E-02
RMM:   2    -0.133630686436E+03   -0.60427E-04   -0.62348E-04  5143   0.509E-02    0.177E-02
RMM:   3    -0.133630673410E+03    0.13026E-04   -0.24611E-05  2443   0.138E-02    0.169E-02
RMM:   4    -0.133630669274E+03    0.41356E-05   -0.11120E-05  2220   0.175E-02
  84 F= -.13363067E+03 E0= -.13363003E+03  d E =-.316528E-04
quench:  g(F)=  0.000E+00 g(S)=  0.000E+00 dE (1.order)= 0.000E+00
 bond charge predicted
       N       E                     dE             d eps       ncg     rms          rms(c)
DAV:   1    -0.133630674105E+03   -0.69539E-06   -0.10964E-02  4122   0.199E-01    0.243E-02
RMM:   2    -0.133630722866E+03   -0.48761E-04   -0.50852E-04  4959   0.485E-02    0.175E-02
RMM:   3    -0.133630716342E+03    0.65246E-05   -0.21779E-05  2360   0.184E-02
  85 F= -.13363072E+03 E0= -.13363008E+03  d E =-.470676E-04
quench:  g(F)=  0.000E+00 g(S)=  0.000E+00 dE (1.order)= 0.000E+00
 bond charge predicted
       N       E                     dE             d eps       ncg     rms          rms(c)
DAV:   1    -0.133630701633E+03    0.21233E-04   -0.10958E-02  4464   0.239E-01    0.273E-02
RMM:   2    -0.133630765106E+03   -0.63473E-04   -0.65546E-04  5207   0.520E-02    0.183E-02
RMM:   3    -0.133630751156E+03    0.13950E-04   -0.24474E-05  2457   0.138E-02    0.173E-02
RMM:   4    -0.133630746925E+03    0.42302E-05   -0.11630E-05  2221   0.179E-02
  86 F= -.13363075E+03 E0= -.13363011E+03  d E =-.305837E-04
quench:  g(F)=  0.000E+00 g(S)=  0.000E+00 dE (1.order)= 0.000E+00
 bond charge predicted
       N       E                     dE             d eps       ncg     rms          rms(c)
DAV:   1    -0.133630750979E+03    0.17654E-06   -0.11297E-02  4131   0.202E-01    0.247E-02
RMM:   2    -0.133630801879E+03   -0.50900E-04   -0.53018E-04  5002   0.495E-02    0.179E-02
RMM:   3    -0.133630794867E+03    0.70121E-05   -0.22669E-05  2371   0.187E-02
  87 F= -.13363079E+03 E0= -.13363016E+03  d E =-.479416E-04
quench:  g(F)=  0.000E+00 g(S)=  0.000E+00 dE (1.order)= 0.000E+00
 bond charge predicted
       N       E                     dE             d eps       ncg     rms          rms(c)
DAV:   1    -0.133630779641E+03    0.22238E-04   -0.10703E-02  4455   0.238E-01    0.272E-02
RMM:   2    -0.133630842880E+03   -0.63240E-04   -0.65262E-04  5190   0.518E-02    0.184E-02
RMM:   3    -0.133630828845E+03    0.14035E-04   -0.25693E-05  2463   0.140E-02    0.174E-02
RMM:   4    -0.133630824479E+03    0.43657E-05   -0.11684E-05  2220   0.179E-02
  88 F= -.13363082E+03 E0= -.13363019E+03  d E =-.296121E-04
quench:  g(F)=  0.000E+00 g(S)=  0.000E+00 dE (1.order)= 0.000E+00
 bond charge predicted
       N       E                     dE             d eps       ncg     rms          rms(c)
DAV:   1    -0.133630827726E+03    0.11192E-05   -0.10538E-02  4122   0.195E-01    0.241E-02
RMM:   2    -0.133630875743E+03   -0.48018E-04   -0.50058E-04  4955   0.480E-02    0.176E-02
RMM:   3    -0.133630869133E+03    0.66102E-05   -0.21610E-05  2358   0.182E-02
  89 F= -.13363087E+03 E0= -.13363024E+03  d E =-.446539E-04
quench:  g(F)=  0.000E+00 g(S)=  0.000E+00 dE (1.order)= 0.000E+00
 bond charge predicted
       N       E                     dE             d eps       ncg     rms          rms(c)
DAV:   1    -0.133630851350E+03    0.24394E-04   -0.97862E-03  4464   0.229E-01    0.263E-02
RMM:   2    -0.133630909918E+03   -0.58568E-04   -0.60242E-04  5123   0.498E-02    0.179E-02
RMM:   3    -0.133630896974E+03    0.12944E-04   -0.24150E-05  2440   0.142E-02    0.171E-02
RMM:   4    -0.133630892642E+03    0.43316E-05   -0.11716E-05  2216   0.178E-02
  90 F= -.13363089E+03 E0= -.13363026E+03  d E =-.235090E-04
quench:  g(F)=  0.000E+00 g(S)=  0.000E+00 dE (1.order)= 0.000E+00
 bond charge predicted
       N       E                     dE             d eps       ncg     rms          rms(c)
DAV:   1    -0.133630893143E+03    0.38304E-05   -0.99993E-03  4122   0.190E-01    0.236E-02
RMM:   2    -0.133630938137E+03   -0.44994E-04   -0.46834E-04  4894   0.466E-02    0.170E-02
RMM:   3    -0.133630932435E+03    0.57025E-05   -0.20809E-05  2345   0.181E-02
  91 F= -.13363093E+03 E0= -.13363030E+03  d E =-.397929E-04
quench:  g(F)=  0.000E+00 g(S)=  0.000E+00 dE (1.order)= 0.000E+00
 bond charge predicted
       N       E                     dE             d eps       ncg     rms          rms(c)
DAV:   1    -0.133630909901E+03    0.28236E-04   -0.99497E-03  4464   0.230E-01    0.264E-02
RMM:   2    -0.133630967985E+03   -0.58084E-04   -0.60059E-04  5164   0.502E-02    0.173E-02
RMM:   3    -0.133630955598E+03    0.12387E-04   -0.25329E-05  2429   0.138E-02    0.165E-02
RMM:   4    -0.133630951763E+03    0.38346E-05   -0.11646E-05  2221   0.174E-02
  92 F= -.13363095E+03 E0= -.13363033E+03  d E =-.193284E-04
quench:  g(F)=  0.000E+00 g(S)=  0.000E+00 dE (1.order)= 0.000E+00
 bond charge predicted
       N       E                     dE             d eps       ncg     rms          rms(c)
DAV:   1    -0.133630948259E+03    0.73386E-05   -0.10577E-02  4122   0.196E-01    0.243E-02
RMM:   2    -0.133630996415E+03   -0.48155E-04   -0.50204E-04  4997   0.485E-02    0.174E-02
RMM:   3    -0.133630990194E+03    0.62211E-05   -0.21905E-05  2355   0.186E-02
  93 F= -.13363099E+03 E0= -.13363037E+03  d E =-.384304E-04
quench:  g(F)=  0.000E+00 g(S)=  0.000E+00 dE (1.order)= 0.000E+00
 bond charge predicted
       N       E                     dE             d eps       ncg     rms          rms(c)
DAV:   1    -0.133630967341E+03    0.29074E-04   -0.10533E-02  4455   0.236E-01    0.273E-02
RMM:   2    -0.133631029462E+03   -0.62122E-04   -0.64374E-04  5234   0.516E-02    0.181E-02
RMM:   3    -0.133631015644E+03    0.13819E-04   -0.23966E-05  2449   0.135E-02    0.168E-02
RMM:   4    -0.133631011767E+03    0.38770E-05   -0.11260E-05  2220   0.176E-02
  94 F= -.13363101E+03 E0= -.13363039E+03  d E =-.215730E-04
quench:  g(F)=  0.000E+00 g(S)=  0.000E+00 dE (1.order)= 0.000E+00
 bond charge predicted
       N       E                     dE             d eps       ncg     rms          rms(c)
DAV:   1    -0.133631010166E+03    0.54781E-05   -0.10862E-02  4122   0.200E-01    0.247E-02
RMM:   2    -0.133631060187E+03   -0.50022E-04   -0.52247E-04  5043   0.495E-02    0.176E-02
RMM:   3    -0.133631053351E+03    0.68362E-05   -0.22333E-05  2364   0.187E-02
  95 F= -.13363105E+03 E0= -.13363043E+03  d E =-.415843E-04
quench:  g(F)=  0.000E+00 g(S)=  0.000E+00 dE (1.order)= 0.000E+00
 bond charge predicted
       N       E                     dE             d eps       ncg     rms          rms(c)
DAV:   1    -0.133631033650E+03    0.26537E-04   -0.10146E-02  4464   0.234E-01    0.269E-02
RMM:   2    -0.133631094700E+03   -0.61050E-04   -0.62976E-04  5197   0.509E-02    0.181E-02
RMM:   3    -0.133631081305E+03    0.13395E-04   -0.25789E-05  2452   0.142E-02    0.173E-02
RMM:   4    -0.133631076931E+03    0.43738E-05   -0.12091E-05  2221   0.180E-02
  96 F= -.13363108E+03 E0= -.13363046E+03  d E =-.235804E-04
quench:  g(F)=  0.000E+00 g(S)=  0.000E+00 dE (1.order)= 0.000E+00
 bond charge predicted
       N       E                     dE             d eps       ncg     rms          rms(c)
DAV:   1    -0.133631077116E+03    0.41892E-05   -0.96673E-03  4122   0.188E-01    0.234E-02
RMM:   2    -0.133631121996E+03   -0.44880E-04   -0.46860E-04  4910   0.465E-02    0.171E-02
RMM:   3    -0.133631115796E+03    0.61997E-05   -0.20268E-05  2340   0.177E-02
  97 F= -.13363112E+03 E0= -.13363050E+03  d E =-.388647E-04
quench:  g(F)=  0.000E+00 g(S)=  0.000E+00 dE (1.order)= 0.000E+00
 bond charge predicted
       N       E                     dE             d eps       ncg     rms          rms(c)
DAV:   1    -0.133631098448E+03    0.23548E-04   -0.90198E-03  4473   0.221E-01    0.253E-02
RMM:   2    -0.133631153167E+03   -0.54719E-04   -0.56048E-04  5079   0.482E-02    0.170E-02
RMM:   3    -0.133631141143E+03    0.12023E-04   -0.22771E-05  2411   0.140E-02    0.166E-02
RMM:   4    -0.133631136962E+03    0.41817E-05   -0.11100E-05  2209   0.174E-02
  98 F= -.13363114E+03 E0= -.13363052E+03  d E =-.211655E-04
quench:  g(F)=  0.000E+00 g(S)=  0.000E+00 dE (1.order)= 0.000E+00
 bond charge predicted
       N       E                     dE             d eps       ncg     rms          rms(c)
DAV:   1    -0.133631135141E+03    0.60024E-05   -0.94775E-03  4113   0.186E-01    0.230E-02
RMM:   2    -0.133631177547E+03   -0.42407E-04   -0.44069E-04  4888   0.453E-02    0.164E-02
RMM:   3    -0.133631172590E+03    0.49577E-05   -0.19941E-05  2330   0.179E-02
  99 F= -.13363117E+03 E0= -.13363056E+03  d E =-.356281E-04
quench:  g(F)=  0.000E+00 g(S)=  0.000E+00 dE (1.order)= 0.000E+00
 bond charge predicted
       N       E                     dE             d eps       ncg     rms          rms(c)
DAV:   1    -0.133631152782E+03    0.24765E-04   -0.10089E-02  4428   0.230E-01    0.265E-02
RMM:   2    -0.133631210897E+03   -0.58115E-04   -0.60264E-04  5181   0.507E-02    0.169E-02
RMM:   3    -0.133631198408E+03    0.12489E-04   -0.24415E-05  2422   0.132E-02    0.159E-02
RMM:   4    -0.133631194972E+03    0.34360E-05   -0.10263E-05  2219   0.167E-02
 100 F= -.13363119E+03 E0= -.13363058E+03  d E =-.223823E-04
quench:  g(F)=  0.000E+00 g(S)=  0.000E+00 dE (1.order)= 0.000E+00
 bond charge predicted
       N       E                     dE             d eps       ncg     rms          rms(c)
DAV:   1    -0.133631192415E+03    0.59930E-05   -0.11316E-02  4113   0.204E-01    0.250E-02
RMM:   2    -0.133631243525E+03   -0.51110E-04   -0.53327E-04  5076   0.503E-02    0.175E-02
RMM:   3    -0.133631236902E+03    0.66228E-05   -0.22745E-05  2364   0.190E-02
 101 F= -.13363124E+03 E0= -.13363063E+03  d E =-.419304E-04
quench:  g(F)=  0.000E+00 g(S)=  0.000E+00 dE (1.order)= 0.000E+00
 bond charge predicted
       N       E                     dE             d eps       ncg     rms          rms(c)
DAV:   1    -0.133631211823E+03    0.31703E-04   -0.11639E-02  4437   0.246E-01    0.286E-02
RMM:   2    -0.133631279155E+03   -0.67333E-04   -0.70000E-04  5305   0.540E-02    0.189E-02
RMM:   3    -0.133631264244E+03    0.14912E-04   -0.25826E-05  2471   0.136E-02    0.175E-02
RMM:   4    -0.133631260218E+03    0.40260E-05   -0.12117E-05  2227   0.182E-02
 102 F= -.13363126E+03 E0= -.13363065E+03  d E =-.233153E-04
quench:  g(F)=  0.000E+00 g(S)=  0.000E+00 dE (1.order)= 0.000E+00
 bond charge predicted
       N       E                     dE             d eps       ncg     rms          rms(c)
DAV:   1    -0.133631259243E+03    0.50002E-05   -0.11787E-02  4113   0.208E-01    0.256E-02
RMM:   2    -0.133631314559E+03   -0.55315E-04   -0.57719E-04  5125   0.518E-02    0.187E-02
RMM:   3    -0.133631306261E+03    0.82977E-05   -0.24131E-05  2387   0.191E-02
 103 F= -.13363131E+03 E0= -.13363070E+03  d E =-.460434E-04
quench:  g(F)=  0.000E+00 g(S)=  0.000E+00 dE (1.order)= 0.000E+00
 bond charge predicted
       N       E                     dE             d eps       ncg     rms          rms(c)
DAV:   1    -0.133631287715E+03    0.26844E-04   -0.10401E-02  4491   0.238E-01    0.272E-02
RMM:   2    -0.133631350763E+03   -0.63048E-04   -0.64962E-04  5195   0.515E-02    0.187E-02
RMM:   3    -0.133631336671E+03    0.14092E-04   -0.26902E-05  2462   0.146E-02    0.178E-02
RMM:   4    -0.133631332036E+03    0.46352E-05   -0.12618E-05  2222   0.184E-02
 104 F= -.13363133E+03 E0= -.13363073E+03  d E =-.257748E-04
quench:  g(F)=  0.000E+00 g(S)=  0.000E+00 dE (1.order)= 0.000E+00
 bond charge predicted
       N       E                     dE             d eps       ncg     rms          rms(c)
DAV:   1    -0.133631337472E+03   -0.80135E-06   -0.96094E-03  4122   0.187E-01    0.233E-02
RMM:   2    -0.133631382055E+03   -0.44583E-04   -0.46400E-04  4879   0.461E-02    0.172E-02
RMM:   3    -0.133631375810E+03    0.62451E-05   -0.20145E-05  2340   0.177E-02
 105 F= -.13363138E+03 E0= -.13363077E+03  d E =-.437743E-04
quench:  g(F)=  0.000E+00 g(S)=  0.000E+00 dE (1.order)= 0.000E+00
 bond charge predicted
       N       E                     dE             d eps       ncg     rms          rms(c)
DAV:   1    -0.133631360749E+03    0.21306E-04   -0.88384E-03  4473   0.220E-01    0.251E-02
RMM:   2    -0.133631413931E+03   -0.53181E-04   -0.54631E-04  5048   0.476E-02    0.168E-02
RMM:   3    -0.133631402353E+03    0.11577E-04   -0.22253E-05  2400   0.140E-02    0.164E-02
RMM:   4    -0.133631398264E+03    0.40891E-05   -0.10959E-05  2207   0.173E-02
 106 F= -.13363140E+03 E0= -.13363080E+03  d E =-.224542E-04
quench:  g(F)=  0.000E+00 g(S)=  0.000E+00 dE (1.order)= 0.000E+00
 bond charge predicted
       N       E                     dE             d eps       ncg     rms          rms(c)
DAV:   1    -0.133631397251E+03    0.51022E-05   -0.93587E-03  4104   0.184E-01    0.230E-02
RMM:   2    -0.133631438775E+03   -0.41524E-04   -0.43262E-04  4837   0.450E-02    0.163E-02
RMM:   3    -0.133631434054E+03    0.47217E-05   -0.19879E-05  2329   0.180E-02
 107 F= -.13363143E+03 E0= -.13363083E+03  d E =-.357894E-04
quench:  g(F)=  0.000E+00 g(S)=  0.000E+00 dE (1.order)= 0.000E+00
 bond charge predicted
       N       E                     dE             d eps       ncg     rms          rms(c)
DAV:   1    -0.133631409278E+03    0.29497E-04   -0.98803E-03  4446   0.228E-01    0.267E-02
RMM:   2    -0.133631466193E+03   -0.56915E-04   -0.59306E-04  5188   0.502E-02    0.170E-02
RMM:   3    -0.133631454003E+03    0.12190E-04   -0.24384E-05  2424   0.133E-02    0.159E-02
RMM:   4    -0.133631450644E+03    0.33585E-05   -0.10797E-05  2219   0.169E-02
 108 F= -.13363145E+03 E0= -.13363085E+03  d E =-.165905E-04
quench:  g(F)=  0.000E+00 g(S)=  0.000E+00 dE (1.order)= 0.000E+00
 bond charge predicted
       N       E                     dE             d eps       ncg     rms          rms(c)
DAV:   1    -0.133631442123E+03    0.11879E-04   -0.11009E-02  4113   0.201E-01    0.251E-02
RMM:   2    -0.133631492457E+03   -0.50333E-04   -0.52695E-04  5084   0.501E-02    0.176E-02
RMM:   3    -0.133631486129E+03    0.63278E-05   -0.23137E-05  2370   0.192E-02
 109 F= -.13363149E+03 E0= -.13363089E+03  d E =-.354849E-04
quench:  g(F)=  0.000E+00 g(S)=  0.000E+00 dE (1.order)= 0.000E+00
 bond charge predicted
       N       E                     dE             d eps       ncg     rms          rms(c)
DAV:   1    -0.133631460011E+03    0.32446E-04   -0.11323E-02  4446   0.245E-01    0.285E-02
RMM:   2    -0.133631526260E+03   -0.66249E-04   -0.68848E-04  5301   0.536E-02    0.187E-02
RMM:   3    -0.133631511629E+03    0.14631E-04   -0.25940E-05  2466   0.137E-02    0.174E-02
RMM:   4    -0.133631507579E+03    0.40494E-05   -0.12555E-05  2227   0.182E-02
 110 F= -.13363151E+03 E0= -.13363091E+03  d E =-.214503E-04
quench:  g(F)=  0.000E+00 g(S)=  0.000E+00 dE (1.order)= 0.000E+00
 bond charge predicted
       N       E                     dE             d eps       ncg     rms          rms(c)
DAV:   1    -0.133631505751E+03    0.58779E-05   -0.11627E-02  4122   0.207E-01    0.256E-02
RMM:   2    -0.133631560123E+03   -0.54372E-04   -0.56784E-04  5116   0.515E-02    0.184E-02
RMM:   3    -0.133631552161E+03    0.79618E-05   -0.24227E-05  2386   0.190E-02
 111 F= -.13363155E+03 E0= -.13363096E+03  d E =-.445816E-04
quench:  g(F)=  0.000E+00 g(S)=  0.000E+00 dE (1.order)= 0.000E+00
 bond charge predicted
       N       E                     dE             d eps       ncg     rms          rms(c)
DAV:   1    -0.133631533146E+03    0.26977E-04   -0.10562E-02  4473   0.239E-01    0.276E-02
RMM:   2    -0.133631597251E+03   -0.64105E-04   -0.66055E-04  5245   0.518E-02    0.189E-02
RMM:   3    -0.133631582629E+03    0.14622E-04   -0.24212E-05  2466   0.142E-02    0.178E-02
RMM:   4    -0.133631578037E+03    0.45914E-05   -0.12383E-05  2220   0.185E-02
 112 F= -.13363158E+03 E0= -.13363099E+03  d E =-.258764E-04
quench:  g(F)=  0.000E+00 g(S)=  0.000E+00 dE (1.order)= 0.000E+00
 bond charge predicted
       N       E                     dE             d eps       ncg     rms          rms(c)
DAV:   1    -0.133631578828E+03    0.38010E-05   -0.98164E-03  4122   0.189E-01    0.237E-02
RMM:   2    -0.133631624788E+03   -0.45960E-04   -0.48026E-04  4935   0.472E-02    0.174E-02
RMM:   3    -0.133631618281E+03    0.65065E-05   -0.20860E-05  2344   0.181E-02
 113 F= -.13363162E+03 E0= -.13363103E+03  d E =-.402436E-04
quench:  g(F)=  0.000E+00 g(S)=  0.000E+00 dE (1.order)= 0.000E+00
 bond charge predicted
       N       E                     dE             d eps       ncg     rms          rms(c)
DAV:   1    -0.133631598431E+03    0.26357E-04   -0.91790E-03  4482   0.224E-01    0.258E-02
RMM:   2    -0.133631653780E+03   -0.55349E-04   -0.56880E-04  5106   0.485E-02    0.172E-02
RMM:   3    -0.133631641745E+03    0.12036E-04   -0.22452E-05  2419   0.141E-02    0.168E-02
RMM:   4    -0.133631637445E+03    0.42998E-05   -0.11344E-05  2214   0.176E-02
 114 F= -.13363164E+03 E0= -.13363105E+03  d E =-.191637E-04
quench:  g(F)=  0.000E+00 g(S)=  0.000E+00 dE (1.order)= 0.000E+00
 bond charge predicted
       N       E                     dE             d eps       ncg     rms          rms(c)
DAV:   1    -0.133631633975E+03    0.77698E-05   -0.98474E-03  4113   0.190E-01    0.236E-02
RMM:   2    -0.133631678230E+03   -0.44256E-04   -0.46125E-04  4946   0.466E-02    0.166E-02
RMM:   3    -0.133631673030E+03    0.52002E-05   -0.20662E-05  2335   0.182E-02
 115 F= -.13363167E+03 E0= -.13363109E+03  d E =-.355856E-04
quench:  g(F)=  0.000E+00 g(S)=  0.000E+00 dE (1.order)= 0.000E+00
 bond charge predicted
       N       E                     dE             d eps       ncg     rms          rms(c)
DAV:   1    -0.133631649064E+03    0.29166E-04   -0.10453E-02  4437   0.235E-01    0.273E-02
RMM:   2    -0.133631709419E+03   -0.60354E-04   -0.62609E-04  5255   0.519E-02    0.172E-02
RMM:   3    -0.133631696990E+03    0.12429E-04   -0.27674E-05  2438   0.136E-02    0.165E-02
RMM:   4    -0.133631693069E+03    0.39215E-05   -0.11375E-05  2222   0.173E-02
 116 F= -.13363169E+03 E0= -.13363111E+03  d E =-.200382E-04
quench:  g(F)=  0.000E+00 g(S)=  0.000E+00 dE (1.order)= 0.000E+00
 bond charge predicted
       N       E                     dE             d eps       ncg     rms          rms(c)
DAV:   1    -0.133631690884E+03    0.61063E-05   -0.11548E-02  4122   0.206E-01    0.255E-02
RMM:   2    -0.133631743719E+03   -0.52835E-04   -0.55090E-04  5139   0.510E-02    0.179E-02
RMM:   3    -0.133631736795E+03    0.69240E-05   -0.23512E-05  2373   0.191E-02
 117 F= -.13363174E+03 E0= -.13363115E+03  d E =-.437264E-04
quench:  g(F)=  0.000E+00 g(S)=  0.000E+00 dE (1.order)= 0.000E+00
 bond charge predicted
       N       E                     dE             d eps       ncg     rms          rms(c)
DAV:   1    -0.133631714925E+03    0.28794E-04   -0.11692E-02  4437   0.248E-01    0.288E-02
RMM:   2    -0.133631783513E+03   -0.68588E-04   -0.71237E-04  5343   0.544E-02    0.191E-02
RMM:   3    -0.133631767969E+03    0.15544E-04   -0.24604E-05  2478   0.135E-02    0.176E-02
RMM:   4    -0.133631763987E+03    0.39816E-05   -0.12418E-05  2229   0.184E-02
 118 F= -.13363176E+03 E0= -.13363118E+03  d E =-.271922E-04
quench:  g(F)=  0.000E+00 g(S)=  0.000E+00 dE (1.order)= 0.000E+00
 bond charge predicted
       N       E                     dE             d eps       ncg     rms          rms(c)
DAV:   1    -0.133631759566E+03    0.84025E-05   -0.11693E-02  4113   0.208E-01    0.257E-02
RMM:   2    -0.133631815073E+03   -0.55507E-04   -0.57926E-04  5148   0.521E-02    0.186E-02
RMM:   3    -0.133631806724E+03    0.83492E-05   -0.24102E-05  2383   0.191E-02
 119 F= -.13363181E+03 E0= -.13363123E+03  d E =-.427365E-04
quench:  g(F)=  0.000E+00 g(S)=  0.000E+00 dE (1.order)= 0.000E+00
 bond charge predicted
       N       E                     dE             d eps       ncg     rms          rms(c)
DAV:   1    -0.133631780802E+03    0.34270E-04   -0.10171E-02  4518   0.236E-01    0.273E-02
RMM:   2    -0.133631843718E+03   -0.62916E-04   -0.64673E-04  5209   0.510E-02    0.189E-02
RMM:   3    -0.133631829451E+03    0.14268E-04   -0.25430E-05  2468   0.146E-02    0.179E-02
RMM:   4    -0.133631824621E+03    0.48296E-05   -0.12326E-05  2218   0.184E-02
 120 F= -.13363182E+03 E0= -.13363125E+03  d E =-.178973E-04
quench:  g(F)=  0.000E+00 g(S)=  0.000E+00 dE (1.order)= 0.000E+00
 bond charge predicted
       N       E                     dE             d eps       ncg     rms          rms(c)
DAV:   1    -0.133631820673E+03    0.87779E-05   -0.93315E-03  4113   0.184E-01    0.234E-02
RMM:   2    -0.133631864717E+03   -0.44044E-04   -0.45992E-04  4913   0.463E-02    0.171E-02
RMM:   3    -0.133631858837E+03    0.58796E-05   -0.20340E-05  2338   0.178E-02
 121 F= -.13363186E+03 E0= -.13363128E+03  d E =-.342161E-04
quench:  g(F)=  0.000E+00 g(S)=  0.000E+00 dE (1.order)= 0.000E+00
 bond charge predicted
       N       E                     dE             d eps       ncg     rms          rms(c)
DAV:   1    -0.133631833163E+03    0.31554E-04   -0.91374E-03  4482   0.223E-01    0.258E-02
RMM:   2    -0.133631888286E+03   -0.55123E-04   -0.56561E-04  5157   0.486E-02    0.169E-02
RMM:   3    -0.133631876384E+03    0.11901E-04   -0.21662E-05  2406   0.138E-02    0.165E-02
RMM:   4    -0.133631872155E+03    0.42290E-05   -0.11208E-05  2212   0.175E-02
 122 F= -.13363187E+03 E0= -.13363130E+03  d E =-.133183E-04
quench:  g(F)=  0.000E+00 g(S)=  0.000E+00 dE (1.order)= 0.000E+00
 bond charge predicted
       N       E                     dE             d eps       ncg     rms          rms(c)
DAV:   1    -0.133631860714E+03    0.15671E-04   -0.10212E-02  4113   0.193E-01    0.243E-02
RMM:   2    -0.133631906690E+03   -0.45977E-04   -0.47863E-04  5025   0.478E-02    0.169E-02
RMM:   3    -0.133631901613E+03    0.50770E-05   -0.21623E-05  2342   0.187E-02
 123 F= -.13363190E+03 E0= -.13363133E+03  d E =-.294579E-04
quench:  g(F)=  0.000E+00 g(S)=  0.000E+00 dE (1.order)= 0.000E+00
 bond charge predicted
       N       E                     dE             d eps       ncg     rms          rms(c)
DAV:   1    -0.133631867231E+03    0.39459E-04   -0.11188E-02  4446   0.242E-01    0.285E-02
RMM:   2    -0.133631931673E+03   -0.64442E-04   -0.67181E-04  5381   0.536E-02    0.178E-02
RMM:   3    -0.133631917983E+03    0.13690E-04   -0.27455E-05  2456   0.133E-02    0.165E-02
RMM:   4    -0.133631914350E+03    0.36331E-05   -0.11104E-05  2226   0.173E-02
 124 F= -.13363191E+03 E0= -.13363134E+03  d E =-.127368E-04
quench:  g(F)=  0.000E+00 g(S)=  0.000E+00 dE (1.order)= 0.000E+00
 bond charge predicted
       N       E                     dE             d eps       ncg     rms          rms(c)
DAV:   1    -0.133631900668E+03    0.17315E-04   -0.12615E-02  4113   0.216E-01    0.269E-02
RMM:   2    -0.133631959399E+03   -0.58730E-04   -0.61267E-04  5257   0.541E-02    0.187E-02
RMM:   3    -0.133631951586E+03    0.78132E-05   -0.26198E-05  2410   0.201E-02
 125 F= -.13363195E+03 E0= -.13363138E+03  d E =-.372355E-04
quench:  g(F)=  0.000E+00 g(S)=  0.000E+00 dE (1.order)= 0.000E+00
 bond charge predicted
       N       E                     dE             d eps       ncg     rms          rms(c)
DAV:   1    -0.133631914200E+03    0.45199E-04   -0.12523E-02  4482   0.258E-01    0.302E-02
RMM:   2    -0.133631988321E+03   -0.74121E-04   -0.77155E-04  5446   0.562E-02    0.202E-02
RMM:   3    -0.133631971394E+03    0.16927E-04   -0.27122E-05  2528   0.140E-02    0.184E-02
RMM:   4    -0.133631967049E+03    0.43445E-05   -0.13861E-05  2235   0.190E-02
 126 F= -.13363197E+03 E0= -.13363140E+03  d E =-.154634E-04
quench:  g(F)=  0.000E+00 g(S)=  0.000E+00 dE (1.order)= 0.000E+00
 bond charge predicted
       N       E                     dE             d eps       ncg     rms          rms(c)
DAV:   1    -0.133631955608E+03    0.15786E-04   -0.11838E-02  4113   0.209E-01    0.262E-02
RMM:   2    -0.133632013139E+03   -0.57531E-04   -0.60211E-04  5197   0.529E-02    0.192E-02
RMM:   3    -0.133632004135E+03    0.90044E-05   -0.25153E-05  2410   0.192E-02
 127 F= -.13363200E+03 E0= -.13363144E+03  d E =-.370857E-04
quench:  g(F)=  0.000E+00 g(S)=  0.000E+00 dE (1.order)= 0.000E+00
 bond charge predicted
       N       E                     dE             d eps       ncg     rms          rms(c)
DAV:   1    -0.133631974812E+03    0.38328E-04   -0.97621E-03  4527   0.234E-01    0.269E-02
RMM:   2    -0.133632036040E+03   -0.61228E-04   -0.62454E-04  5187   0.501E-02    0.190E-02
RMM:   3    -0.133632022032E+03    0.14007E-04   -0.25103E-05  2466   0.151E-02    0.183E-02
RMM:   4    -0.133632016821E+03    0.52117E-05   -0.12884E-05  2217   0.187E-02
 128 F= -.13363202E+03 E0= -.13363145E+03  d E =-.126860E-04
quench:  g(F)=  0.000E+00 g(S)=  0.000E+00 dE (1.order)= 0.000E+00
 bond charge predicted
       N       E                     dE             d eps       ncg     rms          rms(c)
DAV:   1    -0.133632009152E+03    0.12880E-04   -0.90735E-03  4104   0.181E-01    0.231E-02
RMM:   2    -0.133632051116E+03   -0.41964E-04   -0.43539E-04  4883   0.449E-02    0.167E-02
RMM:   3    -0.133632046057E+03    0.50585E-05   -0.19875E-05  2335   0.177E-02
 129 F= -.13363205E+03 E0= -.13363149E+03  d E =-.292365E-04
quench:  g(F)=  0.000E+00 g(S)=  0.000E+00 dE (1.order)= 0.000E+00
 bond charge predicted
       N       E                     dE             d eps       ncg     rms          rms(c)
DAV:   1    -0.133632015390E+03    0.35726E-04   -0.91724E-03  4473   0.223E-01    0.260E-02
RMM:   2    -0.133632069942E+03   -0.54552E-04   -0.56392E-04  5183   0.488E-02    0.166E-02
RMM:   3    -0.133632058169E+03    0.11773E-04   -0.21693E-05  2403   0.135E-02    0.160E-02
RMM:   4    -0.133632054414E+03    0.37556E-05   -0.10783E-05  2213   0.171E-02
 130 F= -.13363205E+03 E0= -.13363150E+03  d E =-.835668E-05
quench:  g(F)=  0.000E+00 g(S)=  0.000E+00 dE (1.order)= 0.000E+00
 bond charge predicted
       N       E                     dE             d eps       ncg     rms          rms(c)
DAV:   1    -0.133632035993E+03    0.22177E-04   -0.10638E-02  4113   0.198E-01    0.250E-02
RMM:   2    -0.133632083817E+03   -0.47824E-04   -0.49892E-04  5075   0.491E-02    0.171E-02
RMM:   3    -0.133632078659E+03    0.51576E-05   -0.22717E-05  2354   0.193E-02
 131 F= -.13363208E+03 E0= -.13363152E+03  d E =-.242451E-04
quench:  g(F)=  0.000E+00 g(S)=  0.000E+00 dE (1.order)= 0.000E+00
 bond charge predicted
       N       E                     dE             d eps       ncg     rms          rms(c)
DAV:   1    -0.133632036134E+03    0.47682E-04   -0.11849E-02  4419   0.249E-01    0.296E-02
RMM:   2    -0.133632104921E+03   -0.68787E-04   -0.72007E-04  5455   0.555E-02    0.185E-02
RMM:   3    -0.133632089655E+03    0.15266E-04   -0.26235E-05  2469   0.130E-02    0.166E-02
RMM:   4    -0.133632086404E+03    0.32510E-05   -0.11214E-05  2230   0.172E-02
 132 F= -.13363209E+03 E0= -.13363153E+03  d E =-.774484E-05
quench:  g(F)=  0.000E+00 g(S)=  0.000E+00 dE (1.order)= 0.000E+00
 bond charge predicted
       N       E                     dE             d eps       ncg     rms          rms(c)
DAV:   1    -0.133632065008E+03    0.24647E-04   -0.13314E-02  4113   0.224E-01    0.279E-02
RMM:   2    -0.133632128243E+03   -0.63235E-04   -0.66085E-04  5378   0.563E-02    0.192E-02
RMM:   3    -0.133632119403E+03    0.88402E-05   -0.27599E-05  2440   0.203E-02
 133 F= -.13363212E+03 E0= -.13363157E+03  d E =-.329989E-04
quench:  g(F)=  0.000E+00 g(S)=  0.000E+00 dE (1.order)= 0.000E+00
 bond charge predicted
       N       E                     dE             d eps       ncg     rms          rms(c)
DAV:   1    -0.133632077684E+03    0.50559E-04   -0.12904E-02  4482   0.263E-01    0.310E-02
RMM:   2    -0.133632155722E+03   -0.78038E-04   -0.80979E-04  5478   0.574E-02    0.208E-02
RMM:   3    -0.133632137928E+03    0.17794E-04   -0.28609E-05  2562   0.145E-02    0.194E-02
RMM:   4    -0.133632132507E+03    0.54206E-05   -0.14263E-05  2234   0.196E-02
 134 F= -.13363213E+03 E0= -.13363158E+03  d E =-.131045E-04
quench:  g(F)=  0.000E+00 g(S)=  0.000E+00 dE (1.order)= 0.000E+00
 bond charge predicted
       N       E                     dE             d eps       ncg     rms          rms(c)
DAV:   1    -0.133632119428E+03    0.18500E-04   -0.11908E-02  4113   0.209E-01    0.265E-02
RMM:   2    -0.133632177292E+03   -0.57864E-04   -0.60512E-04  5225   0.528E-02    0.195E-02
RMM:   3    -0.133632168258E+03    0.90345E-05   -0.25671E-05  2419   0.193E-02
 135 F= -.13363217E+03 E0= -.13363162E+03  d E =-.357502E-04
quench:  g(F)=  0.000E+00 g(S)=  0.000E+00 dE (1.order)= 0.000E+00
 bond charge predicted
       N       E                     dE             d eps       ncg     rms          rms(c)
DAV:   1    -0.133632137450E+03    0.39842E-04   -0.95650E-03  4554   0.234E-01    0.270E-02
RMM:   2    -0.133632198608E+03   -0.61158E-04   -0.62382E-04  5185   0.500E-02    0.189E-02
RMM:   3    -0.133632184601E+03    0.14008E-04   -0.24958E-05  2454   0.150E-02    0.182E-02
RMM:   4    -0.133632179375E+03    0.52255E-05   -0.12860E-05  2215   0.187E-02
 136 F= -.13363218E+03 E0= -.13363163E+03  d E =-.111177E-04
quench:  g(F)=  0.000E+00 g(S)=  0.000E+00 dE (1.order)= 0.000E+00
 bond charge predicted
       N       E                     dE             d eps       ncg     rms          rms(c)
DAV:   1    -0.133632169959E+03    0.14642E-04   -0.89892E-03  4104   0.181E-01    0.232E-02
RMM:   2    -0.133632211700E+03   -0.41742E-04   -0.43383E-04  4912   0.450E-02    0.166E-02
RMM:   3    -0.133632206768E+03    0.49322E-05   -0.19668E-05  2330   0.176E-02
 137 F= -.13363221E+03 E0= -.13363166E+03  d E =-.273930E-04
quench:  g(F)=  0.000E+00 g(S)=  0.000E+00 dE (1.order)= 0.000E+00
 bond charge predicted
       N       E                     dE             d eps       ncg     rms          rms(c)
DAV:   1    -0.133632173814E+03    0.37886E-04   -0.92410E-03  4446   0.224E-01    0.262E-02
RMM:   2    -0.133632228946E+03   -0.55131E-04   -0.56987E-04  5206   0.494E-02    0.165E-02
[...]
 465 F= -.13359658E+03 E0= -.13359680E+03  d E =0.341114E-03
quench:  g(F)=  0.000E+00 g(S)=  0.000E+00 dE (1.order)= 0.000E+00
 bond charge predicted
       N       E                     dE             d eps       ncg     rms          rms(c)
DAV:   1    -0.133595891763E+03    0.68549E-03   -0.81249E-02  4068   0.590E-01    0.816E-02
RMM:   2    -0.133596274989E+03   -0.38323E-03   -0.40379E-03  6257   0.138E-01    0.478E-02
RMM:   3    -0.133596236567E+03    0.38422E-04   -0.21510E-04  4419   0.397E-02    0.499E-02
RMM:   4    -0.133596173550E+03    0.63016E-04   -0.53484E-05  3451   0.317E-02    0.264E-02
RMM:   5    -0.133596171299E+03    0.22516E-05   -0.27879E-05  2457   0.234E-02
 466 F= -.13359617E+03 E0= -.13359639E+03  d E =0.407286E-03
quench:  g(F)=  0.000E+00 g(S)=  0.000E+00 dE (1.order)= 0.000E+00
 bond charge predicted
       N       E                     dE             d eps       ncg     rms          rms(c)
DAV:   1    -0.133595373968E+03    0.79958E-03   -0.10874E-01  4059   0.638E-01    0.902E-02
RMM:   2    -0.133595813942E+03   -0.43997E-03   -0.48114E-03  6478   0.149E-01    0.478E-02
RMM:   3    -0.133595732708E+03    0.81233E-04   -0.18287E-04  4207   0.381E-02    0.339E-02
RMM:   4    -0.133595741370E+03   -0.86613E-05   -0.61357E-05  3396   0.346E-02
 467 F= -.13359574E+03 E0= -.13359596E+03  d E =0.429929E-03
quench:  g(F)=  0.000E+00 g(S)=  0.000E+00 dE (1.order)= 0.000E+00
 bond charge predicted
       N       E                     dE             d eps       ncg     rms          rms(c)
DAV:   1    -0.133594768242E+03    0.96447E-03   -0.13572E-01  4050   0.759E-01    0.107E-01
RMM:   2    -0.133595414000E+03   -0.64576E-03   -0.68616E-03  6210   0.178E-01    0.610E-02
RMM:   3    -0.133595321526E+03    0.92474E-04   -0.33480E-04  4670   0.482E-02    0.579E-02
RMM:   4    -0.133595251480E+03    0.70045E-04   -0.85545E-05  3832   0.385E-02    0.358E-02
RMM:   5    -0.133595243776E+03    0.77040E-05   -0.45445E-05  2983   0.300E-02
 468 F= -.13359524E+03 E0= -.13359547E+03  d E =0.497593E-03
quench:  g(F)=  0.000E+00 g(S)=  0.000E+00 dE (1.order)= 0.000E+00
 bond charge predicted
       N       E                     dE             d eps       ncg     rms          rms(c)
DAV:   1    -0.133594177169E+03    0.10743E-02   -0.16919E-01  4032   0.803E-01    0.111E-01
RMM:   2    -0.133594847299E+03   -0.67013E-03   -0.72684E-03  6527   0.185E-01    0.575E-02
RMM:   3    -0.133594741110E+03    0.10619E-03   -0.30479E-04  4551   0.477E-02    0.421E-02
RMM:   4    -0.133594746878E+03   -0.57681E-05   -0.95647E-05  3811   0.393E-02
 469 F= -.13359475E+03 E0= -.13359498E+03  d E =0.496899E-03
quench:  g(F)=  0.000E+00 g(S)=  0.000E+00 dE (1.order)= 0.000E+00
 bond charge predicted
       N       E                     dE             d eps       ncg     rms          rms(c)
DAV:   1    -0.133593500815E+03    0.12403E-02   -0.18347E-01  4122   0.888E-01    0.127E-01
RMM:   2    -0.133594438054E+03   -0.93724E-03   -0.10061E-02  6086   0.209E-01    0.798E-02
RMM:   3    -0.133594274845E+03    0.16321E-03   -0.50240E-04  4645   0.606E-02    0.732E-02
RMM:   4    -0.133594165326E+03    0.10952E-03   -0.12467E-04  4012   0.470E-02    0.428E-02
RMM:   5    -0.133594155140E+03    0.10186E-04   -0.56608E-05  3112   0.306E-02    0.223E-02
RMM:   6    -0.133594152826E+03    0.23137E-05   -0.48625E-05  3244   0.342E-02
 470 F= -.13359415E+03 E0= -.13359438E+03  d E =0.594052E-03
quench:  g(F)=  0.000E+00 g(S)=  0.000E+00 dE (1.order)= 0.000E+00
 bond charge predicted
       N       E                     dE             d eps       ncg     rms          rms(c)
DAV:   1    -0.133593027858E+03    0.11273E-02   -0.17075E-01  4122   0.780E-01    0.107E-01
RMM:   2    -0.133593732985E+03   -0.70513E-03   -0.76412E-03  6331   0.186E-01    0.663E-02
RMM:   3    -0.133593623560E+03    0.10943E-03   -0.46249E-04  4743   0.605E-02    0.426E-02
RMM:   4    -0.133593616363E+03    0.71972E-05   -0.14539E-04  3961   0.493E-02    0.329E-02
RMM:   5    -0.133593610974E+03    0.53891E-05   -0.76303E-05  3570   0.362E-02
 471 F= -.13359361E+03 E0= -.13359385E+03  d E =0.541853E-03
quench:  g(F)=  0.000E+00 g(S)=  0.000E+00 dE (1.order)= 0.000E+00
 bond charge predicted
       N       E                     dE             d eps       ncg     rms          rms(c)
DAV:   1    -0.133593417387E+03    0.19898E-03   -0.36722E-02  4590   0.384E-01    0.650E-02
RMM:   2    -0.133593671090E+03   -0.25370E-03   -0.29318E-03  5501   0.950E-02    0.521E-02
RMM:   3    -0.133593595886E+03    0.75204E-04   -0.13817E-04  3953   0.260E-02    0.316E-02
RMM:   4    -0.133593605560E+03   -0.96741E-05   -0.46843E-05  2918   0.274E-02
 472 F= -.13359361E+03 E0= -.13359384E+03  d E =0.541366E-05
quench:  g(F)=  0.000E+00 g(S)=  0.000E+00 dE (1.order)= 0.000E+00
 bond charge predicted
       N       E                     dE             d eps       ncg     rms          rms(c)
DAV:   1    -0.133593230405E+03    0.36548E-03   -0.31354E-02  4518   0.421E-01    0.527E-02
RMM:   2    -0.133593376400E+03   -0.14599E-03   -0.16525E-03  6077   0.870E-02    0.267E-02
RMM:   3    -0.133593349997E+03    0.26402E-04   -0.81789E-05  2995   0.230E-02    0.205E-02
RMM:   4    -0.133593348458E+03    0.15395E-05   -0.22935E-05  2341   0.237E-02
 473 F= -.13359335E+03 E0= -.13359358E+03  d E =0.257102E-03
quench:  g(F)=  0.000E+00 g(S)=  0.000E+00 dE (1.order)= 0.000E+00
 bond charge predicted
       N       E                     dE             d eps       ncg     rms          rms(c)
DAV:   1    -0.133592837486E+03    0.51251E-03   -0.52114E-02  4131   0.461E-01    0.661E-02
RMM:   2    -0.133593060663E+03   -0.22318E-03   -0.24623E-03  6223   0.109E-01    0.375E-02
RMM:   3    -0.133593021223E+03    0.39439E-04   -0.10667E-04  3629   0.302E-02    0.295E-02
RMM:   4    -0.133593017930E+03    0.32931E-05   -0.29676E-05  2473   0.240E-02
 474 F= -.13359302E+03 E0= -.13359325E+03  d E =0.330528E-03
quench:  g(F)=  0.000E+00 g(S)=  0.000E+00 dE (1.order)= 0.000E+00
 bond charge predicted
       N       E                     dE             d eps       ncg     rms          rms(c)
DAV:   1    -0.133592336820E+03    0.68440E-03   -0.78712E-02  4104   0.583E-01    0.823E-02
RMM:   2    -0.133592686176E+03   -0.34936E-03   -0.38661E-03  6358   0.135E-01    0.457E-02
RMM:   3    -0.133592628596E+03    0.57580E-04   -0.16210E-04  4188   0.347E-02    0.367E-02
RMM:   4    -0.133592617832E+03    0.10764E-04   -0.50971E-05  3369   0.310E-02    0.300E-02
RMM:   5    -0.133592607582E+03    0.10250E-04   -0.29428E-05  2440   0.258E-02    0.178E-02
RMM:   6    -0.133592605181E+03    0.24012E-05   -0.27210E-05  2488   0.268E-02
 475 F= -.13359261E+03 E0= -.13359284E+03  d E =0.412749E-03
quench:  g(F)=  0.000E+00 g(S)=  0.000E+00 dE (1.order)= 0.000E+00
 bond charge predicted
       N       E                     dE             d eps       ncg     rms          rms(c)
DAV:   1    -0.133591784691E+03    0.82289E-03   -0.11340E-01  4032   0.641E-01    0.897E-02
RMM:   2    -0.133592207047E+03   -0.42236E-03   -0.46474E-03  6516   0.142E-01    0.499E-02
RMM:   3    -0.133592138827E+03    0.68220E-04   -0.21233E-04  4201   0.489E-02    0.379E-02
RMM:   4    -0.133592137626E+03    0.12005E-05   -0.70874E-05  3466   0.386E-02
 476 F= -.13359214E+03 E0= -.13359236E+03  d E =0.467555E-03
quench:  g(F)=  0.000E+00 g(S)=  0.000E+00 dE (1.order)= 0.000E+00
 bond charge predicted
       N       E                     dE             d eps       ncg     rms          rms(c)
DAV:   1    -0.133591074215E+03    0.10646E-02   -0.14819E-01  4041   0.782E-01    0.111E-01
RMM:   2    -0.133591793088E+03   -0.71887E-03   -0.73588E-03  6332   0.183E-01    0.679E-02
RMM:   3    -0.133591705917E+03    0.87171E-04   -0.42622E-04  4639   0.538E-02    0.706E-02
RMM:   4    -0.133591578945E+03    0.12697E-03   -0.10649E-04  3942   0.441E-02    0.361E-02
RMM:   5    -0.133591579090E+03   -0.14552E-06   -0.52681E-05  3047   0.301E-02
 477 F= -.13359158E+03 E0= -.13359182E+03  d E =0.558536E-03
quench:  g(F)=  0.000E+00 g(S)=  0.000E+00 dE (1.order)= 0.000E+00
 bond charge predicted
       N       E                     dE             d eps       ncg     rms          rms(c)
DAV:   1    -0.133590331468E+03    0.12475E-02   -0.19394E-01  4032   0.854E-01    0.119E-01
RMM:   2    -0.133591084934E+03   -0.75347E-03   -0.82498E-03  6619   0.194E-01    0.624E-02
RMM:   3    -0.133590962642E+03    0.12229E-03   -0.32614E-04  4585   0.496E-02    0.447E-02
RMM:   4    -0.133590971419E+03   -0.87772E-05   -0.10579E-04  3961   0.410E-02    0.379E-02
RMM:   5    -0.133590963472E+03    0.79467E-05   -0.56730E-05  3433   0.316E-02
 478 F= -.13359096E+03 E0= -.13359119E+03  d E =0.615618E-03
quench:  g(F)=  0.000E+00 g(S)=  0.000E+00 dE (1.order)= 0.000E+00
 bond charge predicted
       N       E                     dE             d eps       ncg     rms          rms(c)
DAV:   1    -0.133589498910E+03    0.14725E-02   -0.22778E-01  4041   0.939E-01    0.133E-01
RMM:   2    -0.133590526246E+03   -0.10273E-02   -0.11385E-02  6326   0.222E-01    0.747E-02
RMM:   3    -0.133590290284E+03    0.23596E-03   -0.40604E-04  5079   0.447E-02    0.477E-02
RMM:   4    -0.133590332627E+03   -0.42343E-04   -0.89460E-05  3897   0.336E-02    0.440E-02
RMM:   5    -0.133590278459E+03    0.54168E-04   -0.58705E-05  3600   0.348E-02    0.197E-02
RMM:   6    -0.133590274049E+03    0.44105E-05   -0.22033E-05  2299   0.227E-02
 479 F= -.13359027E+03 E0= -.13359051E+03  d E =0.689424E-03
quench:  g(F)=  0.000E+00 g(S)=  0.000E+00 dE (1.order)= 0.000E+00
 bond charge predicted
       N       E                     dE             d eps       ncg     rms          rms(c)
DAV:   1    -0.133588712842E+03    0.15656E-02   -0.26491E-01  4032   0.975E-01    0.132E-01
RMM:   2    -0.133589683535E+03   -0.97069E-03   -0.10408E-02  6625   0.215E-01    0.712E-02
RMM:   3    -0.133589554762E+03    0.12877E-03   -0.49034E-04  4472   0.729E-02    0.517E-02
RMM:   4    -0.133589546722E+03    0.80404E-05   -0.19377E-04  4079   0.618E-02    0.395E-02
RMM:   5    -0.133589541409E+03    0.53121E-05   -0.84055E-05  3645   0.370E-02
 480 F= -.13358954E+03 E0= -.13358977E+03  d E =0.732639E-03
quench:  g(F)=  0.000E+00 g(S)=  0.000E+00 dE (1.order)= 0.000E+00
 bond charge predicted
       N       E                     dE             d eps       ncg     rms          rms(c)
DAV:   1    -0.133588284083E+03    0.12626E-02   -0.15933E-01  4059   0.745E-01    0.126E-01
RMM:   2    -0.133589225684E+03   -0.94160E-03   -0.10940E-02  5883   0.192E-01    0.922E-02
RMM:   3    -0.133588950209E+03    0.27547E-03   -0.49456E-04  5674   0.415E-02    0.579E-02
RMM:   4    -0.133588983258E+03   -0.33049E-04   -0.16134E-04  4101   0.481E-02    0.556E-02
RMM:   5    -0.133588898334E+03    0.84924E-04   -0.74819E-05  3439   0.331E-02    0.151E-02
RMM:   6    -0.133588897223E+03    0.11104E-05   -0.29831E-05  2518   0.261E-02
 481 F= -.13358890E+03 E0= -.13358913E+03  d E =0.644186E-03
quench:  g(F)=  0.000E+00 g(S)=  0.000E+00 dE (1.order)= 0.000E+00
 bond charge predicted
       N       E                     dE             d eps       ncg     rms          rms(c)
DAV:   1    -0.133588788323E+03    0.11001E-03   -0.39831E-02  4149   0.372E-01    0.544E-02
RMM:   2    -0.133588990936E+03   -0.20261E-03   -0.21994E-03  6124   0.950E-02    0.398E-02
RMM:   3    -0.133588950276E+03    0.40661E-04   -0.11516E-04  3751   0.280E-02    0.246E-02
RMM:   4    -0.133588955360E+03   -0.50845E-05   -0.52983E-05  3287   0.322E-02
 482 F= -.13358896E+03 E0= -.13358920E+03  d E =-.581370E-04
quench:  g(F)=  0.000E+00 g(S)=  0.000E+00 dE (1.order)= 0.000E+00
 bond charge predicted
       N       E                     dE             d eps       ncg     rms          rms(c)
DAV:   1    -0.133588491424E+03    0.45885E-03   -0.39597E-02  4347   0.448E-01    0.578E-02
RMM:   2    -0.133588697201E+03   -0.20578E-03   -0.21441E-03  6004   0.101E-01    0.348E-02
RMM:   3    -0.133588665935E+03    0.31266E-04   -0.12210E-04  4100   0.330E-02    0.338E-02
RMM:   4    -0.133588640022E+03    0.25912E-04   -0.26464E-05  2365   0.243E-02    0.198E-02
RMM:   5    -0.133588641246E+03   -0.12235E-05   -0.23225E-05  2412   0.234E-02
 483 F= -.13358864E+03 E0= -.13358888E+03  d E =0.314114E-03
quench:  g(F)=  0.000E+00 g(S)=  0.000E+00 dE (1.order)= 0.000E+00
 bond charge predicted
       N       E                     dE             d eps       ncg     rms          rms(c)
DAV:   1    -0.133588031761E+03    0.60826E-03   -0.64828E-02  4050   0.494E-01    0.699E-02
RMM:   2    -0.133588302077E+03   -0.27032E-03   -0.29649E-03  6452   0.117E-01    0.377E-02
RMM:   3    -0.133588249924E+03    0.52154E-04   -0.10455E-04  3463   0.273E-02    0.256E-02
RMM:   4    -0.133588256551E+03   -0.66268E-05   -0.31439E-05  2532   0.258E-02
 484 F= -.13358826E+03 E0= -.13358850E+03  d E =0.384695E-03
quench:  g(F)=  0.000E+00 g(S)=  0.000E+00 dE (1.order)= 0.000E+00
 bond charge predicted
       N       E                     dE             d eps       ncg     rms          rms(c)
DAV:   1    -0.133587434278E+03    0.81565E-03   -0.96983E-02  4113   0.639E-01    0.883E-02
RMM:   2    -0.133587871932E+03   -0.43765E-03   -0.47044E-03  6332   0.149E-01    0.497E-02
RMM:   3    -0.133587802802E+03    0.69130E-04   -0.20807E-04  4413   0.421E-02    0.443E-02
RMM:   4    -0.133587776463E+03    0.26339E-04   -0.61323E-05  3536   0.343E-02    0.309E-02
RMM:   5    -0.133587768812E+03    0.76505E-05   -0.29974E-05  2415   0.260E-02
 485 F= -.13358777E+03 E0= -.13358801E+03  d E =0.487738E-03
quench:  g(F)=  0.000E+00 g(S)=  0.000E+00 dE (1.order)= 0.000E+00
 bond charge predicted
       N       E                     dE             d eps       ncg     rms          rms(c)
DAV:   1    -0.133586772247E+03    0.10042E-02   -0.13547E-01  4032   0.718E-01    0.995E-02
RMM:   2    -0.133587331731E+03   -0.55948E-03   -0.61230E-03  6516   0.169E-01    0.532E-02
RMM:   3    -0.133587236016E+03    0.95715E-04   -0.23550E-04  4419   0.404E-02    0.390E-02
RMM:   4    -0.133587243907E+03   -0.78913E-05   -0.66298E-05  3495   0.319E-02
 486 F= -.13358724E+03 E0= -.13358749E+03  d E =0.524905E-03
quench:  g(F)=  0.000E+00 g(S)=  0.000E+00 dE (1.order)= 0.000E+00
 bond charge predicted
       N       E                     dE             d eps       ncg     rms          rms(c)
DAV:   1    -0.133585989427E+03    0.12466E-02   -0.17800E-01  4050   0.869E-01    0.120E-01
RMM:   2    -0.133586788029E+03   -0.79860E-03   -0.87297E-03  6247   0.202E-01    0.676E-02
RMM:   3    -0.133586630652E+03    0.15738E-03   -0.36275E-04  4609   0.545E-02    0.508E-02
RMM:   4    -0.133586629530E+03    0.11219E-05   -0.11316E-04  4017   0.438E-02    0.429E-02
RMM:   5    -0.133586609679E+03    0.19851E-04   -0.61766E-05  3549   0.343E-02    0.268E-02
RMM:   6    -0.133586599697E+03    0.99818E-05   -0.48500E-05  3144   0.340E-02
 487 F= -.13358660E+03 E0= -.13358685E+03  d E =0.644209E-03
quench:  g(F)=  0.000E+00 g(S)=  0.000E+00 dE (1.order)= 0.000E+00
 bond charge predicted
       N       E                     dE             d eps       ncg     rms          rms(c)
DAV:   1    -0.133585222219E+03    0.13875E-02   -0.23051E-01  4032   0.912E-01    0.127E-01
RMM:   2    -0.133586088671E+03   -0.86645E-03   -0.94399E-03  6412   0.205E-01    0.716E-02
RMM:   3    -0.133585946243E+03    0.14243E-03   -0.45127E-04  4351   0.728E-02    0.549E-02
RMM:   4    -0.133585942235E+03    0.40082E-05   -0.14771E-04  3968   0.542E-02    0.405E-02
RMM:   5    -0.133585946551E+03   -0.43169E-05   -0.71769E-05  3530   0.317E-02
 488 F= -.13358595E+03 E0= -.13358619E+03  d E =0.653146E-03
quench:  g(F)=  0.000E+00 g(S)=  0.000E+00 dE (1.order)= 0.000E+00
 bond charge predicted
       N       E                     dE             d eps       ncg     rms          rms(c)
DAV:   1    -0.133584265504E+03    0.16767E-02   -0.27829E-01  4032   0.103E+00    0.144E-01
RMM:   2    -0.133585449019E+03   -0.11835E-02   -0.13062E-02  6288   0.243E-01    0.812E-02
RMM:   3    -0.133585194417E+03    0.25460E-03   -0.49555E-04  4684   0.625E-02    0.528E-02
RMM:   4    -0.133585195215E+03   -0.79798E-06   -0.11437E-04  3942   0.404E-02    0.373E-02
RMM:   5    -0.133585198691E+03   -0.34757E-05   -0.83001E-05  3829   0.405E-02
 489 F= -.13358520E+03 E0= -.13358545E+03  d E =0.747861E-03
quench:  g(F)=  0.000E+00 g(S)=  0.000E+00 dE (1.order)= 0.000E+00
 bond charge predicted
       N       E                     dE             d eps       ncg     rms          rms(c)
DAV:   1    -0.133583260140E+03    0.19351E-02   -0.33871E-01  4032   0.115E+00    0.155E-01
RMM:   2    -0.133584690443E+03   -0.14303E-02   -0.15324E-02  6258   0.272E-01    0.861E-02
RMM:   3    -0.133584438468E+03    0.25198E-03   -0.73695E-04  4731   0.734E-02    0.663E-02
RMM:   4    -0.133584418366E+03    0.20102E-04   -0.17590E-04  4214   0.412E-02    0.511E-02
RMM:   5    -0.133584403974E+03    0.14392E-04   -0.11707E-04  3909   0.455E-02    0.370E-02
RMM:   6    -0.133584378230E+03    0.25744E-04   -0.66110E-05  3500   0.375E-02    0.136E-02
RMM:   7    -0.133584374448E+03    0.37822E-05   -0.13703E-05  2234   0.175E-02
 490 F= -.13358437E+03 E0= -.13358462E+03  d E =0.824243E-03
quench:  g(F)=  0.000E+00 g(S)=  0.000E+00 dE (1.order)= 0.000E+00
 bond charge predicted
       N       E                     dE             d eps       ncg     rms          rms(c)
DAV:   1    -0.133582450253E+03    0.19280E-02   -0.31805E-01  4032   0.102E+00    0.161E-01
RMM:   2    -0.133583859381E+03   -0.14091E-02   -0.16264E-02  6201   0.233E-01    0.106E-01
RMM:   3    -0.133583486408E+03    0.37297E-03   -0.68133E-04  4937   0.592E-02    0.626E-02
RMM:   4    -0.133583475434E+03    0.10973E-04   -0.17772E-04  4096   0.505E-02    0.459E-02
RMM:   5    -0.133583456348E+03    0.19086E-04   -0.13905E-04  3974   0.557E-02    0.224E-02
RMM:   6    -0.133583452777E+03    0.35708E-05   -0.30592E-05  2601   0.263E-02
 491 F= -.13358345E+03 E0= -.13358370E+03  d E =0.921671E-03
quench:  g(F)=  0.000E+00 g(S)=  0.000E+00 dE (1.order)= 0.000E+00
 bond charge predicted
       N       E                     dE             d eps       ncg     rms          rms(c)
DAV:   1    -0.133582612752E+03    0.84360E-03   -0.15388E-01  4131   0.722E-01    0.106E-01
RMM:   2    -0.133583362236E+03   -0.74948E-03   -0.82801E-03  6147   0.184E-01    0.778E-02
RMM:   3    -0.133583203543E+03    0.15869E-03   -0.47886E-04  5202   0.515E-02    0.449E-02
RMM:   4    -0.133583182249E+03    0.21294E-04   -0.14680E-04  3951   0.423E-02    0.332E-02
RMM:   5    -0.133583162059E+03    0.20191E-04   -0.81661E-05  3577   0.397E-02    0.160E-02
RMM:   6    -0.133583158490E+03    0.35692E-05   -0.23988E-05  2430   0.205E-02
 492 F= -.13358316E+03 E0= -.13358340E+03  d E =0.294287E-03
quench:  g(F)=  0.000E+00 g(S)=  0.000E+00 dE (1.order)= 0.000E+00
 bond charge predicted
       N       E                     dE             d eps       ncg     rms          rms(c)
DAV:   1    -0.133583014187E+03    0.14787E-03   -0.27032E-02  4131   0.284E-01    0.516E-02
RMM:   2    -0.133583174542E+03   -0.16036E-03   -0.17931E-03  5683   0.767E-02    0.391E-02
RMM:   3    -0.133583131608E+03    0.42934E-04   -0.75615E-05  3029   0.192E-02    0.245E-02
RMM:   4    -0.133583138537E+03   -0.69293E-05   -0.32571E-05  2592   0.267E-02
 493 F= -.13358314E+03 E0= -.13358338E+03  d E =0.199523E-04
quench:  g(F)=  0.000E+00 g(S)=  0.000E+00 dE (1.order)= 0.000E+00
 bond charge predicted
       N       E                     dE             d eps       ncg     rms          rms(c)
DAV:   1    -0.133582662234E+03    0.46937E-03   -0.44358E-02  4248   0.445E-01    0.628E-02
RMM:   2    -0.133582875133E+03   -0.21290E-03   -0.24330E-03  5989   0.103E-01    0.371E-02
RMM:   3    -0.133582817907E+03    0.57226E-04   -0.82532E-05  3246   0.269E-02    0.230E-02
RMM:   4    -0.133582818124E+03   -0.21661E-06   -0.27652E-05  2459   0.256E-02
