 vasp.5.4.4.18Apr17-6-g9f103f2a35 (build Feb 06 2024 13:54:16) complex          
  
 POSCAR found type information on POSCAR  Cu Rh Cu N  O 
 04/POSCAR found :  5 types and      40 ions
 scaLAPACK will be used

 ----------------------------------------------------------------------------- 
|                                                                             |
|  ADVICE TO THIS USER RUNNING 'VASP/VAMP'   (HEAR YOUR MASTER'S VOICE ...):  |
|                                                                             |
|      You enforced a specific xc-type in the INCAR file,                     |
|      a different type was found on the POTCAR file                          |
|          I HOPE YOU KNOW, WHAT YOU ARE  DOING                               |
|                                                                             |
 ----------------------------------------------------------------------------- 

 LDA part: xc-table for Pade appr. of Perdew
 POSCAR found type information on POSCAR  Cu Rh Cu N  O 
 00/POSCAR found :  5 types and      40 ions
 POSCAR found type information on POSCAR  Cu Rh Cu N  O 
 06/POSCAR found :  5 types and      40 ions
 Jacobian:    20.5888137679208     
 POSCAR, INCAR and KPOINTS ok, starting setup
 FFT: planning ...
 WAVECAR not read
 entering main loop
       N       E                     dE             d eps       ncg     rms          rms(c)
  Solvation turned off during non-self-consistent phase (first NELMDL steps)
DAV:   1     0.436618852760E+04    0.43662E+04   -0.18121E+05  4080   0.203E+03
DAV:   2     0.628304506123E+03   -0.37379E+04   -0.36099E+04  4080   0.473E+02
DAV:   3    -0.311450416171E+02   -0.65945E+03   -0.60951E+03  4908   0.235E+02
DAV:   4    -0.152362135675E+03   -0.12122E+03   -0.10662E+03  7017   0.942E+01
DAV:   5    -0.164677205179E+03   -0.12315E+02   -0.11757E+02  6306   0.321E+01    0.456E+01
 Begin Solvation calculations
  rms_SCF =    8.92025964995133      tol =   0.892025964995133     
 Begin minimization
 Creating dielectric and ionic cavities
  area:      169.461644058885     
  volume:    679.711189867258     
  Acav:     8.896736313091436E-002
  Solving linear dielectric/ionic screening model
        iter                  A_solv                     rms
   LPB:       -0.377913662357219E+03   0.241479058134478E+03
   LPB:    0  -0.164222823714187E+02   0.584015810722398E+02  -0.469287E+01   0.000000E+00   0.328284E+02  -0.154060E+03
   LPB:    1  -0.261558956276161E+01   0.779806016354584E+01   0.990645E-02   0.000000E+00   0.805774E+02  -0.117480E-13
   LPB:    2  -0.919164367691167E+00   0.131245822531658E+01   0.142523E-01   0.854040E-01   0.315232E+03   0.473132E-14
   LPB:    3  -0.576124235078339E+00   0.164371168433004E+01   0.264658E-01   0.108896E+00   0.537260E+03   0.135411E-13
   LPB:    4  -0.469280571169691E+00   0.120560435729273E+01   0.238277E-01   0.345945E+00   0.867159E+02   0.141248E-13
   LPB:    5  -0.414465051792035E+00   0.684112188325466E+00   0.231721E-01   0.527558E+00   0.466780E+03   0.235802E-13
  Finished solving LPB equations
  A_corr:   -0.325497688661121     
 End minimization
 Ecorr=   1838.37371789032     
 A_corr= -0.325497688661121     
 Ecorr_band=  -1838.69921557898     
 End Solvation calculations
RMM:   6    -0.182624828124E+03   -0.17948E+02   -0.38564E+02  4145   0.968E+01    0.473E+01
 Begin Solvation calculations
  rms_SCF =    8.92025964995133      tol =   0.892025964995133     
 Begin minimization
 Creating dielectric and ionic cavities
  area:      193.746002335077     
  volume:    696.390147074432     
  Acav:     0.101716651225915     
  Solving linear dielectric/ionic screening model
        iter                  A_solv                     rms
   LPB:       -0.262857138498609E+02   0.887089275850435E+02
   LPB:    0  -0.253390056078295E+02   0.872627397532229E+02   0.243071E+00   0.000000E+00   0.320465E+02   0.778957E+01
   LPB:    1  -0.239785717010245E+01   0.803170652685787E+01   0.905938E-02   0.000000E+00   0.732666E+02   0.180817E-15
   LPB:    2  -0.616500520519928E+00   0.173807859364937E+01   0.155834E-01   0.451410E-01   0.153060E+03   0.309975E-14
   LPB:    3  -0.362088757538128E+00   0.970926008040338E+00   0.236725E-01   0.940168E-01   0.170701E+03   0.681709E-15
   LPB:    4  -0.291633384369945E+00   0.978791132777476E+00   0.237767E-01   0.275720E+00   0.298599E+03   0.892913E-14
   LPB:    5  -0.258712731769155E+00   0.476794861260149E+00   0.239075E-01   0.464700E+00   0.114149E+03   0.161586E-13
  Finished solving LPB equations
  A_corr:   -0.156996080543239     
 End minimization
 Ecorr=   1750.43881607462     
 A_corr= -0.156996080543239     
 Ecorr_band=  -1750.59581215517     
 End Solvation calculations
RMM:   7    -0.155383176728E+03    0.27242E+02   -0.13268E+02  4209   0.483E+01    0.239E+01
 Begin Solvation calculations
  rms_SCF =    8.92025964995133      tol =   0.892025964995133     
 Begin minimization
 Creating dielectric and ionic cavities
  area:      172.792898977571     
  volume:    700.209602111458     
  Acav:     9.071627196322464E-002
  Solving linear dielectric/ionic screening model
        iter                  A_solv                     rms
   LPB:       -0.592956783648547E+01   0.415784842797934E+02
   LPB:    0  -0.582216206880146E+01   0.412627115771243E+02   0.821023E-01   0.000000E+00   0.318675E+02   0.261639E+01
   LPB:    1  -0.727968113317064E+00   0.395693304212405E+01   0.906225E-02   0.000000E+00   0.728076E+02  -0.931049E-16
   LPB:    2  -0.298933331218981E+00   0.636679066170238E+00   0.165340E-01   0.461609E-01   0.133032E+03   0.101243E-13
   LPB:    3  -0.232490295652952E+00   0.251747595821143E+00   0.231043E-01   0.110826E+00   0.328234E+03   0.123198E-13
   LPB:    4  -0.215925988325247E+00   0.392530465560064E+00   0.265005E-01   0.217351E+00   0.573461E+03   0.134502E-13
  Finished solving LPB equations
  A_corr:   -0.125209716362022     
 End minimization
 Ecorr=   1719.03509988476     
 A_corr= -0.125209716362022     
 Ecorr_band=  -1719.16030960112     
 End Solvation calculations
RMM:   8    -0.141261819045E+03    0.14121E+02   -0.10746E+01  4165   0.139E+01    0.156E+01
 Begin Solvation calculations
  rms_SCF =    3.25334505069147      tol =   0.325334505069147     
 Begin minimization
 Creating dielectric and ionic cavities
  area:      174.233441444172     
  volume:    699.310074148342     
  Acav:     9.147255675819027E-002
  Solving linear dielectric/ionic screening model
        iter                  A_solv                     rms
   LPB:       -0.684133880021761E+00   0.116507036898201E+02
   LPB:    0  -0.683989408469770E+00   0.116692351119629E+02   0.300916E-02   0.000000E+00   0.319096E+02   0.960212E-01
   LPB:    1  -0.270652368512698E+00   0.119125622847614E+01   0.903509E-02   0.000000E+00   0.732254E+02   0.628733E-17
   LPB:    2  -0.228544484045551E+00   0.259431931995468E+00   0.186398E-01   0.493800E-01   0.102852E+03   0.501531E-14
   LPB:    3  -0.219484785988863E+00   0.245407423423887E+00   0.244341E-01   0.164133E+00   0.283002E+03   0.620572E-14
   LPB:    4  -0.214107928558278E+00   0.242719270007312E+00   0.365946E-01   0.396272E+00   0.559901E+02   0.570036E-14
  Finished solving LPB equations
  A_corr:   -0.122635371800088     
 End minimization
 Ecorr=   1686.73184970526     
 A_corr= -0.122635371800088     
 Ecorr_band=  -1686.85448507706     
 End Solvation calculations
RMM:   9    -0.138376641283E+03    0.28852E+01   -0.62759E+00  4171   0.103E+01    0.926E+00
 Begin Solvation calculations
  rms_SCF =    3.25334505069147      tol =   0.325334505069147     
 Begin minimization
 Creating dielectric and ionic cavities
  area:      162.353299067613     
  volume:    697.463805155778     
  Acav:     8.523548201049677E-002
  Solving linear dielectric/ionic screening model
        iter                  A_solv                     rms
   LPB:       -0.136940381891031E+01   0.177489532737453E+02
   LPB:    0  -0.133504751800938E+01   0.176848402674700E+02   0.463414E-01   0.000000E+00   0.319962E+02   0.148275E+01
   LPB:    1  -0.375505068088225E+00   0.171939506058110E+01   0.917494E-02   0.000000E+00   0.728218E+02  -0.749371E-16
   LPB:    2  -0.282794367610306E+00   0.313256114757345E+00   0.166589E-01   0.532137E-01   0.147676E+03   0.111185E-14
   LPB:    3  -0.264893792768168E+00   0.195017750664609E+00   0.249940E-01   0.128691E+00   0.373654E+03   0.177934E-15
   LPB:    4  -0.257432899605184E+00   0.121212870229886E+00   0.344064E-01   0.302775E+00   0.180725E+03  -0.248076E-16
  Finished solving LPB equations
  A_corr:   -0.172197417594687     
 End minimization
 Ecorr=   1650.56930697535     
 A_corr= -0.172197417594687     
 Ecorr_band=  -1650.74150439295     
 End Solvation calculations
RMM:  10    -0.136979935240E+03    0.13967E+01   -0.42257E+00  4177   0.534E+00    0.106E+01
 Begin Solvation calculations
  rms_SCF =    2.76995991023488      tol =   0.276995991023488     
 Begin minimization
 Creating dielectric and ionic cavities
  area:      157.690951497632     
  volume:    695.775276420891     
  Acav:     8.278774953625655E-002
  Solving linear dielectric/ionic screening model
        iter                  A_solv                     rms
   LPB:       -0.300287625574106E+00   0.235902010029377E+01
   LPB:    0  -0.300279942201630E+00   0.236628458284818E+01   0.692158E-03   0.000000E+00   0.320753E+02   0.222012E-01
   LPB:    1  -0.274497335307097E+00   0.442834681668397E+00   0.107773E-01   0.000000E+00   0.764674E+02  -0.265035E-18
   LPB:    2  -0.269611190051193E+00   0.115894278091198E+00   0.166518E-01   0.122656E+00   0.217970E+03   0.311738E-14
   LPB:    3  -0.264191603887967E+00   0.208874510748809E+00   0.585677E-01   0.315357E+00   0.119788E+03   0.378380E-14
   LPB:    4  -0.260299056056970E+00   0.257164488535813E+00   0.319908E-01   0.131492E+01   0.441991E+02   0.438159E-14
  Finished solving LPB equations
  A_corr:   -0.177511306520713     
 End minimization
 Ecorr=   1629.54428495619     
 A_corr= -0.177511306520713     
 Ecorr_band=  -1629.72179626271     
 End Solvation calculations
RMM:  11    -0.136159269882E+03    0.82067E+00   -0.50613E-01  4366   0.177E+00    0.446E+00
 Begin Solvation calculations
  rms_SCF =   0.365949573099564      tol =   3.659495730995641E-002
 Begin minimization
 Creating dielectric and ionic cavities
  area:      150.105905820088     
  volume:    690.322153787233     
  Acav:     7.880560055554638E-002
  Solving linear dielectric/ionic screening model
        iter                  A_solv                     rms
   LPB:       -0.345581155402095E+00   0.221827849230001E+01
   LPB:    0  -0.345259137213400E+00   0.228787023563858E+01   0.446319E-02   0.000000E+00   0.323310E+02   0.144299E+00
   LPB:    1  -0.292415177152792E+00   0.828794482013829E+00   0.129649E-01   0.000000E+00   0.111113E+03   0.753819E-17
   LPB:    2  -0.286136702188450E+00   0.163203770529101E+00   0.127818E-01   0.120513E+00   0.186542E+03   0.386335E-14
   LPB:    3  -0.283304510144492E+00   0.152342605367970E+00   0.300563E-01   0.191834E+00   0.329227E+03   0.429510E-14
   LPB:    4  -0.281074784646156E+00   0.210964903263962E+00   0.358528E-01   0.659996E+00   0.820662E+02   0.448531E-14
   LPB:    5  -0.278987124549984E+00   0.198733758792245E+00   0.298759E-01   0.112360E+01   0.244708E+03   0.439036E-14
   LPB:    6  -0.277195169404304E+00   0.740912317273674E-01   0.331952E-01   0.772526E+00   0.495163E+02   0.667565E-14
   LPB:    7  -0.276089590734395E+00   0.413141039031375E-01   0.326865E-01   0.626570E+00   0.132199E+03   0.723925E-14
   LPB:    8  -0.275446015864464E+00   0.253212522615247E-01   0.341240E-01   0.557592E+00   0.121249E+03   0.755543E-14
  Finished solving LPB equations
  A_corr:   -0.196640415308917     
 End minimization
 Ecorr=   1602.91629513880     
 A_corr= -0.196640415308917     
 Ecorr_band=  -1603.11293555411     
 End Solvation calculations
RMM:  12    -0.136584819335E+03   -0.42555E+00   -0.17580E+00  4148   0.349E+00    0.547E+00
 Begin Solvation calculations
  rms_SCF =   0.365949573099564      tol =   3.659495730995641E-002
 Begin minimization
 Creating dielectric and ionic cavities
  area:      145.457325842078     
  volume:    684.581715013388     
  Acav:     7.636509606709115E-002
  Solving linear dielectric/ionic screening model
        iter                  A_solv                     rms
   LPB:       -0.380516006419725E+00   0.236198062042230E+01
   LPB:    0  -0.380356321408831E+00   0.244896090882211E+01   0.312995E-02   0.000000E+00   0.326001E+02   0.102037E+00
   LPB:    1  -0.321995829887859E+00   0.838156807407708E+00   0.128806E-01   0.000000E+00   0.950857E+02  -0.136797E-17
   LPB:    2  -0.313244551595197E+00   0.226947495749081E+00   0.145879E-01   0.132403E+00   0.207387E+03   0.342167E-14
   LPB:    3  -0.310529025388792E+00   0.193121145845801E+00   0.211159E-01   0.214371E+00   0.372968E+03   0.375444E-14
   LPB:    4  -0.309552119003133E+00   0.132430841307054E+00   0.204592E-01   0.371296E+00   0.116607E+03   0.394616E-14
   LPB:    5  -0.308824383045192E+00   0.843102812838226E-01   0.300393E-01   0.507363E+00   0.306183E+03   0.342477E-14
   LPB:    6  -0.308177457176906E+00   0.368021083514726E-01   0.399578E-01   0.668296E+00   0.118852E+03   0.324953E-14
   LPB:    7  -0.307590163250844E+00   0.267278547625894E-01   0.405635E-01   0.894267E+00   0.127476E+03   0.378899E-14
  Finished solving LPB equations
  A_corr:   -0.231225067183753     
 End minimization
 Ecorr=   1582.62729228406     
 A_corr= -0.231225067183753     
 Ecorr_band=  -1582.85851735124     
 End Solvation calculations
RMM:  13    -0.136602019860E+03   -0.17201E-01   -0.35534E-01  4148   0.222E+00    0.617E+00
 Begin Solvation calculations
  rms_SCF =   0.365949573099564      tol =   3.659495730995641E-002
 Begin minimization
 Creating dielectric and ionic cavities
  area:      144.776053720669     
  volume:    682.985582974251     
  Acav:     7.600742820335130E-002
  Solving linear dielectric/ionic screening model
        iter                  A_solv                     rms
   LPB:       -0.337750256585679E+00   0.617381887241491E+00
   LPB:    0  -0.334771765932077E+00   0.712362588586113E+00   0.135022E-01   0.000000E+00   0.326749E+02   0.441185E+00
   LPB:    1  -0.325439610985537E+00   0.417376835369854E+00   0.151560E-01   0.000000E+00   0.131484E+03   0.159500E-16
   LPB:    2  -0.323784105972080E+00   0.127604877654323E+00   0.149149E-01   0.180266E+00   0.127195E+03  -0.317280E-14
   LPB:    3  -0.323157953409542E+00   0.686760972105342E-01   0.205512E-01   0.274494E+00   0.357334E+03  -0.377604E-14
   LPB:    4  -0.322848181169326E+00   0.851656193804192E-01   0.301680E-01   0.337018E+00   0.993571E+02  -0.395079E-14
   LPB:    5  -0.322496669044977E+00   0.842813658520989E-01   0.329804E-01   0.103798E+01   0.229126E+03  -0.401119E-14
   LPB:    6  -0.322087167654106E+00   0.386053984958999E-01   0.392971E-01   0.977712E+00   0.518458E+02  -0.403858E-14
   LPB:    7  -0.321798851052649E+00   0.198020670365421E-01   0.342177E-01   0.808580E+00   0.137552E+03  -0.417549E-14
  Finished solving LPB equations
  A_corr:   -0.245791422849298     
 End minimization
 Ecorr=   1566.83045922648     
 A_corr= -0.245791422849298     
 Ecorr_band=  -1567.07625064933     
 End Solvation calculations
RMM:  14    -0.136112736200E+03    0.48928E+00   -0.17380E-01  4148   0.124E+00    0.313E+00
 Begin Solvation calculations
  rms_SCF =   0.365949573099564      tol =   3.659495730995641E-002
 Begin minimization
 Creating dielectric and ionic cavities
  area:      144.715901820867     
  volume:    681.366104127471     
  Acav:     7.597584845595540E-002
  Solving linear dielectric/ionic screening model
        iter                  A_solv                     rms
   LPB:       -0.341907531559848E+00   0.395289137937912E+00
   LPB:    0  -0.341016957717745E+00   0.551915017403477E+00   0.737460E-02   0.000000E+00   0.327509E+02   0.241525E+00
   LPB:    1  -0.332835426353876E+00   0.269587602922917E+00   0.154169E-01   0.000000E+00   0.179656E+03   0.447738E-17
   LPB:    2  -0.331741623968444E+00   0.988551165807682E-01   0.161142E-01   0.127907E+00   0.124673E+03  -0.679417E-15
   LPB:    3  -0.331433699263581E+00   0.435300360938598E-01   0.199446E-01   0.227452E+00   0.208538E+03  -0.548656E-15
   LPB:    4  -0.331315412975178E+00   0.616711388704688E-01   0.244611E-01   0.313213E+00   0.211412E+03  -0.402071E-15
   LPB:    5  -0.331218686070021E+00   0.590125307583702E-01   0.253424E-01   0.789297E+00   0.184504E+03  -0.337606E-15
   LPB:    6  -0.331093199093987E+00   0.251353594479055E-01   0.385973E-01   0.851808E+00   0.670102E+02  -0.209976E-15
  Finished solving LPB equations
  A_corr:   -0.255117350638032     
 End minimization
 Ecorr=   1558.80899058487     
 A_corr= -0.255117350638032     
 Ecorr_band=  -1559.06410793551     
 End Solvation calculations
RMM:  15    -0.135998236902E+03    0.11450E+00   -0.12506E-01  4180   0.780E-01    0.125E+00
 Begin Solvation calculations
  rms_SCF =   0.337096615826075      tol =   3.370966158260751E-002
 Begin minimization
 Creating dielectric and ionic cavities
  area:      144.960823587766     
  volume:    679.620126020722     
  Acav:     7.610443238357736E-002
  Solving linear dielectric/ionic screening model
        iter                  A_solv                     rms
   LPB:       -0.354390808300473E+00   0.532256785877274E+00
   LPB:    0  -0.353919197451771E+00   0.646131105138707E+00   0.535986E-02   0.000000E+00   0.328327E+02   0.175979E+00
   LPB:    1  -0.343037825086402E+00   0.379859500032660E+00   0.144141E-01   0.000000E+00   0.215110E+03   0.109181E-16
   LPB:    2  -0.341580750748448E+00   0.118965442935295E+00   0.148804E-01   0.129710E+00   0.102164E+03   0.356735E-15
   LPB:    3  -0.341182672616250E+00   0.635176905087466E-01   0.187307E-01   0.217043E+00   0.264846E+03   0.195234E-15
   LPB:    4  -0.340984460036667E+00   0.708400623808938E-01   0.252205E-01   0.369797E+00   0.136969E+03   0.313763E-16
   LPB:    5  -0.340818044351105E+00   0.588497204075123E-01   0.279163E-01   0.758505E+00   0.197974E+03  -0.232771E-15
   LPB:    6  -0.340656617499495E+00   0.232869120340890E-01   0.361254E-01   0.749595E+00   0.797857E+02  -0.760044E-15
  Finished solving LPB equations
  A_corr:   -0.264552185115918     
 End minimization
 Ecorr=   1551.84884418862     
 A_corr= -0.264552185115918     
 Ecorr_band=  -1552.11339637374     
 End Solvation calculations
RMM:  16    -0.135981504934E+03    0.16732E-01   -0.52124E-02  4257   0.510E-01    0.505E-01
 Begin Solvation calculations
  rms_SCF =   0.129730888471456      tol =   1.297308884714556E-002
 Begin minimization
 Creating dielectric and ionic cavities
  area:      145.185395035119     
  volume:    678.530435735032     
  Acav:     7.622233239343751E-002
  Solving linear dielectric/ionic screening model
        iter                  A_solv                     rms
   LPB:       -0.353878070354980E+00   0.402476633994872E+00
   LPB:    0  -0.353812315111779E+00   0.452359863983441E+00   0.199981E-02   0.000000E+00   0.328838E+02   0.657614E-01
   LPB:    1  -0.348410804536533E+00   0.258586850101568E+00   0.144489E-01   0.000000E+00   0.218427E+03   0.518517E-17
   LPB:    2  -0.347681471587374E+00   0.848507135043872E-01   0.150627E-01   0.129522E+00   0.101931E+03   0.889636E-15
   LPB:    3  -0.347490181658428E+00   0.479432215700667E-01   0.190644E-01   0.207227E+00   0.229182E+03   0.122346E-14
   LPB:    4  -0.347368881336412E+00   0.600295355901338E-01   0.281057E-01   0.430128E+00   0.122775E+03   0.124229E-14
   LPB:    5  -0.347239485817486E+00   0.557910231200456E-01   0.307778E-01   0.974125E+00   0.177040E+03   0.120301E-14
   LPB:    6  -0.347098666677328E+00   0.227481131164709E-01   0.362938E-01   0.922883E+00   0.672760E+02   0.120505E-14
   LPB:    7  -0.347003027742721E+00   0.140864525252768E-01   0.346499E-01   0.711383E+00   0.239435E+03   0.238256E-14
   LPB:    8  -0.346944888486236E+00   0.928649430364706E-02   0.343811E-01   0.612657E+00   0.219331E+03   0.321770E-14
  Finished solving LPB equations
  A_corr:   -0.270722556092799     
 End minimization
 Ecorr=   1546.61439536800     
 A_corr= -0.270722556092799     
 Ecorr_band=  -1546.88511792409     
 End Solvation calculations
RMM:  17    -0.135981563225E+03   -0.58291E-04   -0.92668E-03  4895   0.207E-01    0.509E-01
 Begin Solvation calculations
  rms_SCF =   0.129730888471456      tol =   1.297308884714556E-002
 Begin minimization
 Creating dielectric and ionic cavities
  area:      145.461678554437     
  volume:    677.411826242878     
  Acav:     7.636738124107918E-002
  Solving linear dielectric/ionic screening model
        iter                  A_solv                     rms
   LPB:       -0.362423210069977E+00   0.602370126280079E+00
   LPB:    0  -0.362418117539422E+00   0.586131122630447E+00  -0.556090E-03   0.000000E+00   0.329362E+02  -0.183155E-01
   LPB:    1  -0.354835213479243E+00   0.254951488183863E+00   0.146340E-01   0.000000E+00   0.177498E+03   0.103064E-17
   LPB:    2  -0.353864291696284E+00   0.827515177021711E-01   0.155279E-01   0.120670E+00   0.116275E+03  -0.135602E-14
   LPB:    3  -0.353635271735657E+00   0.425006798545309E-01   0.205606E-01   0.178142E+00   0.185929E+03  -0.175789E-14
   LPB:    4  -0.353557061427617E+00   0.431962349333551E-01   0.219306E-01   0.320167E+00   0.216170E+03  -0.174786E-14
   LPB:    5  -0.353515522581732E+00   0.382258288098045E-01   0.215021E-01   0.541701E+00   0.176571E+03  -0.178621E-14
   LPB:    6  -0.353473265827216E+00   0.147247845378671E-01   0.322491E-01   0.678273E+00   0.980223E+02  -0.184212E-14
   LPB:    7  -0.353430817493676E+00   0.978598043067656E-02   0.416290E-01   0.778191E+00   0.184150E+03  -0.196520E-14
  Finished solving LPB equations
  A_corr:   -0.277063436252597     
 End minimization
 Ecorr=   1543.50782082021     
 A_corr= -0.277063436252597     
 Ecorr_band=  -1543.78488425647     
 End Solvation calculations
RMM:  18    -0.135984362125E+03   -0.27989E-02   -0.90680E-03  4152   0.212E-01    0.480E-01
 Begin Solvation calculations
  rms_SCF =   0.115802337239315      tol =   1.158023372393149E-002
 Begin minimization
 Creating dielectric and ionic cavities
  area:      145.805009255667     
  volume:    676.417073565512     
  Acav:     7.654762985922541E-002
  Solving linear dielectric/ionic screening model
        iter                  A_solv                     rms
   LPB:       -0.377228574525908E+00   0.816874174941000E+00
   LPB:    0  -0.377221574082563E+00   0.831443129171615E+00   0.651529E-03   0.000000E+00   0.329829E+02   0.214893E-01
   LPB:    1  -0.363917115935361E+00   0.279296904957602E+00   0.151169E-01   0.000000E+00   0.153273E+03   0.128116E-17
   LPB:    2  -0.362276232055162E+00   0.111345047761610E+00   0.158041E-01   0.117970E+00   0.143696E+03  -0.795135E-15
   LPB:    3  -0.361878112432944E+00   0.508467841012036E-01   0.212334E-01   0.180587E+00   0.125888E+03  -0.547502E-15
   LPB:    4  -0.361702428061301E+00   0.337431160628434E-01   0.289527E-01   0.323631E+00   0.256664E+03  -0.142272E-14
   LPB:    5  -0.361587727027110E+00   0.380571396366781E-01   0.361178E-01   0.523362E+00   0.147707E+03  -0.153718E-14
   LPB:    6  -0.361516613453119E+00   0.542081953820998E-01   0.268577E-01   0.833752E+00   0.181018E+03  -0.187442E-14
   LPB:    7  -0.361458810771411E+00   0.287588223285825E-01   0.228198E-01   0.956649E+00   0.117508E+03  -0.208513E-14
   LPB:    8  -0.361408685024312E+00   0.123778154823868E-01   0.321921E-01   0.614717E+00   0.245271E+03  -0.224902E-14
   LPB:    9  -0.361372903413540E+00   0.734162603926521E-02   0.353309E-01   0.650421E+00   0.240836E+03  -0.234583E-14
  Finished solving LPB equations
  A_corr:   -0.284825273554315     
 End minimization
 Ecorr=   1538.87244329586     
 A_corr= -0.284825273554315     
 Ecorr_band=  -1539.15726856941     
 End Solvation calculations
RMM:  19    -0.135984673402E+03   -0.31128E-03   -0.19363E-03  4124   0.138E-01    0.432E-01
 Begin Solvation calculations
  rms_SCF =   0.109119584994263      tol =   1.091195849942628E-002
 Begin minimization
 Creating dielectric and ionic cavities
  area:      146.100480930818     
  volume:    675.792643230981     
  Acav:     7.670275248867961E-002
  Solving linear dielectric/ionic screening model
        iter                  A_solv                     rms
   LPB:       -0.381714609879365E+00   0.819164458305292E+00
   LPB:    0  -0.381706736142552E+00   0.832027946550482E+00   0.690667E-03   0.000000E+00   0.330122E+02   0.228004E-01
   LPB:    1  -0.370685867642702E+00   0.229197279925602E+00   0.152776E-01   0.000000E+00   0.127547E+03   0.144312E-17
   LPB:    2  -0.369350554147402E+00   0.108749231779263E+00   0.155588E-01   0.118972E+00   0.182548E+03  -0.151399E-14
   LPB:    3  -0.369025751061148E+00   0.645605273674434E-01   0.201546E-01   0.187776E+00   0.116462E+03  -0.135531E-14
   LPB:    4  -0.368899663749647E+00   0.582308393446800E-01   0.221715E-01   0.352882E+00   0.257893E+03  -0.149532E-14
   LPB:    5  -0.368838909589069E+00   0.399577953269509E-01   0.210924E-01   0.506493E+00   0.114689E+03  -0.177701E-14
   LPB:    6  -0.368784512608062E+00   0.166370040601585E-01   0.292981E-01   0.644594E+00   0.154789E+03  -0.195871E-14
   LPB:    7  -0.368734982200394E+00   0.979550742256964E-02   0.396889E-01   0.672152E+00   0.201787E+03  -0.220019E-14
  Finished solving LPB equations
  A_corr:   -0.292032229711714     
 End minimization
 Ecorr=   1535.26920182466     
 A_corr= -0.292032229711714     
 Ecorr_band=  -1535.56123405437     
 End Solvation calculations
RMM:  20    -0.135983573703E+03    0.10997E-02   -0.34082E-03  4142   0.123E-01    0.868E-02
 Begin Solvation calculations
  rms_SCF =   0.109119584994263      tol =   1.091195849942628E-002
 Begin minimization
 Creating dielectric and ionic cavities
  area:      146.311889644559     
  volume:    675.580245204106     
  Acav:     7.681374206339328E-002
  Solving linear dielectric/ionic screening model
        iter                  A_solv                     rms
   LPB:       -0.383011086103089E+00   0.797214859453737E+00
   LPB:    0  -0.383005147171739E+00   0.787314403849277E+00  -0.599745E-03   0.000000E+00   0.330221E+02  -0.198049E-01
   LPB:    1  -0.375264971541023E+00   0.178679030647280E+00   0.151298E-01   0.000000E+00   0.104232E+03   0.126045E-17
   LPB:    2  -0.374403250222171E+00   0.971861673375101E-01   0.151184E-01   0.111415E+00   0.216955E+03  -0.253744E-15
   LPB:    3  -0.374200042782124E+00   0.533446601953318E-01   0.185306E-01   0.192393E+00   0.110364E+03  -0.679143E-15
   LPB:    4  -0.374110080275974E+00   0.527548998107301E-01   0.228977E-01   0.358277E+00   0.237331E+03  -0.565932E-15
   LPB:    5  -0.374044811494292E+00   0.409796317798918E-01   0.261294E-01   0.635779E+00   0.985364E+02  -0.416030E-15
   LPB:    6  -0.373976849294902E+00   0.177603898029821E-01   0.331354E-01   0.821105E+00   0.109850E+03  -0.328619E-15
   LPB:    7  -0.373921153056150E+00   0.929404395556687E-02   0.365195E-01   0.743578E+00   0.199722E+03  -0.576091E-15
  Finished solving LPB equations
  A_corr:   -0.297107410992757     
 End minimization
 Ecorr=   1532.58113127132     
 A_corr= -0.297107410992757     
 Ecorr_band=  -1532.87823868231     
 End Solvation calculations
RMM:  21    -0.135984997536E+03   -0.14238E-02   -0.12407E-03  4133   0.836E-02    0.120E-01
 Begin Solvation calculations
  rms_SCF =   0.109119584994263      tol =   1.091195849942628E-002
 Begin minimization
 Creating dielectric and ionic cavities
  area:      146.488153106212     
  volume:    675.552776034909     
  Acav:     7.690628038076151E-002
  Solving linear dielectric/ionic screening model
        iter                  A_solv                     rms
   LPB:       -0.386856291420499E+00   0.949657426024972E+00
   LPB:    0  -0.386811727929971E+00   0.927028476996096E+00  -0.164283E-02   0.000000E+00   0.330234E+02  -0.542520E-01
   LPB:    1  -0.379188679080817E+00   0.208187616806522E+00   0.144961E-01   0.000000E+00   0.821265E+02   0.324179E-17
   LPB:    2  -0.378346758975423E+00   0.101318882687579E+00   0.135717E-01   0.117967E+00   0.256292E+03   0.178664E-14
   LPB:    3  -0.378152129304089E+00   0.414119623237513E-01   0.171599E-01   0.182835E+00   0.132419E+03   0.201681E-14
   LPB:    4  -0.378078152094569E+00   0.402696441486854E-01   0.231812E-01   0.281364E+00   0.211504E+03   0.232423E-14
   LPB:    5  -0.378028582275367E+00   0.329198895699511E-01   0.281760E-01   0.551286E+00   0.100676E+03   0.248075E-14
   LPB:    6  -0.377976559372223E+00   0.162133890914592E-01   0.356409E-01   0.829675E+00   0.101952E+03   0.248288E-14
   LPB:    7  -0.377930042547502E+00   0.864110468166106E-02   0.376685E-01   0.846028E+00   0.174716E+03   0.251140E-14
  Finished solving LPB equations
  A_corr:   -0.301023762166741     
 End minimization
 Ecorr=   1530.61201895052     
 A_corr= -0.301023762166741     
 Ecorr_band=  -1530.91304271269     
 End Solvation calculations
RMM:  22    -0.135986106114E+03   -0.11086E-02   -0.68030E-04  4103   0.601E-02    0.133E-01
 Begin Solvation calculations
  rms_SCF =   0.109119584994263      tol =   1.091195849942628E-002
 Begin minimization
 Creating dielectric and ionic cavities
  area:      146.616688311359     
  volume:    675.654088769301     
  Acav:     7.697376136346351E-002
  Solving linear dielectric/ionic screening model
        iter                  A_solv                     rms
   LPB:       -0.388341209764154E+00   0.989344210795820E+00
   LPB:    0  -0.388246907521280E+00   0.960265399053308E+00  -0.238999E-02   0.000000E+00   0.330187E+02  -0.789143E-01
   LPB:    1  -0.381749401029444E+00   0.211439401726398E+00   0.138097E-01   0.000000E+00   0.725107E+02  -0.308109E-17
   LPB:    2  -0.381023483200313E+00   0.854631755399234E-01   0.128109E-01   0.120433E+00   0.263426E+03   0.107866E-14
   LPB:    3  -0.380864018194468E+00   0.291315600699103E-01   0.173745E-01   0.161973E+00   0.150406E+03   0.109804E-14
   LPB:    4  -0.380811211453908E+00   0.309376636281065E-01   0.241522E-01   0.238221E+00   0.206056E+03   0.118005E-14
   LPB:    5  -0.380777160266147E+00   0.278272181512607E-01   0.289749E-01   0.537499E+00   0.102240E+03   0.114520E-14
   LPB:    6  -0.380741003327078E+00   0.150238230743363E-01   0.354373E-01   0.868202E+00   0.969311E+02   0.863948E-15
   LPB:    7  -0.380707342693354E+00   0.753078004396280E-02   0.372100E-01   0.886606E+00   0.159731E+03   0.286001E-15
  Finished solving LPB equations
  A_corr:   -0.303733581329890     
 End minimization
 Ecorr=   1529.31378218318     
 A_corr= -0.303733581329890     
 Ecorr_band=  -1529.61751576451     
 End Solvation calculations
RMM:  23    -0.135986661727E+03   -0.55561E-03   -0.45928E-04  4083   0.477E-02    0.487E-02
 Begin Solvation calculations
  rms_SCF =   8.279480422921277E-002 tol =   8.279480422921277E-003
 Begin minimization
 Creating dielectric and ionic cavities
  area:      146.676755879450     
  volume:    675.758355558798     
  Acav:     7.700529683671116E-002
  Solving linear dielectric/ionic screening model
        iter                  A_solv                     rms
   LPB:       -0.385059047688865E+00   0.688114723693005E+00
   LPB:    0  -0.384985327680750E+00   0.662438590676544E+00  -0.211330E-02   0.000000E+00   0.330138E+02  -0.697678E-01
   LPB:    1  -0.382387611397112E+00   0.133313856495881E+00   0.130648E-01   0.000000E+00   0.680058E+02  -0.135267E-17
   LPB:    2  -0.382112380480448E+00   0.487560871949653E-01   0.123989E-01   0.111641E+00   0.266460E+03  -0.660129E-15
   LPB:    3  -0.382055718443222E+00   0.144617935207995E-01   0.175256E-01   0.145648E+00   0.155984E+03  -0.735901E-15
   LPB:    4  -0.382038770938101E+00   0.162166772595288E-01   0.256902E-01   0.204041E+00   0.181828E+03  -0.751595E-15
   LPB:    5  -0.382025407755054E+00   0.189970236846808E-01   0.340043E-01   0.595714E+00   0.108351E+03  -0.750427E-15
   LPB:    6  -0.382007395318159E+00   0.124699726892875E-01   0.386583E-01   0.118564E+01   0.739755E+02  -0.677340E-15
   LPB:    7  -0.381989186721240E+00   0.545955787578479E-02   0.359815E-01   0.108609E+01   0.122087E+03  -0.670672E-15
  Finished solving LPB equations
  A_corr:   -0.304983889884529     
 End minimization
 Ecorr=   1528.49823934423     
 A_corr= -0.304983889884529     
 Ecorr_band=  -1528.80322323412     
 End Solvation calculations
RMM:  24    -0.135987072429E+03   -0.41070E-03   -0.13606E-04  3739   0.281E-02    0.439E-02
 Begin Solvation calculations
  rms_SCF =   7.817465277184768E-002 tol =   7.817465277184767E-003
 Begin minimization
 Creating dielectric and ionic cavities
  area:      146.774205665348     
  volume:    675.812355764400     
  Acav:     7.705645797430755E-002
  Solving linear dielectric/ionic screening model
        iter                  A_solv                     rms
   LPB:       -0.389938086471699E+00   0.920555720315896E+00
   LPB:    0  -0.389835926955085E+00   0.889762065792407E+00  -0.248785E-02   0.000000E+00   0.330112E+02  -0.821269E-01
   LPB:    1  -0.385227126439027E+00   0.185622321314259E+00   0.130362E-01   0.000000E+00   0.670159E+02  -0.167161E-17
   LPB:    2  -0.384693719999585E+00   0.632899428475380E-01   0.124992E-01   0.120709E+00   0.262251E+03   0.127819E-14
   LPB:    3  -0.384590221657094E+00   0.198527028727536E-01   0.174613E-01   0.138893E+00   0.169585E+03   0.139678E-14
   LPB:    4  -0.384561662498134E+00   0.204785648720904E-01   0.237842E-01   0.202581E+00   0.201038E+03   0.134446E-14
   LPB:    5  -0.384547276760728E+00   0.168924664639198E-01   0.263993E-01   0.453819E+00   0.114835E+03   0.130776E-14
   LPB:    6  -0.384535093449556E+00   0.863290118829374E-02   0.316139E-01   0.707209E+00   0.110377E+03   0.143490E-14
   LPB:    7  -0.384524046966932E+00   0.441273348546178E-02   0.372106E-01   0.770318E+00   0.174130E+03   0.166694E-14
  Finished solving LPB equations
  A_corr:   -0.307467588992624     
 End minimization
 Ecorr=   1527.42662553431     
 A_corr= -0.307467588992624     
 Ecorr_band=  -1527.73409312330     
 End Solvation calculations
RMM:  25    -0.135987371577E+03   -0.29915E-03   -0.28597E-04  4060   0.329E-02    0.302E-02
 Begin Solvation calculations
  rms_SCF =   1.725201599231804E-002 tol =   1.725201599231803E-003
 Begin minimization
 Creating dielectric and ionic cavities
  area:      146.807639401976     
  volume:    675.846871727295     
  Acav:     7.707401068603761E-002
  Solving linear dielectric/ionic screening model
        iter                  A_solv                     rms
   LPB:       -0.386255558952379E+00   0.380374909264045E+00
   LPB:    0  -0.386237887865364E+00   0.367750648986019E+00  -0.103473E-02   0.000000E+00   0.330096E+02  -0.341560E-01
   LPB:    1  -0.385510722066980E+00   0.710094706473330E-01   0.125668E-01   0.000000E+00   0.664379E+02   0.287971E-17
   LPB:    2  -0.385432312517162E+00   0.245690212677509E-01   0.123509E-01   0.109714E+00   0.257529E+03  -0.882328E-16
   LPB:    3  -0.385416310105532E+00   0.735548598953537E-02   0.181350E-01   0.138994E+00   0.154139E+03  -0.874286E-16
   LPB:    4  -0.385410641169994E+00   0.921772873927071E-02   0.294753E-01   0.217960E+00   0.153347E+03  -0.938550E-16
   LPB:    5  -0.385404729959040E+00   0.131610649980414E-01   0.398506E-01   0.771255E+00   0.104519E+03  -0.103460E-15
   LPB:    6  -0.385396738159021E+00   0.862759991212019E-02   0.366497E-01   0.147005E+01   0.611209E+02  -0.166480E-15
   LPB:    7  -0.385390021146757E+00   0.311675316766370E-02   0.317455E-01   0.970332E+00   0.134234E+03  -0.136670E-15
   LPB:    8  -0.385386578848968E+00   0.178834588644284E-02   0.323921E-01   0.502243E+00   0.334950E+03  -0.192862E-15
   LPB:    9  -0.385384713584208E+00   0.119742257583735E-02   0.371470E-01   0.472507E+00   0.839271E+03  -0.212884E-15
  Finished solving LPB equations
  A_corr:   -0.308310702898171     
 End minimization
 Ecorr=   1526.71002274570     
 A_corr= -0.308310702898171     
 Ecorr_band=  -1527.01833344860     
 End Solvation calculations
RMM:  26    -0.135987443465E+03   -0.71887E-04   -0.49522E-05  2800   0.189E-02    0.170E-02
 Begin Solvation calculations
  rms_SCF =   1.725201599231804E-002 tol =   1.725201599231803E-003
 Begin minimization
 Creating dielectric and ionic cavities
  area:      146.823452002723     
  volume:    675.870575307294     
  Acav:     7.708231230142967E-002
  Solving linear dielectric/ionic screening model
        iter                  A_solv                     rms
   LPB:       -0.386189563217602E+00   0.284436472874479E+00
   LPB:    0  -0.386178976731541E+00   0.275717602262281E+00  -0.800899E-03   0.000000E+00   0.330085E+02  -0.264365E-01
   LPB:    1  -0.385832499676610E+00   0.491703189704030E-01   0.116912E-01   0.000000E+00   0.654420E+02   0.630305E-18
   LPB:    2  -0.385793047360249E+00   0.140994161894052E-01   0.123600E-01   0.107706E+00   0.243284E+03  -0.222111E-15
   LPB:    3  -0.385786456840184E+00   0.364275920099405E-02   0.183463E-01   0.112542E+00   0.171677E+03  -0.250626E-15
   LPB:    4  -0.385784835275619E+00   0.346672121606621E-02   0.250913E-01   0.179904E+00   0.230896E+03  -0.256929E-15
   LPB:    5  -0.385784281766180E+00   0.309949479562700E-02   0.245388E-01   0.349029E+00   0.173641E+03  -0.260661E-15
   LPB:    6  -0.385783906951208E+00   0.211449366669961E-02   0.292391E-01   0.568305E+00   0.121338E+03  -0.275705E-15
   LPB:    7  -0.385783429307590E+00   0.124979330419161E-02   0.420670E-01   0.885745E+00   0.205214E+03  -0.343953E-15
  Finished solving LPB equations
  A_corr:   -0.308701117006161     
 End minimization
 Ecorr=   1526.44685915723     
 A_corr= -0.308701117006161     
 Ecorr_band=  -1526.75556027424     
 End Solvation calculations
RMM:  27    -0.135987483427E+03   -0.39962E-04   -0.37588E-05  2624   0.171E-02    0.228E-02
 Begin Solvation calculations
  rms_SCF =   1.725201599231804E-002 tol =   1.725201599231803E-003
 Begin minimization
 Creating dielectric and ionic cavities
  area:      146.836550681291     
  volume:    675.880891168163     
  Acav:     7.708918910767790E-002
  Solving linear dielectric/ionic screening model
        iter                  A_solv                     rms
   LPB:       -0.386413299470777E+00   0.241095921771591E+00
   LPB:    0  -0.386407952706484E+00   0.235483934355430E+00  -0.569182E-03   0.000000E+00   0.330080E+02  -0.187876E-01
   LPB:    1  -0.386177953095772E+00   0.408098654179422E-01   0.113380E-01   0.000000E+00   0.635109E+02   0.165686E-17
   LPB:    2  -0.386148545808186E+00   0.104931431129222E-01   0.127727E-01   0.113497E+00   0.226318E+03  -0.819422E-16
   LPB:    3  -0.386144015171256E+00   0.315070626847739E-02   0.187827E-01   0.104768E+00   0.186731E+03  -0.858662E-16
   LPB:    4  -0.386142855780813E+00   0.331347747295794E-02   0.258982E-01   0.185592E+00   0.186841E+03  -0.796853E-16
   LPB:    5  -0.386142250160960E+00   0.366687342380792E-02   0.295147E-01   0.458355E+00   0.129979E+03  -0.745520E-16
   LPB:    6  -0.386141731236129E+00   0.233800151181382E-02   0.307897E-01   0.821367E+00   0.829402E+02  -0.380868E-16
   LPB:    7  -0.386141217376433E+00   0.108358374297218E-02   0.355829E-01   0.856849E+00   0.143719E+03  -0.350394E-16
  Finished solving LPB equations
  A_corr:   -0.309052028268755     
 End minimization
 Ecorr=   1526.18979309573     
 A_corr= -0.309052028268755     
 Ecorr_band=  -1526.49884512400     
 End Solvation calculations
RMM:  28    -0.135987485448E+03   -0.20206E-05   -0.17671E-05  2475   0.122E-02
 Begin Solvation calculations
  rms_SCF =   1.725201599231804E-002 tol =   1.725201599231803E-003
 Begin minimization
 Creating dielectric and ionic cavities
  area:      146.840936132796     
  volume:    675.912235529735     
  Acav:     7.709149146971779E-002
  Solving linear dielectric/ionic screening model
        iter                  A_solv                     rms
   LPB:       -0.387334129821544E+00   0.525225600920524E+00
   LPB:    0  -0.387309187737315E+00   0.515645068087212E+00  -0.122937E-02   0.000000E+00   0.330066E+02  -0.405771E-01
   LPB:    1  -0.386341011215862E+00   0.717553583463739E-01   0.102932E-01   0.000000E+00   0.680028E+02  -0.213112E-17
   LPB:    2  -0.386240212135110E+00   0.176173517666599E-01   0.127408E-01   0.841116E-01   0.214438E+03   0.872564E-16
   LPB:    3  -0.386227494041529E+00   0.389748624148784E-02   0.191974E-01   0.837373E-01   0.160191E+03   0.126780E-15
   LPB:    4  -0.386224802247467E+00   0.266516909062462E-02   0.258011E-01   0.157480E+00   0.224252E+03   0.120805E-15
   LPB:    5  -0.386223695053854E+00   0.290553589228308E-02   0.311921E-01   0.340231E+00   0.231391E+03   0.150492E-15
   LPB:    6  -0.386223048462118E+00   0.334605476138976E-02   0.325016E-01   0.560463E+00   0.858580E+02   0.144715E-15
   LPB:    7  -0.386222592714030E+00   0.238738935925236E-02   0.269682E-01   0.849469E+00   0.157931E+03   0.193640E-15
   LPB:    8  -0.386222163722362E+00   0.112249426868152E-02   0.345451E-01   0.734835E+00   0.100163E+03   0.211712E-15
  Finished solving LPB equations
  A_corr:   -0.309130672252644     
 End minimization
 Ecorr=   1525.78878299881     
 A_corr= -0.309130672252644     
 Ecorr_band=  -1526.09791367107     
 End Solvation calculations
   1 F= -.13598749E+03 E0= -.13599129E+03  d E =-.135987E+03
quench:  g(F)=  0.000E+00 g(S)=  0.000E+00 dE (1.order)= 0.000E+00
 bond charge predicted
       N       E                     dE             d eps       ncg     rms          rms(c)
 Begin Solvation calculations
  rms_SCF =   1.725201599231804E-002 tol =   1.725201599231803E-003
 Begin minimization
 Creating dielectric and ionic cavities
  area:      146.859041013909     
  volume:    675.916459615347     
  Acav:     7.710099653230232E-002
  Solving linear dielectric/ionic screening model
        iter                  A_solv                     rms
   LPB:       -0.386917526679396E+00   0.251170125566602E-02
   LPB:    0  -0.386917526679118E+00   0.251434069099206E-02  -0.129702E-06   0.000000E+00   0.330064E+02  -0.428099E-05
   LPB:    1  -0.386463604852927E+00   0.101785052256390E-02   0.156162E-01   0.000000E+00   0.526602E+06  -0.241078E-21
   LPB:    2  -0.386423429890867E+00   0.108107866800451E-02   0.259681E-01   0.532245E-01   0.970037E+05   0.930839E-18
   LPB:    3  -0.386411630920974E+00   0.216114399946281E-02   0.320526E-01   0.237938E+00   0.197050E+05  -0.839333E-17
   LPB:    4  -0.386406657467946E+00   0.430288077721293E-02   0.348383E-01   0.387812E+00   0.158506E+04  -0.186631E-16
   LPB:    5  -0.386404347473365E+00   0.703751251599555E-02   0.307322E-01   0.526521E+00   0.312257E+03  -0.209836E-16
   LPB:    6  -0.386403027888688E+00   0.430049661121121E-02   0.233872E-01   0.750658E+00   0.161844E+03  -0.210782E-16
   LPB:    7  -0.386401985368226E+00   0.285730174119317E-02   0.312592E-01   0.591082E+00   0.506147E+03  -0.380292E-16
   LPB:    8  -0.386401398695320E+00   0.504688053488555E-02   0.290249E-01   0.606065E+00   0.349627E+03  -0.596817E-16
   LPB:    9  -0.386401015616705E+00   0.235498674806210E-02   0.201405E-01   0.941005E+00   0.144148E+03  -0.741322E-16
   LPB:   10  -0.386400654810281E+00   0.715315942129152E-03   0.341110E-01   0.556112E+00   0.103238E+04  -0.831631E-16
  Finished solving LPB equations
  A_corr:   -0.309299658277978     
 End minimization
 Ecorr=   1525.74797857293     
 A_corr= -0.309299658277978     
 Ecorr_band=  -1526.05727823121     
 End Solvation calculations
DAV:   1    -0.135989678840E+03   -0.21954E-02   -0.33153E-02  5409   0.450E-01    0.775E-02
 Begin Solvation calculations
  rms_SCF =   1.725201599231804E-002 tol =   1.725201599231803E-003
 Begin minimization
 Creating dielectric and ionic cavities
  area:      146.851261908315     
  volume:    675.866601707550     
  Acav:     7.709691250186559E-002
  Solving linear dielectric/ionic screening model
        iter                  A_solv                     rms
   LPB:       -0.387852522030718E+00   0.399532371064307E+00
   LPB:    0  -0.387844086528949E+00   0.395527228766778E+00  -0.714918E-03   0.000000E+00   0.330087E+02  -0.235985E-01
   LPB:    1  -0.387352363887107E+00   0.425300971982850E-01   0.937787E-02   0.000000E+00   0.712108E+02   0.578863E-19
   LPB:    2  -0.387296591913730E+00   0.760126467789993E-02   0.150942E-01   0.704678E-01   0.190935E+03  -0.565273E-16
   LPB:    3  -0.387288000506275E+00   0.542573596222425E-02   0.252379E-01   0.921308E-01   0.304779E+03  -0.281435E-16
   LPB:    4  -0.387285439495561E+00   0.472828312829603E-02   0.274521E-01   0.274046E+00   0.183289E+03  -0.129059E-16
   LPB:    5  -0.387284376207067E+00   0.385112017957992E-02   0.237768E-01   0.479360E+00   0.267176E+03   0.446928E-16
   LPB:    6  -0.387283758883037E+00   0.200984944815175E-02   0.263235E-01   0.524413E+00   0.162824E+03   0.924544E-16
   LPB:    7  -0.387283381297745E+00   0.108766653384460E-02   0.299736E-01   0.537164E+00   0.450782E+03   0.124630E-15
  Finished solving LPB equations
  A_corr:   -0.310186468795879     
 End minimization
 Ecorr=   1525.66865348370     
 A_corr= -0.310186468795879     
 Ecorr_band=  -1525.97883995249     
 End Solvation calculations
RMM:   2    -0.135990545651E+03   -0.86681E-03   -0.40437E-03  5512   0.126E-01    0.221E-01
 Begin Solvation calculations
  rms_SCF =   1.725201599231804E-002 tol =   1.725201599231803E-003
 Begin minimization
 Creating dielectric and ionic cavities
  area:      146.844983476474     
  volume:    675.867227221191     
  Acav:     7.709361632514883E-002
  Solving linear dielectric/ionic screening model
        iter                  A_solv                     rms
   LPB:       -0.387256496666933E+00   0.198078084544112E+00
   LPB:    0  -0.387256281548052E+00   0.197880154213300E+00  -0.114167E-03   0.000000E+00   0.330087E+02  -0.376850E-02
   LPB:    1  -0.387143227219293E+00   0.191456426810018E-01   0.880829E-02   0.000000E+00   0.743892E+02   0.102874E-18
   LPB:    2  -0.387133185450070E+00   0.349416020652168E-02   0.169036E-01   0.462845E-01   0.127715E+03  -0.920620E-17
   LPB:    3  -0.387131745971631E+00   0.162028415085947E-02   0.236109E-01   0.102627E+00   0.250216E+03  -0.290390E-18
   LPB:    4  -0.387131225707064E+00   0.103130688246542E-02   0.286307E-01   0.298057E+00   0.477666E+03  -0.226902E-16
  Finished solving LPB equations
  A_corr:   -0.310037609381915     
 End minimization
 Ecorr=   1525.61934909920     
 A_corr= -0.310037609381915     
 Ecorr_band=  -1525.92938670859     
 End Solvation calculations
RMM:   3    -0.135989863918E+03    0.68173E-03   -0.60225E-04  4325   0.568E-02    0.470E-02
 Begin Solvation calculations
  rms_SCF =   9.584674477622769E-003 tol =   9.584674477622769E-004
 Begin minimization
 Creating dielectric and ionic cavities
  area:      146.845683067851     
  volume:    675.862027947312     
  Acav:     7.709398361062193E-002
  Solving linear dielectric/ionic screening model
        iter                  A_solv                     rms
   LPB:       -0.387339798564263E+00   0.276938327185916E-01
   LPB:    0  -0.387338424146873E+00   0.152375203940856E-01  -0.288575E-03   0.000000E+00   0.330089E+02  -0.952555E-02
   LPB:    1  -0.387334623100600E+00   0.273424503288572E-02   0.147121E-01   0.000000E+00   0.985202E+02  -0.467743E-18
   LPB:    2  -0.387334257329620E+00   0.256410828498884E-02   0.193628E-01   0.731159E-01   0.306983E+03   0.530123E-16
   LPB:    3  -0.387334105038419E+00   0.150808680215638E-02   0.223891E-01   0.360078E+00   0.105586E+03   0.559446E-16
   LPB:    4  -0.387333999824871E+00   0.151324129138685E-02   0.285860E-01   0.541104E+00   0.201088E+03   0.610311E-16
   LPB:    5  -0.387333914708240E+00   0.152619413968637E-02   0.274776E-01   0.841624E+00   0.189173E+03   0.638760E-16
   LPB:    6  -0.387333839559779E+00   0.981579895825580E-03   0.266021E-01   0.911943E+00   0.107989E+03   0.673433E-16
   LPB:    7  -0.387333770531461E+00   0.615614908833241E-03   0.333237E-01   0.733281E+00   0.220698E+03   0.690683E-16
  Finished solving LPB equations
  A_corr:   -0.310239786920839     
 End minimization
 Ecorr=   1525.52598324542     
 A_corr= -0.310239786920839     
 Ecorr_band=  -1525.83622303234     
 End Solvation calculations
RMM:   4    -0.135989862646E+03    0.12716E-05   -0.82141E-05  3129   0.219E-02
 Begin Solvation calculations
  rms_SCF =   9.584674477622769E-003 tol =   9.584674477622769E-004
 Begin minimization
 Creating dielectric and ionic cavities
  area:      146.842243603077     
  volume:    675.850047406632     
  Acav:     7.709217789161567E-002
  Solving linear dielectric/ionic screening model
        iter                  A_solv                     rms
   LPB:       -0.387857556667758E+00   0.658833410339268E-01
   LPB:    0  -0.387850523391856E+00   0.409809377839897E-01  -0.652792E-03   0.000000E+00   0.330095E+02  -0.215483E-01
   LPB:    1  -0.387823032035398E+00   0.871189465058387E-02   0.150715E-01   0.000000E+00   0.107498E+03  -0.789750E-18
   LPB:    2  -0.387820899229988E+00   0.681050273920944E-02   0.174180E-01   0.671296E-01   0.270056E+03   0.121200E-15
   LPB:    3  -0.387820176830632E+00   0.265291768686422E-02   0.168524E-01   0.350076E+00   0.175247E+03   0.118504E-15
   LPB:    4  -0.387819876902953E+00   0.215389284780577E-02   0.230746E-01   0.303225E+00   0.164958E+03   0.933982E-16
   LPB:    5  -0.387819723176285E+00   0.172803569123301E-02   0.249223E-01   0.474546E+00   0.216074E+03   0.738550E-16
   LPB:    6  -0.387819621449427E+00   0.821826527247124E-03   0.273797E-01   0.602346E+00   0.116031E+03   0.754967E-16
  Finished solving LPB equations
  A_corr:   -0.310727443557811     
 End minimization
 Ecorr=   1525.39867827947     
 A_corr= -0.310727443557811     
 Ecorr_band=  -1525.70940572302     
 End Solvation calculations
   2 F= -.13598986E+03 E0= -.13599365E+03  d E =-.237720E-02
quench:  g(F)=  0.000E+00 g(S)=  0.000E+00 dE (1.order)= 0.000E+00
 bond charge predicted
       N       E                     dE             d eps       ncg     rms          rms(c)
 Begin Solvation calculations
  rms_SCF =   9.584674477622769E-003 tol =   9.584674477622769E-004
 Begin minimization
 Creating dielectric and ionic cavities
  area:      146.886715374015     
  volume:    675.847559079302     
  Acav:     7.711552557135784E-002
  Solving linear dielectric/ionic screening model
        iter                  A_solv                     rms
   LPB:       -0.389879099624256E+00   0.415342035526943E-02
   LPB:    0  -0.389879099600470E+00   0.416913908682518E-02  -0.120048E-05   0.000000E+00   0.330096E+02  -0.396274E-04
   LPB:    1  -0.388439491671510E+00   0.150643441633872E-02   0.155407E-01   0.000000E+00   0.655862E+06  -0.209565E-20
   LPB:    2  -0.388316093058565E+00   0.117939007613037E-02   0.259353E-01   0.513626E-01   0.136313E+06   0.988902E-17
   LPB:    3  -0.388280188698460E+00   0.252803591465632E-02   0.319342E-01   0.236304E+00   0.541386E+05   0.106409E-16
   LPB:    4  -0.388265171087406E+00   0.484164949199333E-02   0.351793E-01   0.379684E+00   0.311488E+04   0.345886E-18
   LPB:    5  -0.388258033730102E+00   0.960910441798713E-02   0.338519E-01   0.493902E+00   0.634781E+03  -0.120140E-16
   LPB:    6  -0.388254476215576E+00   0.837009628400613E-02   0.248803E-01   0.678167E+00   0.153816E+03  -0.165389E-16
   LPB:    7  -0.388251752402682E+00   0.306879859149202E-02   0.278876E-01   0.683086E+00   0.398541E+03  -0.477392E-16
   LPB:    8  -0.388249891949344E+00   0.198142361897558E-02   0.368987E-01   0.516228E+00   0.984582E+03  -0.128580E-15
   LPB:    9  -0.388248829424742E+00   0.486293028117514E-02   0.355334E-01   0.593054E+00   0.722581E+03  -0.155946E-15
   LPB:   10  -0.388248302754768E+00   0.465958397710645E-02   0.212939E-01   0.827142E+00   0.174090E+03  -0.168751E-15
   LPB:   11  -0.388247796540634E+00   0.131368957516358E-02   0.259385E-01   0.789054E+00   0.410305E+03  -0.174786E-15
   LPB:   12  -0.388247424194845E+00   0.695961211152265E-03   0.379603E-01   0.502606E+00   0.207583E+04  -0.180388E-15
  Finished solving LPB equations
  A_corr:   -0.311131898623487     
 End minimization
 Ecorr=   1525.31267814401     
 A_corr= -0.311131898623487     
 Ecorr_band=  -1525.62381004263     
 End Solvation calculations
DAV:   1    -0.135992547706E+03   -0.26838E-02   -0.10846E-01  4218   0.643E-01    0.105E-01
 Begin Solvation calculations
  rms_SCF =   9.584674477622769E-003 tol =   9.584674477622769E-004
 Begin minimization
 Creating dielectric and ionic cavities
  area:      146.834583802194     
  volume:    675.776259526020     
  Acav:     7.708815649615187E-002
  Solving linear dielectric/ionic screening model
        iter                  A_solv                     rms
   LPB:       -0.390047874671167E+00   0.200724763823214E+00
   LPB:    0  -0.389997359501981E+00   0.148540820558328E+00  -0.174938E-02   0.000000E+00   0.330129E+02  -0.577521E-01
   LPB:    1  -0.389777220966305E+00   0.561046776457330E-01   0.134446E-01   0.000000E+00   0.975378E+02  -0.353115E-18
   LPB:    2  -0.389747644247843E+00   0.119068474322736E-01   0.129458E-01   0.139532E+00   0.190802E+03   0.184601E-15
   LPB:    3  -0.389737044084119E+00   0.781745177177268E-02   0.236661E-01   0.196049E+00   0.541600E+03   0.207454E-15
   LPB:    4  -0.389733688362504E+00   0.815008946761388E-02   0.234986E-01   0.318829E+00   0.151399E+03   0.221877E-15
   LPB:    5  -0.389731914677064E+00   0.403071351912837E-02   0.226958E-01   0.547252E+00   0.218971E+03   0.227937E-15
   LPB:    6  -0.389730840099238E+00   0.140422774609241E-02   0.316243E-01   0.434796E+00   0.254080E+03   0.205781E-15
   LPB:    7  -0.389730243658022E+00   0.857120246057494E-03   0.342382E-01   0.512672E+00   0.756271E+03   0.217634E-15
  Finished solving LPB equations
  A_corr:   -0.312642087161870     
 End minimization
 Ecorr=   1525.13775376823     
 A_corr= -0.312642087161870     
 Ecorr_band=  -1525.45039585539     
 End Solvation calculations
RMM:   2    -0.135993321776E+03   -0.77407E-03   -0.99236E-03  6466   0.204E-01    0.970E-02
 Begin Solvation calculations
  rms_SCF =   9.584674477622769E-003 tol =   9.584674477622769E-004
 Begin minimization
 Creating dielectric and ionic cavities
  area:      146.837270849562     
  volume:    675.788177881166     
  Acav:     7.708956719601991E-002
  Solving linear dielectric/ionic screening model
        iter                  A_solv                     rms
   LPB:       -0.390136320893506E+00   0.385135349729273E-01
   LPB:    0  -0.390133676147539E+00   0.217935269239318E-01  -0.400284E-03   0.000000E+00   0.330124E+02  -0.132143E-01
   LPB:    1  -0.390119754714506E+00   0.392398076043023E-02   0.162886E-01   0.000000E+00   0.155687E+03  -0.541358E-18
   LPB:    2  -0.390118476161462E+00   0.378576540536878E-02   0.222117E-01   0.673496E-01   0.368404E+03   0.118536E-15
   LPB:    3  -0.390118140138042E+00   0.308100700890314E-02   0.192949E-01   0.302545E+00   0.886859E+02   0.130988E-15
   LPB:    4  -0.390117890254450E+00   0.236646451945456E-02   0.281513E-01   0.509698E+00   0.174093E+03   0.135473E-15
   LPB:    5  -0.390117676274856E+00   0.278464151488148E-02   0.311545E-01   0.773771E+00   0.201329E+03   0.159244E-15
   LPB:    6  -0.390117490572766E+00   0.139078789307219E-02   0.244723E-01   0.110482E+01   0.840618E+02   0.180513E-15
   LPB:    7  -0.390117342092672E+00   0.573948314600143E-03   0.314926E-01   0.621324E+00   0.345141E+03   0.185675E-15
  Finished solving LPB equations
  A_corr:   -0.313027774896652     
 End minimization
 Ecorr=   1524.97967035563     
 A_corr= -0.313027774896652     
 Ecorr_band=  -1525.29269813052     
 End Solvation calculations
RMM:   3    -0.135993158541E+03    0.16323E-03   -0.70694E-04  5443   0.495E-02    0.662E-02
 Begin Solvation calculations
  rms_SCF =   9.584674477622769E-003 tol =   9.584674477622769E-004
 Begin minimization
 Creating dielectric and ionic cavities
  area:      146.839646650561     
  volume:    675.787854209754     
  Acav:     7.709081449154442E-002
  Solving linear dielectric/ionic screening model
        iter                  A_solv                     rms
   LPB:       -0.390649316815757E+00   0.948014938825537E-01
   LPB:    0  -0.390645999874789E+00   0.879637007623224E-01  -0.448276E-03   0.000000E+00   0.330124E+02  -0.147987E-01
   LPB:    1  -0.390613809066748E+00   0.140505310186176E-01   0.101642E-01   0.000000E+00   0.782362E+02  -0.381842E-18
   LPB:    2  -0.390609817588582E+00   0.203565298988102E-02   0.136248E-01   0.925011E-01   0.253329E+03  -0.346008E-16
   LPB:    3  -0.390609077030120E+00   0.180096088636684E-02   0.257069E-01   0.983343E-01   0.612099E+03  -0.101870E-15
   LPB:    4  -0.390608871761729E+00   0.166026582529902E-02   0.243417E-01   0.292727E+00   0.138874E+03  -0.115197E-15
   LPB:    5  -0.390608760177678E+00   0.125858601081988E-02   0.253040E-01   0.522927E+00   0.272599E+03  -0.135591E-15
   LPB:    6  -0.390608675942213E+00   0.583973474124569E-03   0.314828E-01   0.606749E+00   0.131483E+03  -0.131321E-15
  Finished solving LPB equations
  A_corr:   -0.313517861450669     
 End minimization
 Ecorr=   1524.90480926885     
 A_corr= -0.313517861450669     
 Ecorr_band=  -1525.21832713030     
 End Solvation calculations
RMM:   4    -0.135993151353E+03    0.71877E-05   -0.16924E-04  3922   0.272E-02    0.648E-02
 Begin Solvation calculations
  rms_SCF =   9.584674477622769E-003 tol =   9.584674477622769E-004
 Begin minimization
 Creating dielectric and ionic cavities
  area:      146.837063912877     
  volume:    675.790250725373     
  Acav:     7.708945855426048E-002
  Solving linear dielectric/ionic screening model
        iter                  A_solv                     rms
   LPB:       -0.392035584683682E+00   0.130389930646251E+00
   LPB:    0  -0.392004172118921E+00   0.726812944780151E-01  -0.137952E-02   0.000000E+00   0.330123E+02  -0.455412E-01
   LPB:    1  -0.391878147883769E+00   0.210446888066335E-01   0.160761E-01   0.000000E+00   0.131090E+03  -0.153936E-17
   LPB:    2  -0.391867458660765E+00   0.132221324986837E-01   0.185286E-01   0.735919E-01   0.170410E+03   0.450402E-15
   LPB:    3  -0.391864287317042E+00   0.462880757619654E-02   0.180972E-01   0.303758E+00   0.125758E+03   0.466683E-15
   LPB:    4  -0.391862830894014E+00   0.506619194044263E-02   0.244626E-01   0.339746E+00   0.313960E+03   0.514341E-15
   LPB:    5  -0.391862188754943E+00   0.473756993452878E-02   0.205758E-01   0.524187E+00   0.182721E+03   0.538731E-15
   LPB:    6  -0.391861720250813E+00   0.155340564188771E-02   0.253651E-01   0.591842E+00   0.113328E+03   0.541252E-15
   LPB:    7  -0.391861417692385E+00   0.647980768497699E-03   0.332030E-01   0.493350E+00   0.364200E+03   0.501790E-15
  Finished solving LPB equations
  A_corr:   -0.314771959138125     
 End minimization
 Ecorr=   1524.61391861323     
 A_corr= -0.314771959138125     
 Ecorr_band=  -1524.92869057236     
 End Solvation calculations
RMM:   5    -0.135993091726E+03    0.59628E-04   -0.69934E-05  3120   0.263E-02    0.232E-02
 Begin Solvation calculations
  rms_SCF =   9.584674477622769E-003 tol =   9.584674477622769E-004
 Begin minimization
 Creating dielectric and ionic cavities
  area:      146.846706057955     
  volume:    675.807977206169     
  Acav:     7.709452068042642E-002
  Solving linear dielectric/ionic screening model
        iter                  A_solv                     rms
   LPB:       -0.393026693100541E+00   0.145746303398891E+00
   LPB:    0  -0.393010748447021E+00   0.121945797633723E+00  -0.982857E-03   0.000000E+00   0.330114E+02  -0.324455E-01
   LPB:    1  -0.392918815270920E+00   0.339890094737192E-01   0.114396E-01   0.000000E+00   0.864303E+02   0.858648E-18
   LPB:    2  -0.392906707018693E+00   0.457865261980843E-02   0.126953E-01   0.118680E+00   0.174497E+03   0.405009E-15
   LPB:    3  -0.392904114740109E+00   0.353328302003257E-02   0.239892E-01   0.113299E+00   0.395116E+03   0.420827E-15
   LPB:    4  -0.392903357944584E+00   0.323443742878208E-02   0.255364E-01   0.274254E+00   0.103468E+03   0.425856E-15
   LPB:    5  -0.392902916425674E+00   0.276202420692233E-02   0.260375E-01   0.572179E+00   0.289234E+03   0.435995E-15
   LPB:    6  -0.392902563835707E+00   0.109839781625189E-02   0.315930E-01   0.658155E+00   0.871029E+02   0.415620E-15
   LPB:    7  -0.392902308210542E+00   0.595199733014871E-03   0.343044E-01   0.667691E+00   0.201015E+03   0.410267E-15
  Finished solving LPB equations
  A_corr:   -0.315807787530115     
 End minimization
 Ecorr=   1524.31037829472     
 A_corr= -0.315807787530115     
 Ecorr_band=  -1524.62618608225     
 End Solvation calculations
RMM:   6    -0.135993095336E+03   -0.36101E-05   -0.71559E-05  3637   0.390E-02
 Begin Solvation calculations
  rms_SCF =   9.584674477622769E-003 tol =   9.584674477622769E-004
 Begin minimization
 Creating dielectric and ionic cavities
  area:      146.853047144927     
  volume:    675.824469952980     
  Acav:     7.709784975108673E-002
  Solving linear dielectric/ionic screening model
        iter                  A_solv                     rms
   LPB:       -0.393467676742041E+00   0.579889429662230E-01
   LPB:    0  -0.393462293412181E+00   0.332141019171987E-01  -0.571102E-03   0.000000E+00   0.330107E+02  -0.188524E-01
   LPB:    1  -0.393442670530215E+00   0.720898885755505E-02   0.158611E-01   0.000000E+00   0.934311E+02   0.110028E-18
   LPB:    2  -0.393440981488247E+00   0.600702821431210E-02   0.161802E-01   0.843773E-01   0.294165E+03   0.408893E-16
   LPB:    3  -0.393440502003169E+00   0.305063117763264E-02   0.173841E-01   0.264221E+00   0.816273E+02   0.416027E-16
   LPB:    4  -0.393440288950967E+00   0.217666689621246E-02   0.244616E-01   0.315775E+00   0.102750E+03   0.393132E-16
   LPB:    5  -0.393440139876536E+00   0.168662113122035E-02   0.257378E-01   0.665013E+00   0.216364E+03   0.338611E-16
   LPB:    6  -0.393439978341102E+00   0.744534224785834E-03   0.339604E-01   0.821228E+00   0.692126E+02   0.239320E-16
  Finished solving LPB equations
  A_corr:   -0.316342128590015     
 End minimization
 Ecorr=   1524.09878706339     
 A_corr= -0.316342128590015     
 Ecorr_band=  -1524.41512919198     
 End Solvation calculations
   3 F= -.13599310E+03 E0= -.13599691E+03  d E =-.323269E-02
quench:  g(F)=  0.000E+00 g(S)=  0.000E+00 dE (1.order)= 0.000E+00
 bond charge predicted
       N       E                     dE             d eps       ncg     rms          rms(c)
 Begin Solvation calculations
  rms_SCF =   9.584674477622769E-003 tol =   9.584674477622769E-004
 Begin minimization
 Creating dielectric and ionic cavities
  area:      146.920755962619     
  volume:    675.793172043168     
  Acav:     7.713339688037493E-002
  Solving linear dielectric/ionic screening model
        iter                  A_solv                     rms
   LPB:       -0.396732506788256E+00   0.545897639816237E-02
   LPB:    0  -0.396732506514084E+00   0.552624127399385E-02  -0.407558E-05   0.000000E+00   0.330121E+02  -0.134543E-03
   LPB:    1  -0.394515460240866E+00   0.210552392990066E-02   0.153600E-01   0.000000E+00   0.554042E+06  -0.744873E-20
   LPB:    2  -0.394341428641097E+00   0.244684167594855E-02   0.259287E-01   0.465011E-01   0.104761E+06   0.684390E-17
   LPB:    3  -0.394290638035662E+00   0.561359666720192E-02   0.318519E-01   0.237575E+00   0.202361E+05   0.290261E-17
   LPB:    4  -0.394269745871360E+00   0.138256849378177E-01   0.341184E-01   0.384014E+00   0.130832E+04   0.105404E-16
   LPB:    5  -0.394261189150099E+00   0.198019061885292E-01   0.246141E-01   0.567713E+00   0.219355E+03  -0.547521E-17
   LPB:    6  -0.394255111870499E+00   0.770188073094517E-02   0.207460E-01   0.842658E+00   0.249219E+03   0.186038E-16
   LPB:    7  -0.394250608980698E+00   0.696788656426912E-02   0.326854E-01   0.470287E+00   0.438743E+03   0.270095E-17
   LPB:    8  -0.394248198201646E+00   0.774189113642643E-02   0.265899E-01   0.658116E+00   0.227453E+03  -0.238691E-16
   LPB:    9  -0.394246410259650E+00   0.290256908640966E-02   0.259439E-01   0.760112E+00   0.193231E+03   0.137531E-16
   LPB:   10  -0.394245077127801E+00   0.925491048228057E-03   0.366597E-01   0.527675E+00   0.236707E+04   0.157756E-16
  Finished solving LPB equations
  A_corr:   -0.317111680247427     
 End minimization
 Ecorr=   1524.00229835387     
 A_corr= -0.317111680247427     
 Ecorr_band=  -1524.31941003411     
 End Solvation calculations
DAV:   1    -0.135995690883E+03   -0.25992E-02   -0.18038E-01  4233   0.880E-01    0.119E-01
 Begin Solvation calculations
  rms_SCF =   9.584674477622769E-003 tol =   9.584674477622769E-004
 Begin minimization
 Creating dielectric and ionic cavities
  area:      146.844288996829     
  volume:    675.734948304415     
  Acav:     7.709325172333502E-002
  Solving linear dielectric/ionic screening model
        iter                  A_solv                     rms
   LPB:       -0.396502800035880E+00   0.256933453533607E+00
   LPB:    0  -0.396440253591344E+00   0.205776420354837E+00  -0.194653E-02   0.000000E+00   0.330149E+02  -0.642645E-01
   LPB:    1  -0.396155201754750E+00   0.615500908923769E-01   0.117877E-01   0.000000E+00   0.881496E+02   0.251375E-17
   LPB:    2  -0.396112300345126E+00   0.102739010112688E-01   0.133218E-01   0.133172E+00   0.205806E+03   0.289113E-15
   LPB:    3  -0.396100687907241E+00   0.902488253092486E-02   0.244571E-01   0.147439E+00   0.474932E+03   0.283203E-15
   LPB:    4  -0.396097000822655E+00   0.820488452677497E-02   0.227695E-01   0.341045E+00   0.129484E+03   0.294214E-15
   LPB:    5  -0.396094919670021E+00   0.420582711594289E-02   0.241444E-01   0.532301E+00   0.261995E+03   0.276020E-15
   LPB:    6  -0.396093652401337E+00   0.160257726942397E-02   0.322641E-01   0.455681E+00   0.215354E+03   0.202646E-15
   LPB:    7  -0.396092884171162E+00   0.102863827344195E-02   0.343029E-01   0.570179E+00   0.594693E+03   0.127328E-15
   LPB:    8  -0.396092365528437E+00   0.699262588524978E-03   0.361173E-01   0.641200E+00   0.444398E+03   0.865846E-16
  Finished solving LPB equations
  A_corr:   -0.318999113805102     
 End minimization
 Ecorr=   1523.69617144324     
 A_corr= -0.318999113805102     
 Ecorr_band=  -1524.01517055704     
 End Solvation calculations
RMM:   2    -0.135996776386E+03   -0.10855E-02   -0.14286E-02  6186   0.273E-01    0.982E-02
 Begin Solvation calculations
  rms_SCF =   9.584674477622769E-003 tol =   9.584674477622769E-004
 Begin minimization
 Creating dielectric and ionic cavities
  area:      146.847178063937     
  volume:    675.755525869143     
  Acav:     7.709476848356694E-002
  Solving linear dielectric/ionic screening model
        iter                  A_solv                     rms
   LPB:       -0.396611750468824E+00   0.569680692785749E-01
   LPB:    0  -0.396607905497035E+00   0.412777474355572E-01  -0.482629E-03   0.000000E+00   0.330139E+02  -0.159335E-01
   LPB:    1  -0.396587582374889E+00   0.164006752193352E-01   0.147891E-01   0.000000E+00   0.909140E+02  -0.349542E-18
   LPB:    2  -0.396584481995634E+00   0.555899929394240E-02   0.124440E-01   0.181303E+00   0.194215E+03  -0.465782E-17
   LPB:    3  -0.396583575311034E+00   0.264772528197649E-02   0.231692E-01   0.157069E+00   0.150257E+03  -0.727663E-17
   LPB:    4  -0.396583234475520E+00   0.180756372401252E-02   0.276152E-01   0.315393E+00   0.132674E+03  -0.725175E-17
   LPB:    5  -0.396583021125202E+00   0.212262111290814E-02   0.303738E-01   0.569113E+00   0.313030E+03  -0.202772E-16
   LPB:    6  -0.396582811556626E+00   0.129176015457812E-02   0.325645E-01   0.916193E+00   0.790522E+02  -0.306178E-17
   LPB:    7  -0.396582610492955E+00   0.772102081039394E-03   0.363106E-01   0.860436E+00   0.232081E+03   0.152366E-16
  Finished solving LPB equations
  A_corr:   -0.319487842009388     
 End minimization
 Ecorr=   1523.49365009496     
 A_corr= -0.319487842009388     
 Ecorr_band=  -1523.81313793697     
 End Solvation calculations
RMM:   3    -0.135996558695E+03    0.21769E-03   -0.94139E-04  5265   0.665E-02    0.691E-02
 Begin Solvation calculations
  rms_SCF =   9.584674477622769E-003 tol =   9.584674477622769E-004
 Begin minimization
 Creating dielectric and ionic cavities
  area:      146.851136378160     
  volume:    675.759273941832     
  Acav:     7.709684659853398E-002
  Solving linear dielectric/ionic screening model
        iter                  A_solv                     rms
   LPB:       -0.397144121533381E+00   0.816620677381835E-01
   LPB:    0  -0.397140792573414E+00   0.730773459373644E-01  -0.449078E-03   0.000000E+00   0.330137E+02  -0.148257E-01
   LPB:    1  -0.397116269885569E+00   0.139469076076544E-01   0.102234E-01   0.000000E+00   0.835765E+02   0.199773E-18
   LPB:    2  -0.397113076930184E+00   0.218818362106336E-02   0.138962E-01   0.957912E-01   0.201437E+03   0.800757E-16
   LPB:    3  -0.397112419583513E+00   0.190155413830363E-02   0.253993E-01   0.112635E+00   0.423304E+03   0.113529E-15
   LPB:    4  -0.397112220396484E+00   0.178216346946825E-02   0.242730E-01   0.317077E+00   0.118492E+03   0.120433E-15
   LPB:    5  -0.397112092473734E+00   0.133110641072400E-02   0.268590E-01   0.580391E+00   0.274778E+03   0.134751E-15
   LPB:    6  -0.397111989127480E+00   0.570410752778626E-03   0.333729E-01   0.650194E+00   0.118981E+03   0.115931E-15
  Finished solving LPB equations
  A_corr:   -0.320015142528946     
 End minimization
 Ecorr=   1523.38436281955     
 A_corr= -0.320015142528946     
 Ecorr_band=  -1523.70437796207     
 End Solvation calculations
RMM:   4    -0.135996546789E+03    0.11906E-04   -0.22236E-04  4374   0.317E-02    0.617E-02
 Begin Solvation calculations
  rms_SCF =   9.584674477622769E-003 tol =   9.584674477622769E-004
 Begin minimization
 Creating dielectric and ionic cavities
  area:      146.853917835922     
  volume:    675.769016186236     
  Acav:     7.709830686385924E-002
  Solving linear dielectric/ionic screening model
        iter                  A_solv                     rms
   LPB:       -0.398102217787006E+00   0.905129019620452E-01
   LPB:    0  -0.398088184947841E+00   0.521091022746513E-01  -0.922027E-03   0.000000E+00   0.330133E+02  -0.304391E-01
   LPB:    1  -0.398031252180141E+00   0.133237542101590E-01   0.164808E-01   0.000000E+00   0.109613E+03   0.982660E-18
   LPB:    2  -0.398026071416483E+00   0.109789375994143E-01   0.154455E-01   0.970974E-01   0.289711E+03  -0.631713E-16
   LPB:    3  -0.398024395240859E+00   0.570998687207400E-02   0.178825E-01   0.279448E+00   0.928259E+02  -0.266553E-16
   LPB:    4  -0.398023689391343E+00   0.359273333870154E-02   0.235823E-01   0.319326E+00   0.124059E+03  -0.263434E-16
   LPB:    5  -0.398023328360025E+00   0.224631781072121E-02   0.223796E-01   0.538973E+00   0.282398E+03  -0.266634E-16
   LPB:    6  -0.398023068655702E+00   0.853431144305425E-03   0.293123E-01   0.549208E+00   0.115224E+03  -0.338292E-17
  Finished solving LPB equations
  A_corr:   -0.320924761791842     
 End minimization
 Ecorr=   1523.14563285777     
 A_corr= -0.320924761791842     
 Ecorr_band=  -1523.46655761956     
 End Solvation calculations
RMM:   5    -0.135996518171E+03    0.28618E-04   -0.47987E-05  2871   0.225E-02    0.324E-02
 Begin Solvation calculations
  rms_SCF =   9.584674477622769E-003 tol =   9.584674477622769E-004
 Begin minimization
 Creating dielectric and ionic cavities
  area:      146.866728247416     
  volume:    675.787135670263     
  Acav:     7.710503232989346E-002
  Solving linear dielectric/ionic screening model
        iter                  A_solv                     rms
   LPB:       -0.399269414935895E+00   0.162239208524000E+00
   LPB:    0  -0.399255299690098E+00   0.143246429026809E+00  -0.924742E-03   0.000000E+00   0.330124E+02  -0.305280E-01
   LPB:    1  -0.399151589548889E+00   0.320007102759700E-01   0.104522E-01   0.000000E+00   0.869852E+02   0.627041E-18
   LPB:    2  -0.399138219204527E+00   0.445879663739496E-02   0.134349E-01   0.100299E+00   0.170974E+03   0.378727E-15
   LPB:    3  -0.399135812021103E+00   0.341205842869299E-02   0.239204E-01   0.101119E+00   0.332771E+03   0.464134E-15
   LPB:    4  -0.399135027779569E+00   0.321920824125094E-02   0.266466E-01   0.292460E+00   0.101472E+03   0.483350E-15
   LPB:    5  -0.399134553804027E+00   0.283116143779583E-02   0.263812E-01   0.610455E+00   0.297894E+03   0.469002E-15
   LPB:    6  -0.399134208789449E+00   0.120138489335880E-02   0.300357E-01   0.639349E+00   0.814379E+02   0.460252E-15
   LPB:    7  -0.399133960832076E+00   0.649390459203502E-03   0.336093E-01   0.642270E+00   0.213157E+03   0.483451E-15
  Finished solving LPB equations
  A_corr:   -0.322028928502183     
 End minimization
 Ecorr=   1522.82223380775     
 A_corr= -0.322028928502183     
 Ecorr_band=  -1523.14426273625     
 End Solvation calculations
RMM:   6    -0.135996520822E+03   -0.26516E-05   -0.78389E-05  3708   0.417E-02
 Begin Solvation calculations
  rms_SCF =   9.584674477622769E-003 tol =   9.584674477622769E-004
 Begin minimization
 Creating dielectric and ionic cavities
  area:      146.884999748418     
  volume:    675.817597186042     
  Acav:     7.711462486791947E-002
  Solving linear dielectric/ionic screening model
        iter                  A_solv                     rms
   LPB:       -0.400692901616408E+00   0.147177362105352E+00
   LPB:    0  -0.400665786604418E+00   0.100589905439824E+00  -0.128171E-02   0.000000E+00   0.330110E+02  -0.423106E-01
   LPB:    1  -0.400551759626984E+00   0.455701929484812E-01   0.133812E-01   0.000000E+00   0.981246E+02  -0.108565E-17
   LPB:    2  -0.400537599182889E+00   0.779227292073449E-02   0.125215E-01   0.132711E+00   0.107493E+03   0.206670E-15
   LPB:    3  -0.400533931253564E+00   0.484798873506939E-02   0.205837E-01   0.157571E+00   0.309792E+03   0.242010E-15
   LPB:    4  -0.400532815704373E+00   0.400482544026827E-02   0.239527E-01   0.261358E+00   0.943554E+02   0.251337E-15
   LPB:    5  -0.400532212985179E+00   0.305260153757568E-02   0.245611E-01   0.526907E+00   0.291893E+03   0.271439E-15
   LPB:    6  -0.400531756067025E+00   0.111342721173642E-02   0.323256E-01   0.576003E+00   0.842355E+02   0.291448E-15
   LPB:    7  -0.400531420786575E+00   0.759410165734445E-03   0.355108E-01   0.667968E+00   0.151825E+03   0.393113E-15
  Finished solving LPB equations
  A_corr:   -0.323416795918655     
 End minimization
 Ecorr=   1522.36594673432     
 A_corr= -0.323416795918655     
 Ecorr_band=  -1522.68936353024     
 End Solvation calculations
   4 F= -.13599652E+03 E0= -.13600035E+03  d E =-.342549E-02
quench:  g(F)=  0.000E+00 g(S)=  0.000E+00 dE (1.order)= 0.000E+00
 bond charge predicted
       N       E                     dE             d eps       ncg     rms          rms(c)
 Begin Solvation calculations
  rms_SCF =   9.584674477622769E-003 tol =   9.584674477622769E-004
 Begin minimization
 Creating dielectric and ionic cavities
  area:      146.979527495731     
  volume:    675.760513216854     
  Acav:     7.716425193525865E-002
  Solving linear dielectric/ionic screening model
        iter                  A_solv                     rms
   LPB:       -0.405523670418279E+00   0.693885886336701E-02
   LPB:    0  -0.405523669697775E+00   0.703406500877336E-02  -0.660673E-05   0.000000E+00   0.330137E+02  -0.218112E-03
   LPB:    1  -0.402089366538640E+00   0.233499376945135E-02   0.152417E-01   0.000000E+00   0.537588E+06   0.820108E-20
   LPB:    2  -0.401840390976045E+00   0.242840638418425E-02   0.257692E-01   0.428795E-01   0.126232E+06   0.732818E-18
   LPB:    3  -0.401767685534033E+00   0.521738993854771E-02   0.319374E-01   0.235619E+00   0.289050E+05   0.146302E-18
   LPB:    4  -0.401737078643726E+00   0.137827795729930E-01   0.350091E-01   0.384035E+00   0.220555E+04   0.515899E-18
   LPB:    5  -0.401724101137630E+00   0.245849547537386E-01   0.273063E-01   0.543614E+00   0.264607E+03  -0.466796E-17
   LPB:    6  -0.401715960001343E+00   0.997226579636088E-02   0.191321E-01   0.895351E+00   0.210932E+03  -0.452779E-17
   LPB:    7  -0.401709077218557E+00   0.407737443288508E-02   0.334836E-01   0.483070E+00   0.742687E+03   0.201868E-16
   LPB:    8  -0.401704999052908E+00   0.739748820265321E-02   0.354128E-01   0.560237E+00   0.739153E+03   0.201733E-16
   LPB:    9  -0.401702799379956E+00   0.672692475151368E-02   0.259449E-01   0.736210E+00   0.132261E+03   0.559359E-16
   LPB:   10  -0.401701067714857E+00   0.259891536972542E-02   0.280286E-01   0.728712E+00   0.439187E+03   0.665233E-16
   LPB:   11  -0.401699790754993E+00   0.914886535293113E-03   0.372770E-01   0.554466E+00   0.721233E+03   0.588806E-16
  Finished solving LPB equations
  A_corr:   -0.324535538819734     
 End minimization
 Ecorr=   1522.20917850896     
 A_corr= -0.324535538819734     
 Ecorr_band=  -1522.53371404778     
 End Solvation calculations
DAV:   1    -0.135999031315E+03   -0.25131E-02   -0.27329E-01  4260   0.109E+00    0.145E-01
 Begin Solvation calculations
  rms_SCF =   9.584674477622769E-003 tol =   9.584674477622769E-004
 Begin minimization
 Creating dielectric and ionic cavities
  area:      146.873295911652     
  volume:    675.702219226773     
  Acav:     7.710848035361721E-002
  Solving linear dielectric/ionic screening model
        iter                  A_solv                     rms
   LPB:       -0.404001472583483E+00   0.232406943925773E+00
   LPB:    0  -0.403930971374336E+00   0.164326724063900E+00  -0.206656E-02   0.000000E+00   0.330164E+02  -0.682304E-01
   LPB:    1  -0.403692552183346E+00   0.622751469728252E-01   0.126977E-01   0.000000E+00   0.924388E+02  -0.199915E-17
   LPB:    2  -0.403656515519863E+00   0.115023170045450E-01   0.133082E-01   0.144214E+00   0.160768E+03   0.350610E-16
   LPB:    3  -0.403646010580136E+00   0.956910921312295E-02   0.228908E-01   0.169475E+00   0.408345E+03   0.713270E-16
   LPB:    4  -0.403642490013457E+00   0.820215858755235E-02   0.219658E-01   0.349247E+00   0.120432E+03   0.101090E-15
   LPB:    5  -0.403640438042528E+00   0.400757608655974E-02   0.246161E-01   0.520100E+00   0.266949E+03   0.149703E-15
   LPB:    6  -0.403639205711155E+00   0.147306732680466E-02   0.332011E-01   0.445269E+00   0.221286E+03   0.137894E-15
   LPB:    7  -0.403638465886678E+00   0.989034278498532E-03   0.345864E-01   0.576300E+00   0.515865E+03   0.166787E-15
   LPB:    8  -0.403637961737189E+00   0.712437910376923E-03   0.361911E-01   0.651229E+00   0.436323E+03   0.179930E-15
  Finished solving LPB equations
  A_corr:   -0.326529481383571     
 End minimization
 Ecorr=   1521.87318796331     
 A_corr= -0.326529481383571     
 Ecorr_band=  -1522.19971744469     
 End Solvation calculations
RMM:   2    -0.136000375525E+03   -0.13442E-02   -0.17594E-02  5538   0.336E-01    0.924E-02
 Begin Solvation calculations
  rms_SCF =   9.584674477622769E-003 tol =   9.584674477622769E-004
 Begin minimization
 Creating dielectric and ionic cavities
  area:      146.878270157351     
  volume:    675.728495633866     
  Acav:     7.711109183260935E-002
  Solving linear dielectric/ionic screening model
        iter                  A_solv                     rms
   LPB:       -0.404376086570942E+00   0.848012602065384E-01
   LPB:    0  -0.404371681397286E+00   0.728758404982279E-01  -0.516583E-03   0.000000E+00   0.330152E+02  -0.170551E-01
   LPB:    1  -0.404339305423635E+00   0.214948819194246E-01   0.108103E-01   0.000000E+00   0.959895E+02   0.723869E-18
[...]
  area:      147.460628771110     
  volume:    675.110064641143     
  Acav:     7.741683010483300E-002
  Solving linear dielectric/ionic screening model
        iter                  A_solv                     rms
   LPB:       -0.475560135202930E+00   0.168277876609476E-01
   LPB:    0  -0.475560128831056E+00   0.167875464036653E-01  -0.196382E-04   0.000000E+00   0.330442E+02  -0.648927E-03
   LPB:    1  -0.475558902895156E+00   0.297202453551777E-02   0.105686E-01   0.000000E+00   0.778903E+02   0.335905E-19
   LPB:    2  -0.475558686135118E+00   0.517773449616344E-03   0.150061E-01   0.124526E+00   0.368179E+03  -0.102350E-17
   LPB:    3  -0.475558634436222E+00   0.224613436792159E-03   0.257759E-01   0.138854E+00   0.685078E+03  -0.146043E-17
   LPB:    4  -0.475558617068246E+00   0.165832950980555E-03   0.303002E-01   0.285783E+00   0.755814E+03  -0.114649E-17
   LPB:    5  -0.475558608623026E+00   0.188092280031904E-03   0.313893E-01   0.469381E+00   0.656425E+03  -0.158081E-17
   LPB:    6  -0.475558603607213E+00   0.262992430097124E-03   0.309997E-01   0.601388E+00   0.319584E+03  -0.168689E-17
   LPB:    7  -0.475558600511071E+00   0.241069527447757E-03   0.276000E-01   0.693311E+00   0.148433E+03  -0.150827E-17
   LPB:    8  -0.475558598142557E+00   0.111989215821027E-03   0.290700E-01   0.726303E+00   0.242154E+03  -0.640750E-18
   LPB:    9  -0.475558596319929E+00   0.405656944083955E-04   0.363071E-01   0.616136E+00   0.572823E+03  -0.230091E-17
  Finished solving LPB equations
  A_corr:   -0.398141766215096     
 End minimization
 Ecorr=   1507.37612392690     
 A_corr= -0.398141766215096     
 Ecorr_band=  -1507.77426569312     
 End Solvation calculations
RMM:   5    -0.136003520138E+03    0.76565E-07   -0.66799E-06  2226   0.114E-02
 Begin Solvation calculations
  rms_SCF =   1.115145397469805E-003 tol =   1.115145397469805E-004
 Begin minimization
 Creating dielectric and ionic cavities
  area:      147.458817973382     
  volume:    675.108719863008     
  Acav:     7.741587943602558E-002
  Solving linear dielectric/ionic screening model
        iter                  A_solv                     rms
   LPB:       -0.475579925279149E+00   0.763858637805351E-02
   LPB:    0  -0.475579898548627E+00   0.710888870203956E-02  -0.402227E-04   0.000000E+00   0.330442E+02  -0.132913E-02
   LPB:    1  -0.475579386662103E+00   0.304314370135650E-02   0.121055E-01   0.000000E+00   0.136617E+03  -0.819343E-19
   LPB:    2  -0.475579262068254E+00   0.575823182861573E-03   0.148786E-01   0.198035E+00   0.260971E+03  -0.258564E-17
   LPB:    3  -0.475579231970181E+00   0.258993004638555E-03   0.264662E-01   0.135804E+00   0.424359E+03  -0.380062E-17
   LPB:    4  -0.475579221574157E+00   0.159084112362788E-03   0.285041E-01   0.320711E+00   0.750903E+03  -0.469709E-17
   LPB:    5  -0.475579216526662E+00   0.224676388753136E-03   0.310515E-01   0.445689E+00   0.486236E+03  -0.435151E-17
   LPB:    6  -0.475579213362008E+00   0.261466652192718E-03   0.285153E-01   0.682741E+00   0.210265E+03  -0.416769E-17
   LPB:    7  -0.475579210748707E+00   0.163420239892270E-03   0.299570E-01   0.786035E+00   0.153710E+03  -0.580261E-17
   LPB:    8  -0.475579208629834E+00   0.923850711443964E-04   0.351653E-01   0.690716E+00   0.378766E+03  -0.582099E-17
  Finished solving LPB equations
  A_corr:   -0.398163329193809     
 End minimization
 Ecorr=   1507.37890063158     
 A_corr= -0.398163329193809     
 Ecorr_band=  -1507.77706396077     
 End Solvation calculations
 165 F= -.13600352E+03 E0= -.13600758E+03  d E =-.262762E-03
quench:  g(F)=  0.000E+00 g(S)=  0.000E+00 dE (1.order)= 0.000E+00
 bond charge predicted
       N       E                     dE             d eps       ncg     rms          rms(c)
 Begin Solvation calculations
  rms_SCF =   1.115145397469805E-003 tol =   1.115145397469805E-004
 Begin minimization
 Creating dielectric and ionic cavities
  area:      147.452954586309     
  volume:    675.096628851748     
  Acav:     7.741280115781213E-002
  Solving linear dielectric/ionic screening model
        iter                  A_solv                     rms
   LPB:       -0.475761714389286E+00   0.125151993797566E-02
   LPB:    0  -0.475761714365827E+00   0.127175339687032E-02  -0.119157E-05   0.000000E+00   0.330448E+02  -0.393753E-04
   LPB:    1  -0.475657292989130E+00   0.494774491283270E-03   0.159966E-01   0.000000E+00   0.433214E+06  -0.857073E-22
   LPB:    2  -0.475646318733094E+00   0.502317294176611E-03   0.266346E-01   0.631199E-01   0.113168E+06   0.150591E-17
   LPB:    3  -0.475642958721207E+00   0.965565372430236E-03   0.323442E-01   0.252125E+00   0.229418E+05   0.115674E-17
   LPB:    4  -0.475641534055883E+00   0.225647913408402E-02   0.351434E-01   0.390234E+00   0.280991E+04  -0.648147E-18
   LPB:    5  -0.475640902027762E+00   0.436357028904313E-02   0.303690E-01   0.513377E+00   0.341825E+03   0.112035E-16
   LPB:    6  -0.475640578200895E+00   0.269737720574333E-02   0.197648E-01   0.787253E+00   0.177944E+03   0.403216E-17
   LPB:    7  -0.475640314850324E+00   0.181753700925401E-02   0.280167E-01   0.573717E+00   0.487269E+03  -0.135039E-17
   LPB:    8  -0.475640173134430E+00   0.197372552348941E-02   0.260138E-01   0.579560E+00   0.188973E+03  -0.523746E-17
   LPB:    9  -0.475640068907300E+00   0.792271210284600E-03   0.249637E-01   0.766402E+00   0.239039E+03  -0.119358E-16
   LPB:   10  -0.475639991752622E+00   0.209195985063714E-03   0.347899E-01   0.531173E+00   0.126098E+04  -0.262440E-16
   LPB:   11  -0.475639943407122E+00   0.143478604928829E-03   0.395454E-01   0.551253E+00   0.648217E+04  -0.321869E-16
   LPB:   12  -0.475639912388652E+00   0.200096310682701E-03   0.397091E-01   0.638955E+00   0.334500E+04  -0.354313E-16
   LPB:   13  -0.475639893170228E+00   0.204217701694670E-03   0.345784E-01   0.711512E+00   0.161214E+04  -0.374903E-16
   LPB:   14  -0.475639880602203E+00   0.146314915834991E-03   0.337092E-01   0.670820E+00   0.147903E+04  -0.376177E-16
   LPB:   15  -0.475639871743604E+00   0.866108399478432E-04   0.358333E-01   0.663071E+00   0.239121E+04  -0.375298E-16
  Finished solving LPB equations
  A_corr:   -0.398227070585792     
 End minimization
 Ecorr=   1507.38347257047     
 A_corr= -0.398227070585792     
 Ecorr_band=  -1507.78169964106     
 End Solvation calculations
DAV:   1    -0.136003695450E+03   -0.17524E-03   -0.94535E-03  4383   0.208E-01    0.278E-02
 Begin Solvation calculations
  rms_SCF =   1.115145397469805E-003 tol =   1.115145397469805E-004
 Begin minimization
 Creating dielectric and ionic cavities
  area:      147.454742909046     
  volume:    675.102167767322     
  Acav:     7.741374002724896E-002
  Solving linear dielectric/ionic screening model
        iter                  A_solv                     rms
   LPB:       -0.475536660525030E+00   0.869599661543688E-02
   LPB:    0  -0.475536544037954E+00   0.597223137231764E-02   0.839661E-04   0.000000E+00   0.330445E+02   0.277462E-02
   LPB:    1  -0.475535503713691E+00   0.360069902699835E-02   0.166486E-01   0.000000E+00   0.184809E+03   0.188050E-18
   LPB:    2  -0.475535339933584E+00   0.162859367696722E-02   0.135432E-01   0.193531E+00   0.201989E+03  -0.159141E-18
   LPB:    3  -0.475535267094621E+00   0.731054853709300E-03   0.230950E-01   0.260799E+00   0.241570E+03  -0.901772E-17
   LPB:    4  -0.475535238728654E+00   0.607006990038852E-03   0.268397E-01   0.335099E+00   0.288414E+03  -0.131838E-16
   LPB:    5  -0.475535224836374E+00   0.470515172122758E-03   0.235594E-01   0.557942E+00   0.219678E+03  -0.177673E-16
   LPB:    6  -0.475535214981555E+00   0.225401918444626E-03   0.289719E-01   0.576850E+00   0.200213E+03  -0.234406E-16
   LPB:    7  -0.475535208383733E+00   0.145320694157308E-03   0.360999E-01   0.537307E+00   0.548465E+03  -0.230880E-16
   LPB:    8  -0.475535204044187E+00   0.115133723079441E-03   0.368534E-01   0.644276E+00   0.457731E+03  -0.259478E-16
   LPB:    9  -0.475535201072842E+00   0.750462882826708E-04   0.365959E-01   0.689532E+00   0.794116E+03  -0.264985E-16
  Finished solving LPB equations
  A_corr:   -0.398121461045594     
 End minimization
 Ecorr=   1507.38956919675     
 A_corr= -0.398121461045594     
 Ecorr_band=  -1507.78769065779     
 End Solvation calculations
RMM:   2    -0.136003745724E+03   -0.50274E-04   -0.56953E-04  5189   0.540E-02    0.140E-02
 Begin Solvation calculations
  rms_SCF =   1.115145397469805E-003 tol =   1.115145397469805E-004
 Begin minimization
 Creating dielectric and ionic cavities
  area:      147.453650995582     
  volume:    675.103913937680     
  Acav:     7.741316677268072E-002
  Solving linear dielectric/ionic screening model
        iter                  A_solv                     rms
   LPB:       -0.475456311916987E+00   0.191706695268922E-01
   LPB:    0  -0.475456262558775E+00   0.187098830188236E-01   0.546570E-04   0.000000E+00   0.330444E+02   0.180611E-02
   LPB:    1  -0.475455074680797E+00   0.193839727345354E-02   0.932556E-02   0.000000E+00   0.775294E+02   0.823771E-19
   LPB:    2  -0.475454946622097E+00   0.360257625520174E-03   0.150941E-01   0.666048E-01   0.256733E+03   0.560418E-17
   LPB:    3  -0.475454922594745E+00   0.308922940915013E-03   0.261430E-01   0.108330E+00   0.547191E+03   0.199078E-17
   LPB:    4  -0.475454915539553E+00   0.295119861344886E-03   0.248630E-01   0.308749E+00   0.202553E+03   0.206388E-17
   LPB:    5  -0.475454912111696E+00   0.202392306223353E-03   0.236424E-01   0.510947E+00   0.259706E+03   0.473909E-18
   LPB:    6  -0.475454909832706E+00   0.111520892566380E-03   0.303739E-01   0.517499E+00   0.179882E+03  -0.413974E-18
   LPB:    7  -0.475454908085179E+00   0.673091411638301E-04   0.351692E-01   0.662247E+00   0.525675E+03  -0.610027E-18
  Finished solving LPB equations
  A_corr:   -0.398041741312499     
 End minimization
 Ecorr=   1507.39235056090     
 A_corr= -0.398041741312499     
 Ecorr_band=  -1507.79039230222     
 End Solvation calculations
RMM:   3    -0.136003735825E+03    0.98995E-05   -0.22329E-05  2489   0.143E-02
 Begin Solvation calculations
  rms_SCF =   1.115145397469805E-003 tol =   1.115145397469805E-004
 Begin minimization
 Creating dielectric and ionic cavities
  area:      147.454534079190     
  volume:    675.104912916537     
  Acav:     7.741363039157469E-002
  Solving linear dielectric/ionic screening model
        iter                  A_solv                     rms
   LPB:       -0.475414133366155E+00   0.139622110535206E-01
   LPB:    0  -0.475414097747257E+00   0.134682887626166E-01   0.464308E-04   0.000000E+00   0.330444E+02   0.153428E-02
   LPB:    1  -0.475413472474331E+00   0.190501885232743E-02   0.956478E-02   0.000000E+00   0.743462E+02  -0.519716E-19
   LPB:    2  -0.475413360044737E+00   0.276464046146089E-03   0.176582E-01   0.973955E-01   0.149583E+03   0.134890E-17
   LPB:    3  -0.475413345091065E+00   0.199807499347439E-03   0.250944E-01   0.935916E-01   0.441599E+03   0.144831E-17
   LPB:    4  -0.475413339846330E+00   0.185144847750204E-03   0.256685E-01   0.342888E+00   0.273122E+03   0.153106E-17
   LPB:    5  -0.475413337166000E+00   0.218649515446287E-03   0.279510E-01   0.469318E+00   0.256200E+03   0.254421E-17
   LPB:    6  -0.475413335530965E+00   0.143098526930181E-03   0.266547E-01   0.639678E+00   0.110510E+03   0.221353E-17
   LPB:    7  -0.475413334238101E+00   0.622632492614676E-04   0.321469E-01   0.655635E+00   0.376743E+03   0.200829E-17
  Finished solving LPB equations
  A_corr:   -0.397999703846526     
 End minimization
 Ecorr=   1507.40315742300     
 A_corr= -0.397999703846526     
 Ecorr_band=  -1507.80115712685     
 End Solvation calculations
 166 F= -.13600374E+03 E0= -.13600779E+03  d E =-.215687E-03
quench:  g(F)=  0.000E+00 g(S)=  0.000E+00 dE (1.order)= 0.000E+00
 bond charge predicted
       N       E                     dE             d eps       ncg     rms          rms(c)
 Begin Solvation calculations
  rms_SCF =   1.115145397469805E-003 tol =   1.115145397469805E-004
 Begin minimization
 Creating dielectric and ionic cavities
  area:      147.453907363004     
  volume:    675.100464431678     
  Acav:     7.741330136557717E-002
  Solving linear dielectric/ionic screening model
        iter                  A_solv                     rms
   LPB:       -0.475537811266138E+00   0.100919391124527E-02
   LPB:    0  -0.475537811260079E+00   0.101807115069581E-02  -0.605551E-06   0.000000E+00   0.330446E+02  -0.200102E-04
   LPB:    1  -0.475453913414361E+00   0.408594442594074E-03   0.161128E-01   0.000000E+00   0.568952E+06   0.174679E-20
   LPB:    2  -0.475444432871225E+00   0.365316170460096E-03   0.270814E-01   0.672329E-01   0.139133E+06   0.330061E-17
   LPB:    3  -0.475441403712657E+00   0.660755281608871E-03   0.327130E-01   0.264508E+00   0.372319E+05   0.605472E-17
   LPB:    4  -0.475440098910159E+00   0.148617529641705E-02   0.354709E-01   0.397255E+00   0.500194E+04   0.688249E-17
   LPB:    5  -0.475439486937751E+00   0.316305648516126E-02   0.336153E-01   0.494906E+00   0.572390E+03   0.626985E-17
   LPB:    6  -0.475439204802076E+00   0.299504242082760E-02   0.224920E-01   0.689025E+00   0.172338E+03   0.151685E-16
   LPB:    7  -0.475438984583965E+00   0.166155149890421E-02   0.247528E-01   0.709248E+00   0.347196E+03   0.179826E-16
   LPB:    8  -0.475438854664179E+00   0.200063253570515E-02   0.272136E-01   0.536613E+00   0.243913E+03   0.278939E-16
   LPB:    9  -0.475438768389377E+00   0.942610192912620E-03   0.226122E-01   0.799195E+00   0.193180E+03   0.377825E-16
   LPB:   10  -0.475438699378880E+00   0.252972756976121E-03   0.332615E-01   0.543790E+00   0.869166E+03   0.512778E-16
   LPB:   11  -0.475438653524260E+00   0.113652613847926E-03   0.399529E-01   0.553174E+00   0.550546E+04   0.581266E-16
   LPB:   12  -0.475438624924878E+00   0.146784447102990E-03   0.398856E-01   0.624748E+00   0.529214E+04   0.624507E-16
   LPB:   13  -0.475438607076758E+00   0.179269972830897E-03   0.368529E-01   0.675431E+00   0.233308E+04   0.652143E-16
   LPB:   14  -0.475438595719765E+00   0.158296662154345E-03   0.340585E-01   0.688522E+00   0.145823E+04   0.666776E-16
   LPB:   15  -0.475438587699939E+00   0.956069656974817E-04   0.345396E-01   0.696320E+00   0.184428E+04   0.678668E-16
  Finished solving LPB equations
  A_corr:   -0.398025286334362     
 End minimization
 Ecorr=   1507.40338487750     
 A_corr= -0.398025286334362     
 Ecorr_band=  -1507.80141016383     
 End Solvation calculations
DAV:   1    -0.136003907484E+03   -0.16176E-03   -0.88747E-03  4335   0.218E-01    0.247E-02
 Begin Solvation calculations
  rms_SCF =   1.115145397469805E-003 tol =   1.115145397469805E-004
 Begin minimization
 Creating dielectric and ionic cavities
  area:      147.449967155896     
  volume:    675.098991627882     
  Acav:     7.741123275684554E-002
  Solving linear dielectric/ionic screening model
        iter                  A_solv                     rms
   LPB:       -0.475364295737007E+00   0.334113091621557E-01
   LPB:    0  -0.475364289842818E+00   0.333622298676654E-01   0.188876E-04   0.000000E+00   0.330447E+02   0.624134E-03
   LPB:    1  -0.475360900506340E+00   0.299277341400227E-02   0.891411E-02   0.000000E+00   0.765657E+02  -0.122766E-19
   LPB:    2  -0.475360543070288E+00   0.781964349519681E-03   0.175625E-01   0.535272E-01   0.175787E+03  -0.174921E-17
   LPB:    3  -0.475360464547614E+00   0.495075383809412E-03   0.260197E-01   0.148280E+00   0.372005E+03  -0.954494E-18
   LPB:    4  -0.475360436836010E+00   0.423946668084809E-03   0.288807E-01   0.317951E+00   0.309694E+03  -0.274874E-17
   LPB:    5  -0.475360424331444E+00   0.403624266244504E-03   0.260088E-01   0.501066E+00   0.315824E+03  -0.208947E-17
   LPB:    6  -0.475360416837341E+00   0.277592018317885E-03   0.265842E-01   0.586336E+00   0.193639E+03  -0.385202E-18
   LPB:    7  -0.475360411797758E+00   0.152129243344465E-03   0.294916E-01   0.606178E+00   0.392524E+03  -0.794153E-17
   LPB:    8  -0.475360408116425E+00   0.637376433745059E-04   0.358136E-01   0.601536E+00   0.504855E+03  -0.139788E-16
  Finished solving LPB equations
  A_corr:   -0.397949175359579     
 End minimization
 Ecorr=   1507.41162990379     
 A_corr= -0.397949175359579     
 Ecorr_band=  -1507.80957907915     
 End Solvation calculations
RMM:   2    -0.136003962877E+03   -0.55393E-04   -0.54777E-04  5828   0.562E-02    0.224E-02
 Begin Solvation calculations
  rms_SCF =   1.115145397469805E-003 tol =   1.115145397469805E-004
 Begin minimization
 Creating dielectric and ionic cavities
  area:      147.452197244213     
  volume:    675.098859373626     
  Acav:     7.741240355321202E-002
  Solving linear dielectric/ionic screening model
        iter                  A_solv                     rms
   LPB:       -0.475382494714107E+00   0.429502676489592E-01
   LPB:    0  -0.475382488091732E+00   0.429219894369836E-01   0.200203E-04   0.000000E+00   0.330447E+02   0.661565E-03
   LPB:    1  -0.475377170591869E+00   0.436258307804768E-02   0.890280E-02   0.000000E+00   0.728099E+02   0.325318E-19
   LPB:    2  -0.475376649679122E+00   0.772412571451594E-03   0.167428E-01   0.520903E-01   0.128383E+03  -0.593151E-18
   LPB:    3  -0.475376582796681E+00   0.360364785404712E-03   0.229069E-01   0.938444E-01   0.239571E+03  -0.164100E-17
   LPB:    4  -0.475376561520899E+00   0.230654692154905E-03   0.287927E-01   0.253080E+00   0.344931E+03   0.274092E-17
   LPB:    5  -0.475376552951902E+00   0.236712709509604E-03   0.278595E-01   0.416249E+00   0.326239E+03   0.680968E-17
   LPB:    6  -0.475376548844805E+00   0.248124777533965E-03   0.267619E-01   0.498956E+00   0.226803E+03   0.936862E-17
   LPB:    7  -0.475376546518445E+00   0.158761736901220E-03   0.254331E-01   0.596017E+00   0.165427E+03   0.115360E-16
   LPB:    8  -0.475376544782051E+00   0.658402559423698E-04   0.318789E-01   0.595481E+00   0.335678E+03   0.117218E-16
  Finished solving LPB equations
  A_corr:   -0.397964141228839     
 End minimization
 Ecorr=   1507.42247325338     
 A_corr= -0.397964141228839     
 Ecorr_band=  -1507.82043739461     
 End Solvation calculations
RMM:   3    -0.136003956831E+03    0.60461E-05   -0.31728E-05  2640   0.164E-02
 Begin Solvation calculations
  rms_SCF =   1.115145397469805E-003 tol =   1.115145397469805E-004
 Begin minimization
 Creating dielectric and ionic cavities
  area:      147.451307774175     
  volume:    675.099251023924     
  Acav:     7.741193658144191E-002
  Solving linear dielectric/ionic screening model
        iter                  A_solv                     rms
   LPB:       -0.475330552595088E+00   0.161178921799987E-01
   LPB:    0  -0.475330545377349E+00   0.160115774191582E-01   0.209009E-04   0.000000E+00   0.330447E+02   0.690663E-03
   LPB:    1  -0.475329767444645E+00   0.142051136632638E-02   0.888469E-02   0.000000E+00   0.766059E+02   0.438700E-19
   LPB:    2  -0.475329693621562E+00   0.371198140670367E-03   0.169378E-01   0.497777E-01   0.172069E+03   0.649855E-17
   LPB:    3  -0.475329677829351E+00   0.298846567352637E-03   0.260411E-01   0.139139E+00   0.310274E+03   0.116020E-16
   LPB:    4  -0.475329672466610E+00   0.255629876581930E-03   0.262132E-01   0.337352E+00   0.179461E+03   0.150502E-16
   LPB:    5  -0.475329669963879E+00   0.157150951469216E-03   0.231469E-01   0.528511E+00   0.274468E+03   0.164404E-16
   LPB:    6  -0.475329668450950E+00   0.828804162156526E-04   0.285809E-01   0.489578E+00   0.258857E+03   0.175151E-16
  Finished solving LPB equations
  A_corr:   -0.397917731869508     
 End minimization
 Ecorr=   1507.42757219803     
 A_corr= -0.397917731869508     
 Ecorr_band=  -1507.82548992990     
 End Solvation calculations
 167 F= -.13600396E+03 E0= -.13600801E+03  d E =-.221006E-03
quench:  g(F)=  0.000E+00 g(S)=  0.000E+00 dE (1.order)= 0.000E+00
 reached required accuracy - stopping structural energy minimisation
