 vasp.5.4.4.18Apr17-6-g9f103f2a35 (build Feb 06 2024 13:54:16) complex          
  
 POSCAR found type information on POSCAR  Rh N  O 
 03/POSCAR found :  3 types and      40 ions
 scaLAPACK will be used

 ----------------------------------------------------------------------------- 
|                                                                             |
|  ADVICE TO THIS USER RUNNING 'VASP/VAMP'   (HEAR YOUR MASTER'S VOICE ...):  |
|                                                                             |
|      You enforced a specific xc-type in the INCAR file,                     |
|      a different type was found on the POTCAR file                          |
|          I HOPE YOU KNOW, WHAT YOU ARE  DOING                               |
|                                                                             |
 ----------------------------------------------------------------------------- 

 LDA part: xc-table for Pade appr. of Perdew
 POSCAR found type information on POSCAR  Rh N  O 
 00/POSCAR found :  3 types and      40 ions
 POSCAR found type information on POSCAR  Rh N  O 
 06/POSCAR found :  3 types and      40 ions
 Jacobian:    20.6739712607859     
 POSCAR, INCAR and KPOINTS ok, starting setup
 FFT: planning ...
 WAVECAR not read
 entering main loop
       N       E                     dE             d eps       ncg     rms          rms(c)
  Solvation turned off during non-self-consistent phase (first NELMDL steps)
DAV:   1     0.639555995234E+04    0.63956E+04   -0.35971E+05 19656   0.166E+03
DAV:   2    -0.143804663765E+02   -0.64099E+04   -0.62157E+04 17634   0.493E+02
DAV:   3    -0.258304599068E+03   -0.24392E+03   -0.22719E+03 17856   0.951E+01
DAV:   4    -0.265139713234E+03   -0.68351E+01   -0.66111E+01 18531   0.144E+01
DAV:   5    -0.265383398548E+03   -0.24369E+00   -0.24211E+00 19098   0.247E+00    0.495E+01
 Begin Solvation calculations
  rms_SCF =    2.96379034246111      tol =   0.296379034246111     
 Begin minimization
 Creating dielectric and ionic cavities
  area:      162.219064290018     
  volume:    754.573992240086     
  Acav:     8.516500875225945E-002
  Solving linear dielectric/ionic screening model
        iter                  A_solv                     rms
   LPB:       -0.700299695250389E+03   0.371221368312284E+03
   LPB:    0  -0.159026257129420E+01   0.947022023117046E+01  -0.681084E+01   0.000000E+00   0.301248E+02  -0.205176E+03
   LPB:    1  -0.534407983380788E+00   0.495934507666430E+01   0.134543E-01   0.000000E+00   0.110211E+03  -0.102602E-13
   LPB:    2  -0.294237925742436E+00   0.120713974084326E+01   0.146672E-01   0.208655E+00   0.103973E+03  -0.965574E-14
   LPB:    3  -0.190605412592504E+00   0.353679610354902E+00   0.266849E-01   0.237170E+00   0.127346E+03  -0.381816E-14
   LPB:    4  -0.148634887604771E+00   0.512327350507860E+00   0.311096E-01   0.347392E+00   0.195044E+03  -0.196129E-14
   LPB:    5  -0.129750438539190E+00   0.486324496716934E+00   0.283145E-01   0.494362E+00   0.591009E+02  -0.122940E-14
   LPB:    6  -0.118754275389733E+00   0.382795682943572E+00   0.251930E-01   0.654434E+00   0.362070E+03  -0.914199E-15
   LPB:    7  -0.111214416547796E+00   0.160391908127692E+00   0.313311E-01   0.551349E+00   0.511844E+02  -0.400235E-14
  Finished solving LPB equations
  A_corr:   -2.604940779553629E-002
 End minimization
 Ecorr=   3653.35388753255     
 A_corr= -2.604940779553629E-002
 Ecorr_band=  -3653.37993694035     
 End Solvation calculations
RMM:   6    -0.253300697856E+03    0.12083E+02   -0.61661E+01 16304   0.162E+01    0.289E+01
 Begin Solvation calculations
  rms_SCF =    2.96379034246111      tol =   0.296379034246111     
 Begin minimization
 Creating dielectric and ionic cavities
  area:      160.706388461355     
  volume:    765.600739447644     
  Acav:     8.437085394221132E-002
  Solving linear dielectric/ionic screening model
        iter                  A_solv                     rms
   LPB:       -0.626007196980027E+02   0.145255224268254E+03
   LPB:    0  -0.604095434205711E+02   0.142692558974221E+03   0.384725E+00   0.000000E+00   0.296079E+02   0.113909E+02
   LPB:    1  -0.595593301025158E+01   0.135494236615502E+02   0.896058E-02   0.000000E+00   0.664206E+02   0.429059E-15
   LPB:    2  -0.168502641096399E+01   0.242984125116577E+01   0.160592E-01   0.437627E-01   0.117784E+03  -0.335920E-13
   LPB:    3  -0.107611740171106E+01   0.853206445659733E+00   0.223848E-01   0.102283E+00   0.195860E+03  -0.321340E-13
   LPB:    4  -0.911673823392711E+00   0.894853223361696E+00   0.275226E-01   0.219649E+00   0.239688E+03  -0.342887E-13
   LPB:    5  -0.853495034391145E+00   0.744675499166666E+00   0.261538E-01   0.372308E+00   0.131478E+03  -0.332731E-13
   LPB:    6  -0.828034757797212E+00   0.582180229130725E+00   0.252783E-01   0.452779E+00   0.170216E+03  -0.373960E-13
   LPB:    7  -0.814258861694462E+00   0.229627776402141E+00   0.260605E-01   0.524834E+00   0.124188E+03  -0.388259E-13
  Finished solving LPB equations
  A_corr:   -0.729888007752251     
 End minimization
 Ecorr=   3544.95337120331     
 A_corr= -0.729888007752251     
 Ecorr_band=  -3545.68325921106     
 End Solvation calculations
RMM:   7    -0.451491047485E+03   -0.19819E+03   -0.83034E+01 16904   0.118E+01    0.100E+02
 Begin Solvation calculations
  rms_SCF =    2.96379034246111      tol =   0.296379034246111     
 Begin minimization
 Creating dielectric and ionic cavities
  area:      157.248871468148     
  volume:    771.416080790091     
  Acav:     8.255565752077783E-002
  Solving linear dielectric/ionic screening model
        iter                  A_solv                     rms
   LPB:       -0.369789891713820E+02   0.111526235191382E+03
   LPB:    0  -0.364494537727284E+02   0.110904077739295E+03   0.190006E+00   0.000000E+00   0.293352E+02   0.557388E+01
   LPB:    1  -0.322031194340176E+01   0.103014812258667E+02   0.900855E-02   0.000000E+00   0.665704E+02  -0.188114E-15
   LPB:    2  -0.706970910314716E+00   0.225254442231715E+01   0.159777E-01   0.426456E-01   0.122621E+03   0.575980E-14
   LPB:    3  -0.315759028105674E+00   0.845029931096849E+00   0.231033E-01   0.107646E+00   0.138505E+03   0.726551E-14
   LPB:    4  -0.208944508144270E+00   0.775702149290760E+00   0.266713E-01   0.236510E+00   0.262455E+03   0.746273E-14
   LPB:    5  -0.169972323398390E+00   0.576181699055950E+00   0.250074E-01   0.389134E+00   0.122076E+03   0.739843E-14
   LPB:    6  -0.152953827281095E+00   0.426496341346637E+00   0.239562E-01   0.455846E+00   0.258642E+03   0.599853E-14
   LPB:    7  -0.144449889822553E+00   0.145055633557481E+00   0.268742E-01   0.445431E+00   0.103036E+03   0.488127E-14
  Finished solving LPB equations
  A_corr:   -6.189423230177542E-002
 End minimization
 Ecorr=   3406.11669062818     
 A_corr= -6.189423230177542E-002
 Ecorr_band=  -3406.17858486048     
 End Solvation calculations
RMM:   8    -0.297086697844E+03    0.15440E+03   -0.26201E+01 16272   0.714E+00    0.568E+01
 Begin Solvation calculations
  rms_SCF =    2.96379034246111      tol =   0.296379034246111     
 Begin minimization
 Creating dielectric and ionic cavities
  area:      151.965685841747     
  volume:    761.247682231197     
  Acav:     7.978198506691714E-002
  Solving linear dielectric/ionic screening model
        iter                  A_solv                     rms
   LPB:       -0.206543509843201E+01   0.251480005563860E+02
   LPB:    0  -0.556251908377759E+00   0.909668078428317E+01  -0.318193E+00   0.000000E+00   0.298120E+02  -0.948596E+01
   LPB:    1  -0.180608964771688E+00   0.908393156430416E+00   0.102338E-01   0.000000E+00   0.524339E+02  -0.147481E-15
   LPB:    2  -0.160536854000009E+00   0.645092456339366E+00   0.154928E-01   0.352960E-01   0.101323E+03  -0.189615E-13
   LPB:    3  -0.155598252806230E+00   0.348411494458999E+00   0.176600E-01   0.215849E+00   0.708034E+02  -0.200988E-13
   LPB:    4  -0.151362661394043E+00   0.176778976864902E+00   0.318249E-01   0.475919E+00   0.751175E+02  -0.204171E-13
  Finished solving LPB equations
  A_corr:   -7.158067632712617E-002
 End minimization
 Ecorr=   3482.60508475824     
 A_corr= -7.158067632712617E-002
 Ecorr_band=  -3482.67666543457     
 End Solvation calculations
RMM:   9    -0.258525043894E+03    0.38562E+02   -0.22484E+01 16293   0.757E+00    0.323E+01
 Begin Solvation calculations
  rms_SCF =    2.96379034246111      tol =   0.296379034246111     
 Begin minimization
 Creating dielectric and ionic cavities
  area:      146.875963745167     
  volume:    756.994755251621     
  Acav:     7.710988096621255E-002
  Solving linear dielectric/ionic screening model
        iter                  A_solv                     rms
   LPB:       -0.950679151283762E+00   0.164753712611778E+02
   LPB:    0  -0.950187982486181E+00   0.164341864906642E+02  -0.572121E-02   0.000000E+00   0.300113E+02  -0.171701E+00
   LPB:    1  -0.229457511534887E+00   0.157667085190429E+01   0.874539E-02   0.000000E+00   0.686899E+02  -0.108955E-16
   LPB:    2  -0.174885456901625E+00   0.291113610674598E+00   0.172213E-01   0.384512E-01   0.918479E+02   0.179410E-14
   LPB:    3  -0.163156903425334E+00   0.256541982309065E+00   0.257666E-01   0.143643E+00   0.187910E+03   0.393620E-14
   LPB:    4  -0.156938960215591E+00   0.232005431405071E+00   0.324743E-01   0.420649E+00   0.720763E+02   0.435981E-14
  Finished solving LPB equations
  A_corr:   -7.982907924937840E-002
 End minimization
 Ecorr=   3444.09035711974     
 A_corr= -7.982907924937840E-002
 Ecorr_band=  -3444.17018619899     
 End Solvation calculations
RMM:  10    -0.252970319346E+03    0.55547E+01   -0.13677E+01 16292   0.597E+00    0.225E+01
 Begin Solvation calculations
  rms_SCF =    2.96379034246111      tol =   0.296379034246111     
 Begin minimization
 Creating dielectric and ionic cavities
  area:      139.577168482602     
  volume:    754.740642305317     
  Acav:     7.327801345336629E-002
  Solving linear dielectric/ionic screening model
        iter                  A_solv                     rms
   LPB:       -0.231821994597294E+00   0.305230073942384E+01
   LPB:    0  -0.203833878595738E+00   0.228414697111656E+01   0.431118E-01   0.000000E+00   0.301170E+02   0.129840E+01
   LPB:    1  -0.180249285119692E+00   0.544858152603052E+00   0.113844E-01   0.000000E+00   0.686827E+02  -0.647470E-16
   LPB:    2  -0.172686376768061E+00   0.152830555998450E+00   0.189854E-01   0.192286E+00   0.199889E+03   0.604998E-15
   LPB:    3  -0.168679011933631E+00   0.132393424691164E+00   0.314087E-01   0.320288E+00   0.395073E+03   0.361591E-15
   LPB:    4  -0.165119468506823E+00   0.147322997552246E+00   0.459525E-01   0.607122E+00   0.948111E+02   0.561561E-16
  Finished solving LPB equations
  A_corr:   -9.184145505345626E-002
 End minimization
 Ecorr=   3402.74239240615     
 A_corr= -9.184145505345626E-002
 Ecorr_band=  -3402.83423386120     
 End Solvation calculations
RMM:  11    -0.250158472983E+03    0.28118E+01   -0.42964E+00 16319   0.340E+00    0.136E+01
 Begin Solvation calculations
  rms_SCF =    2.96379034246111      tol =   0.296379034246111     
 Begin minimization
 Creating dielectric and ionic cavities
  area:      138.936144851722     
  volume:    750.636663991145     
  Acav:     7.294147604715423E-002
  Solving linear dielectric/ionic screening model
        iter                  A_solv                     rms
   LPB:       -0.253728860084575E+00   0.405842795108838E+01
   LPB:    0  -0.225216516675269E+00   0.356453796992990E+01   0.433753E-01   0.000000E+00   0.303094E+02   0.131468E+01
   LPB:    1  -0.185090921278873E+00   0.320064588957106E+00   0.914777E-02   0.000000E+00   0.749117E+02  -0.306700E-16
   LPB:    2  -0.179382534594073E+00   0.161501021837608E+00   0.191729E-01   0.678767E-01   0.317570E+03  -0.930787E-16
   LPB:    3  -0.176368625471197E+00   0.193479364931158E+00   0.347282E-01   0.291489E+00   0.306027E+03   0.514069E-16
   LPB:    4  -0.174274071502538E+00   0.177451142054370E+00   0.343205E-01   0.703217E+00   0.698048E+02   0.365406E-15
  Finished solving LPB equations
  A_corr:   -0.101332595455384     
 End minimization
 Ecorr=   3368.40376493310     
 A_corr= -0.101332595455384     
 Ecorr_band=  -3368.50509752855     
 End Solvation calculations
RMM:  12    -0.249454264677E+03    0.70421E+00   -0.10605E+00 16296   0.170E+00    0.851E+00
 Begin Solvation calculations
  rms_SCF =    1.84629237358340      tol =   0.184629237358340     
 Begin minimization
 Creating dielectric and ionic cavities
  area:      138.489264488571     
  volume:    747.701674991747     
  Acav:     7.270686385649977E-002
  Solving linear dielectric/ionic screening model
        iter                  A_solv                     rms
   LPB:       -0.186215808205720E+00   0.796235591219115E+00
   LPB:    0  -0.182891474846504E+00   0.472056052216155E+00   0.147773E-01   0.000000E+00   0.304470E+02   0.449925E+00
   LPB:    1  -0.178382689232547E+00   0.354256364560665E+00   0.189283E-01   0.000000E+00   0.106291E+03  -0.214655E-16
   LPB:    2  -0.176614226894796E+00   0.170478754818878E+00   0.173261E-01   0.428497E+00   0.232642E+03   0.427633E-15
   LPB:    3  -0.175145501172814E+00   0.151446734583164E+00   0.316472E-01   0.454685E+00   0.215474E+03   0.720657E-15
   LPB:    4  -0.173647828772474E+00   0.157010183172702E+00   0.411112E-01   0.784967E+00   0.627202E+02   0.912320E-15
  Finished solving LPB equations
  A_corr:   -0.100940964915975     
 End minimization
 Ecorr=   3351.29558561854     
 A_corr= -0.100940964915975     
 Ecorr_band=  -3351.39652658345     
 End Solvation calculations
RMM:  13    -0.248855532765E+03    0.59873E+00   -0.45650E-01 16300   0.115E+00    0.371E+00
 Begin Solvation calculations
  rms_SCF =    1.84629237358340      tol =   0.184629237358340     
 Begin minimization
 Creating dielectric and ionic cavities
  area:      138.538026824832     
  volume:    746.226969702221     
  Acav:     7.273246408303692E-002
  Solving linear dielectric/ionic screening model
        iter                  A_solv                     rms
   LPB:       -0.181523052605728E+00   0.159345211716323E+01
   LPB:    0  -0.181437496919419E+00   0.159222327885190E+01   0.236796E-02   0.000000E+00   0.305162E+02   0.722611E-01
   LPB:    1  -0.173651515803928E+00   0.202948086177487E+00   0.968990E-02   0.000000E+00   0.653986E+02  -0.374365E-17
   LPB:    2  -0.172123111318552E+00   0.520968421054525E-01   0.179893E-01   0.105738E+00   0.183537E+03   0.237217E-15
   LPB:    3  -0.171544069462132E+00   0.400005125918424E-01   0.379965E-01   0.179367E+00   0.252322E+03   0.320427E-15
   LPB:    4  -0.170895671406228E+00   0.516914892383181E-01   0.457411E-01   0.930185E+00   0.139357E+03  -0.533781E-16
  Finished solving LPB equations
  A_corr:   -9.816320732319135E-002
 End minimization
 Ecorr=   3346.35523544821     
 A_corr= -9.816320732319135E-002
 Ecorr_band=  -3346.45339865554     
 End Solvation calculations
RMM:  14    -0.248794709618E+03    0.60823E-01   -0.61773E-02 16303   0.397E-01    0.264E+00
 Begin Solvation calculations
  rms_SCF =    1.57245154454500      tol =   0.157245154454500     
 Begin minimization
 Creating dielectric and ionic cavities
  area:      138.784105782380     
  volume:    744.092628279270     
  Acav:     7.286165553574928E-002
  Solving linear dielectric/ionic screening model
        iter                  A_solv                     rms
   LPB:       -0.175903543574846E+00   0.690334540696657E+00
   LPB:    0  -0.173967224412399E+00   0.454412029718805E+00   0.112468E-01   0.000000E+00   0.306162E+02   0.344333E+00
   LPB:    1  -0.171481525464900E+00   0.182905059782963E+00   0.140002E-01   0.000000E+00   0.121744E+03  -0.255089E-16
   LPB:    2  -0.171006023763464E+00   0.778811581189487E-01   0.147204E-01   0.181935E+00   0.201353E+03  -0.501682E-16
   LPB:    3  -0.170642525556308E+00   0.106534407918562E+00   0.351006E-01   0.320594E+00   0.166153E+03   0.142808E-15
   LPB:    4  -0.170274420975776E+00   0.874801355777257E-01   0.322339E-01   0.110274E+01   0.101866E+03   0.355448E-15
  Finished solving LPB equations
  A_corr:   -9.741276544002717E-002
 End minimization
 Ecorr=   3338.75473435393     
 A_corr= -9.741276544002717E-002
 Ecorr_band=  -3338.85214711937     
 End Solvation calculations
RMM:  15    -0.248797349515E+03   -0.26399E-02   -0.62188E-02 16305   0.412E-01    0.255E+00
 Begin Solvation calculations
  rms_SCF =    1.51227386900544      tol =   0.151227386900544     
 Begin minimization
 Creating dielectric and ionic cavities
  area:      139.612849558833     
  volume:    739.056938822432     
  Acav:     7.329674601838758E-002
  Solving linear dielectric/ionic screening model
        iter                  A_solv                     rms
   LPB:       -0.198761473973361E+00   0.122468053346918E+01
   LPB:    0  -0.188471740522357E+00   0.606791421785350E+00   0.258270E-01   0.000000E+00   0.308523E+02   0.796821E+00
   LPB:    1  -0.177462100486092E+00   0.412737979681729E+00   0.135807E-01   0.000000E+00   0.298512E+03  -0.509463E-16
   LPB:    2  -0.175643337442921E+00   0.157928865131851E+00   0.163539E-01   0.137184E+00   0.787763E+02   0.611730E-15
   LPB:    3  -0.174828052342803E+00   0.129759661691686E+00   0.237813E-01   0.308262E+00   0.316550E+03   0.112288E-14
   LPB:    4  -0.174331576540003E+00   0.115963941639077E+00   0.233470E-01   0.620286E+00   0.156415E+03   0.148625E-14
  Finished solving LPB equations
  A_corr:   -0.101034830521616     
 End minimization
 Ecorr=   3324.16310124903     
 A_corr= -0.101034830521616     
 Ecorr_band=  -3324.26413607955     
 End Solvation calculations
RMM:  16    -0.248840951545E+03   -0.43602E-01   -0.89031E-02 16295   0.499E-01    0.349E+00
 Begin Solvation calculations
  rms_SCF =    1.51227386900544      tol =   0.151227386900544     
 Begin minimization
 Creating dielectric and ionic cavities
  area:      140.149175150476     
  volume:    736.267296926088     
  Acav:     7.357831695399966E-002
  Solving linear dielectric/ionic screening model
        iter                  A_solv                     rms
   LPB:       -0.185670583520530E+00   0.684310264284470E+00
   LPB:    0  -0.182437007901363E+00   0.391417858868150E+00   0.144476E-01   0.000000E+00   0.309831E+02   0.447630E+00
   LPB:    1  -0.178069634570935E+00   0.192655826467192E+00   0.139290E-01   0.000000E+00   0.270188E+03   0.931479E-17
   LPB:    2  -0.177342416014081E+00   0.104700361886314E+00   0.195134E-01   0.118859E+00   0.827042E+02   0.944070E-15
   LPB:    3  -0.176624743597175E+00   0.645850552470440E-01   0.399459E-01   0.482082E+00   0.236146E+03   0.841846E-15
   LPB:    4  -0.175977511703647E+00   0.122704546196503E+00   0.358261E-01   0.100556E+01   0.301321E+03  -0.163125E-15
  Finished solving LPB equations
  A_corr:   -0.102399194749647     
 End minimization
 Ecorr=   3316.06704488899     
 A_corr= -0.102399194749647     
 Ecorr_band=  -3316.16944408374     
 End Solvation calculations
RMM:  17    -0.248805008338E+03    0.35943E-01   -0.56489E-02 16301   0.398E-01    0.290E+00
 Begin Solvation calculations
  rms_SCF =    1.51227386900544      tol =   0.151227386900544     
 Begin minimization
 Creating dielectric and ionic cavities
  area:      140.708549482479     
  volume:    733.543050307508     
  Acav:     7.387198847830133E-002
  Solving linear dielectric/ionic screening model
        iter                  A_solv                     rms
   LPB:       -0.188607888092927E+00   0.808032874927409E+00
   LPB:    0  -0.184117154685585E+00   0.455529579619227E+00   0.169910E-01   0.000000E+00   0.311108E+02   0.528602E+00
   LPB:    1  -0.178965636410791E+00   0.210044680355170E+00   0.133867E-01   0.000000E+00   0.255596E+03   0.297646E-16
   LPB:    2  -0.178323527022528E+00   0.714725688745270E-01   0.163610E-01   0.101986E+00   0.855076E+02  -0.395603E-16
   LPB:    3  -0.177940235265766E+00   0.537058772931071E-01   0.368940E-01   0.264712E+00   0.285941E+03  -0.113028E-15
   LPB:    4  -0.177503722608058E+00   0.127753449431996E+00   0.415900E-01   0.101026E+01   0.203527E+03  -0.319317E-15
  Finished solving LPB equations
  A_corr:   -0.103631734129757     
 End minimization
 Ecorr=   3306.53425337253     
 A_corr= -0.103631734129757     
 Ecorr_band=  -3306.63788510666     
 End Solvation calculations
RMM:  18    -0.248758086777E+03    0.46922E-01   -0.27776E-02 16302   0.282E-01    0.164E+00
 Begin Solvation calculations
  rms_SCF =    1.51227386900544      tol =   0.151227386900544     
 Begin minimization
 Creating dielectric and ionic cavities
  area:      140.912184805520     
  volume:    732.455740977077     
  Acav:     7.397889702289820E-002
  Solving linear dielectric/ionic screening model
        iter                  A_solv                     rms
   LPB:       -0.180484301333397E+00   0.420855383953871E+00
   LPB:    0  -0.179892425748433E+00   0.379904125055895E+00   0.616338E-02   0.000000E+00   0.311618E+02   0.192062E+00
   LPB:    1  -0.178291843025846E+00   0.109647558826730E+00   0.134746E-01   0.000000E+00   0.117393E+03   0.496987E-17
   LPB:    2  -0.178073984985199E+00   0.562225006540348E-01   0.150459E-01   0.121897E+00   0.168896E+03   0.422703E-15
   LPB:    3  -0.177900703934325E+00   0.996839424274187E-01   0.365979E-01   0.326994E+00   0.106731E+03   0.491209E-15
   LPB:    4  -0.177650738207729E+00   0.847714519006935E-01   0.322964E-01   0.163468E+01   0.129079E+03   0.196776E-16
  Finished solving LPB equations
  A_corr:   -0.103671841184831     
 End minimization
 Ecorr=   3301.47088434330     
 A_corr= -0.103671841184831     
 Ecorr_band=  -3301.57455618449     
 End Solvation calculations
RMM:  19    -0.248741261765E+03    0.16825E-01   -0.97203E-03 16289   0.162E-01    0.771E-01
 Begin Solvation calculations
  rms_SCF =    1.04070224840178      tol =   0.104070224840178     
 Begin minimization
 Creating dielectric and ionic cavities
  area:      141.090539391893     
  volume:    731.575386982310     
  Acav:     7.407253318074400E-002
  Solving linear dielectric/ionic screening model
        iter                  A_solv                     rms
   LPB:       -0.179835804170370E+00   0.467949897793745E+00
   LPB:    0  -0.179102068728912E+00   0.219004118925295E+00   0.685782E-02   0.000000E+00   0.312030E+02   0.213985E+00
   LPB:    1  -0.177488814218536E+00   0.719409178524834E-01   0.136860E-01   0.000000E+00   0.313100E+03   0.110120E-16
   LPB:    2  -0.177345489610856E+00   0.527983756680008E-01   0.195137E-01   0.623095E-01   0.889691E+02   0.347190E-15
   LPB:    3  -0.177239154519398E+00   0.386383258761618E-01   0.311367E-01   0.464967E+00   0.235796E+03   0.411392E-15
   LPB:    4  -0.177113450093924E+00   0.495994504630372E-01   0.398144E-01   0.924498E+00   0.188982E+03   0.341149E-15
  Finished solving LPB equations
  A_corr:   -0.103040916913180     
 End minimization
 Ecorr=   3300.09407749511     
 A_corr= -0.103040916913180     
 Ecorr_band=  -3300.19711841203     
 End Solvation calculations
RMM:  20    -0.248739692891E+03    0.15689E-02   -0.34262E-03 15013   0.928E-02    0.757E-01
 Begin Solvation calculations
  rms_SCF =    1.04070224840178      tol =   0.104070224840178     
 Begin minimization
 Creating dielectric and ionic cavities
  area:      141.219062093747     
  volume:    731.007960678419     
  Acav:     7.414000759921714E-002
  Solving linear dielectric/ionic screening model
        iter                  A_solv                     rms
   LPB:       -0.178074729537029E+00   0.301382943847008E+00
   LPB:    0  -0.177758533001726E+00   0.203641486482849E+00   0.449997E-02   0.000000E+00   0.312296E+02   0.140533E+00
   LPB:    1  -0.176863099506438E+00   0.685739565399254E-01   0.137091E-01   0.000000E+00   0.229173E+03  -0.809106E-17
   LPB:    2  -0.176779206046000E+00   0.326959002352200E-01   0.165126E-01   0.777839E-01   0.866187E+02   0.142182E-16
   LPB:    3  -0.176719685738147E+00   0.288825606421167E-01   0.370598E-01   0.316117E+00   0.134718E+03   0.411728E-15
   LPB:    4  -0.176623340032447E+00   0.231070183733150E-01   0.517314E-01   0.115962E+01   0.172190E+03   0.647403E-15
  Finished solving LPB equations
  A_corr:   -0.102483332433230     
 End minimization
 Ecorr=   3298.53365983294     
 A_corr= -0.102483332433230     
 Ecorr_band=  -3298.63614316537     
 End Solvation calculations
RMM:  21    -0.248737029559E+03    0.26633E-02   -0.18987E-03 14350   0.702E-02    0.596E-01
 Begin Solvation calculations
  rms_SCF =    1.04070224840178      tol =   0.104070224840178     
 Begin minimization
 Creating dielectric and ionic cavities
  area:      141.397463748219     
  volume:    730.220045220950     
  Acav:     7.423366846781498E-002
  Solving linear dielectric/ionic screening model
        iter                  A_solv                     rms
   LPB:       -0.179177150987459E+00   0.567831260652828E+00
   LPB:    0  -0.178618897777123E+00   0.481166829331976E+00   0.597572E-02   0.000000E+00   0.312666E+02   0.186840E+00
   LPB:    1  -0.176486914080186E+00   0.128645705681179E+00   0.128217E-01   0.000000E+00   0.111787E+03   0.361848E-17
   LPB:    2  -0.176274865804656E+00   0.512758891869612E-01   0.127098E-01   0.100336E+00   0.146412E+03   0.695203E-16
   LPB:    3  -0.176213392765654E+00   0.330264660388000E-01   0.205242E-01   0.179524E+00   0.126387E+03  -0.927844E-17
   LPB:    4  -0.176172788527980E+00   0.343912321012168E-01   0.277441E-01   0.488634E+00   0.266452E+03  -0.833331E-17
  Finished solving LPB equations
  A_corr:   -0.101939120060165     
 End minimization
 Ecorr=   3296.57154661025     
 A_corr= -0.101939120060165     
 Ecorr_band=  -3296.67348573031     
 End Solvation calculations
RMM:  22    -0.248734455698E+03    0.25739E-02   -0.10789E-03 13704   0.487E-02    0.356E-01
 Begin Solvation calculations
  rms_SCF =   0.556444471102289      tol =   5.564444711022885E-002
 Begin minimization
 Creating dielectric and ionic cavities
  area:      141.592656214360     
  volume:    729.378576422379     
  Acav:     7.433614451253903E-002
  Solving linear dielectric/ionic screening model
        iter                  A_solv                     rms
   LPB:       -0.179870467515027E+00   0.671340868269703E+00
   LPB:    0  -0.179163115427246E+00   0.542063780710451E+00   0.672231E-02   0.000000E+00   0.313060E+02   0.210449E+00
   LPB:    1  -0.176139518455755E+00   0.135558450888281E+00   0.130540E-01   0.000000E+00   0.117973E+03   0.992052E-17
   LPB:    2  -0.175863439333446E+00   0.734732244902256E-01   0.134712E-01   0.884805E-01   0.136686E+03   0.649240E-15
   LPB:    3  -0.175757391943605E+00   0.408203457910941E-01   0.207659E-01   0.249184E+00   0.107297E+03   0.963430E-15
   LPB:    4  -0.175692166105513E+00   0.427731255696615E-01   0.274953E-01   0.464529E+00   0.316714E+03   0.115659E-14
  Finished solving LPB equations
  A_corr:   -0.101356021592974     
 End minimization
 Ecorr=   3295.44083797626     
 A_corr= -0.101356021592974     
 Ecorr_band=  -3295.54219399785     
 End Solvation calculations
RMM:  23    -0.248733246070E+03    0.12096E-02   -0.10304E-03 13634   0.474E-02    0.232E-01
 Begin Solvation calculations
  rms_SCF =   0.322715430244976      tol =   3.227154302449760E-002
 Begin minimization
 Creating dielectric and ionic cavities
  area:      141.784858690122     
  volume:    728.608305635228     
  Acav:     7.443705081231412E-002
  Solving linear dielectric/ionic screening model
        iter                  A_solv                     rms
   LPB:       -0.181376689048658E+00   0.827054267740826E+00
   LPB:    0  -0.180590288016238E+00   0.692840285808312E+00   0.708390E-02   0.000000E+00   0.313421E+02   0.222025E+00
   LPB:    1  -0.175495192523358E+00   0.153419307079655E+00   0.131983E-01   0.000000E+00   0.117382E+03  -0.134630E-17
   LPB:    2  -0.175094587867476E+00   0.944939165166172E-01   0.136778E-01   0.758691E-01   0.142694E+03  -0.206680E-15
   LPB:    3  -0.174946373535086E+00   0.481974523620795E-01   0.196462E-01   0.257579E+00   0.100278E+03  -0.166981E-16
   LPB:    4  -0.174854181973719E+00   0.511775816869785E-01   0.278728E-01   0.438430E+00   0.301785E+03  -0.254412E-15
   LPB:    5  -0.174789807732743E+00   0.348285240835052E-01   0.258426E-01   0.753121E+00   0.527706E+02  -0.403063E-15
   LPB:    6  -0.174734510806155E+00   0.127747120531375E-01   0.334131E-01   0.664367E+00   0.294033E+03  -0.120984E-16
  Finished solving LPB equations
  A_corr:   -0.100297459993841     
 End minimization
 Ecorr=   3296.13247160128     
 A_corr= -0.100297459993841     
 Ecorr_band=  -3296.23276906127     
 End Solvation calculations
RMM:  24    -0.248733203210E+03    0.42861E-04   -0.60300E-04 12501   0.343E-02
 Begin Solvation calculations
  rms_SCF =   0.322715430244976      tol =   3.227154302449760E-002
 Begin minimization
 Creating dielectric and ionic cavities
  area:      141.871744806084     
  volume:    728.293623533426     
  Acav:     7.448266602319428E-002
  Solving linear dielectric/ionic screening model
        iter                  A_solv                     rms
   LPB:       -0.176167411276291E+00   0.474178704636494E+00
   LPB:    0  -0.175970467202115E+00   0.410846648240190E+00   0.354421E-02   0.000000E+00   0.313569E+02   0.111136E+00
   LPB:    1  -0.174413073979989E+00   0.876062335043148E-01   0.130985E-01   0.000000E+00   0.103578E+03   0.126177E-17
   LPB:    2  -0.174284898292278E+00   0.509652657666620E-01   0.131044E-01   0.822645E-01   0.178369E+03   0.264357E-15
   LPB:    3  -0.174248227155930E+00   0.178144321935192E-01   0.172895E-01   0.216847E+00   0.115444E+03   0.160980E-15
   LPB:    4  -0.174226092699137E+00   0.275624331801930E-01   0.336290E-01   0.310323E+00   0.319925E+03   0.220993E-15
  Finished solving LPB equations
  A_corr:   -9.974342667594224E-002
 End minimization
 Ecorr=   3295.95825334813     
 A_corr= -9.974342667594224E-002
 Ecorr_band=  -3296.05799677481     
 End Solvation calculations
   1 F= -.24873320E+03 E0= -.24873276E+03  d E =-.248733E+03
quench:  g(F)=  0.000E+00 g(S)=  0.000E+00 dE (1.order)= 0.000E+00
 bond charge predicted
       N       E                     dE             d eps       ncg     rms          rms(c)
 Begin Solvation calculations
  rms_SCF =   0.322715430244976      tol =   3.227154302449760E-002
 Begin minimization
 Creating dielectric and ionic cavities
  area:      141.873897858400     
  volume:    728.284428287925     
  Acav:     7.448379637566022E-002
  Solving linear dielectric/ionic screening model
        iter                  A_solv                     rms
   LPB:       -0.174296981408972E+00   0.277792805757774E-01
   LPB:    0  -0.174296981395618E+00   0.278169368673478E-01  -0.922902E-06   0.000000E+00   0.313573E+02  -0.289397E-04
   LPB:    1  -0.174242570512003E+00   0.177263822411328E-01   0.157000E-01   0.000000E+00   0.392698E+03   0.100876E-20
   LPB:    2  -0.174228592949977E+00   0.253919237558287E-01   0.257421E-01   0.156676E+00   0.181690E+03  -0.162354E-15
   LPB:    3  -0.174210346669002E+00   0.184817110535307E-01   0.332026E-01   0.101208E+01   0.159100E+03  -0.345207E-15
   LPB:    4  -0.174186919658059E+00   0.360063899990488E-01   0.366261E-01   0.116392E+01   0.120438E+03  -0.668172E-15
   LPB:    5  -0.174167495421552E+00   0.142710980470695E-01   0.220588E-01   0.137669E+01   0.799383E+02  -0.110393E-14
  Finished solving LPB equations
  A_corr:   -9.968369904589139E-002
 End minimization
 Ecorr=   3296.55489809954     
 A_corr= -9.968369904589139E-002
 Ecorr_band=  -3296.65458179859     
 End Solvation calculations
DAV:   1    -0.248733175438E+03    0.70633E-04   -0.50091E-03 16584   0.245E-01    0.220E-01
 Begin Solvation calculations
  rms_SCF =   0.322715430244976      tol =   3.227154302449760E-002
 Begin minimization
 Creating dielectric and ionic cavities
  area:      141.858876600768     
  volume:    728.246520310593     
  Acav:     7.447591021540327E-002
  Solving linear dielectric/ionic screening model
        iter                  A_solv                     rms
   LPB:       -0.198889208883043E+00   0.285729024569483E+01
   LPB:    0  -0.198617358647377E+00   0.284237726921939E+01   0.416388E-02   0.000000E+00   0.313591E+02   0.130576E+00
   LPB:    1  -0.176947190587185E+00   0.316239280205112E+00   0.915681E-02   0.000000E+00   0.639166E+02   0.102798E-16
   LPB:    2  -0.174499165992368E+00   0.630457892592991E-01   0.146392E-01   0.706610E-01   0.155547E+03   0.495976E-17
   LPB:    3  -0.174200863411309E+00   0.226023524938251E-01   0.215297E-01   0.828555E-01   0.192726E+03  -0.286363E-15
   LPB:    4  -0.174119778507866E+00   0.986220969913960E-02   0.271803E-01   0.215311E+00   0.300176E+03  -0.329694E-15
  Finished solving LPB equations
  A_corr:   -9.964386829246254E-002
 End minimization
 Ecorr=   3295.78380559342     
 A_corr= -9.964386829246254E-002
 Ecorr_band=  -3295.88344946171     
 End Solvation calculations
RMM:   2    -0.248816167918E+03   -0.82992E-01   -0.13884E-02 16218   0.170E-01    0.328E+00
 Begin Solvation calculations
  rms_SCF =   0.322715430244976      tol =   3.227154302449760E-002
 Begin minimization
 Creating dielectric and ionic cavities
  area:      141.929726288418     
  volume:    728.245828102164     
  Acav:     7.451310630141948E-002
  Solving linear dielectric/ionic screening model
        iter                  A_solv                     rms
   LPB:       -0.188479059712529E+00   0.233285887625694E+01
   LPB:    0  -0.188465174095742E+00   0.233109238801385E+01   0.941056E-03   0.000000E+00   0.313591E+02   0.295107E-01
   LPB:    1  -0.174737123364250E+00   0.219738165901072E+00   0.861213E-02   0.000000E+00   0.680791E+02   0.198037E-18
   LPB:    2  -0.173572176120443E+00   0.367402125149341E-01   0.158566E-01   0.460889E-01   0.126036E+03   0.224986E-15
   LPB:    3  -0.173453224645642E+00   0.101431118923288E-01   0.200176E-01   0.808842E-01   0.241958E+03   0.253433E-15
   LPB:    4  -0.173430968690098E+00   0.609242679758611E-02   0.238916E-01   0.156763E+00   0.804340E+03   0.257203E-15
  Finished solving LPB equations
  A_corr:   -9.891786238867815E-002
 End minimization
 Ecorr=   3296.39715078364     
 A_corr= -9.891786238867815E-002
 Ecorr_band=  -3296.49606864603     
 End Solvation calculations
RMM:   3    -0.248737040104E+03    0.79128E-01   -0.94114E-03 16269   0.149E-01    0.679E-01
 Begin Solvation calculations
  rms_SCF =   0.322715430244976      tol =   3.227154302449760E-002
 Begin minimization
 Creating dielectric and ionic cavities
  area:      141.928765290654     
  volume:    728.153505171988     
  Acav:     7.451260177759354E-002
  Solving linear dielectric/ionic screening model
        iter                  A_solv                     rms
   LPB:       -0.173659687243707E+00   0.210921928015524E+00
   LPB:    0  -0.173595905163101E+00   0.153165940957122E+00  -0.201675E-02   0.000000E+00   0.313635E+02  -0.632523E-01
   LPB:    1  -0.173506455023046E+00   0.233273768937915E-01   0.103353E-01   0.000000E+00   0.679792E+02   0.676510E-18
   LPB:    2  -0.173493462348959E+00   0.924476569820565E-02   0.146487E-01   0.102480E+00   0.235167E+03  -0.440833E-16
   LPB:    3  -0.173490416719652E+00   0.717224208711039E-02   0.198476E-01   0.173009E+00   0.143011E+03  -0.918966E-16
   LPB:    4  -0.173487783227545E+00   0.973489002760421E-02   0.358811E-01   0.478297E+00   0.317284E+03  -0.926912E-16
  Finished solving LPB equations
  A_corr:   -9.897518144995100E-002
 End minimization
 Ecorr=   3297.27282607091     
 A_corr= -9.897518144995100E-002
 Ecorr_band=  -3297.37180125236     
 End Solvation calculations
RMM:   4    -0.248733576806E+03    0.34633E-02   -0.15256E-03 13639   0.675E-02    0.264E-01
 Begin Solvation calculations
  rms_SCF =   0.322715430244976      tol =   3.227154302449760E-002
 Begin minimization
 Creating dielectric and ionic cavities
  area:      141.956316223726     
  volume:    728.119777324233     
  Acav:     7.452706601745594E-002
  Solving linear dielectric/ionic screening model
        iter                  A_solv                     rms
   LPB:       -0.173727277752006E+00   0.258789230257809E+00
   LPB:    0  -0.173678578311997E+00   0.218855540292453E+00   0.176220E-02   0.000000E+00   0.313650E+02   0.552713E-01
   LPB:    1  -0.173256955546368E+00   0.343734913165279E-01   0.131916E-01   0.000000E+00   0.933071E+02  -0.135050E-17
   LPB:    2  -0.173233411811126E+00   0.255330557405671E-01   0.131538E-01   0.560014E-01   0.227531E+03   0.292064E-15
   LPB:    3  -0.173225794885929E+00   0.805852288577769E-02   0.172365E-01   0.246892E+00   0.943192E+02   0.262755E-15
   LPB:    4  -0.173221205563853E+00   0.722869698866912E-02   0.325429E-01   0.319125E+00   0.224559E+03   0.254545E-15
  Finished solving LPB equations
  A_corr:   -9.869413954639718E-002
 End minimization
 Ecorr=   3297.53073910206     
 A_corr= -9.869413954639718E-002
 Ecorr_band=  -3297.62943324160     
 End Solvation calculations
RMM:   5    -0.248734214116E+03   -0.63731E-03   -0.51045E-04 13010   0.374E-02    0.321E-01
 Begin Solvation calculations
  rms_SCF =   0.322715430244976      tol =   3.227154302449760E-002
 Begin minimization
 Creating dielectric and ionic cavities
  area:      141.992874913125     
  volume:    728.040594198794     
  Acav:     7.454625932939048E-002
  Solving linear dielectric/ionic screening model
        iter                  A_solv                     rms
   LPB:       -0.174005811313743E+00   0.401702147108634E+00
   LPB:    0  -0.173985585620090E+00   0.391064164276428E+00   0.113558E-02   0.000000E+00   0.313688E+02   0.356218E-01
   LPB:    1  -0.173065720709103E+00   0.801618219776031E-01   0.124246E-01   0.000000E+00   0.764131E+02   0.165851E-17
   LPB:    2  -0.172985479451393E+00   0.315166484455266E-01   0.116657E-01   0.929060E-01   0.210522E+03   0.214519E-15
   LPB:    3  -0.172964464314693E+00   0.922406553820136E-02   0.198783E-01   0.153697E+00   0.118921E+03   0.199277E-15
   LPB:    4  -0.172955006522254E+00   0.133653712331800E-01   0.296945E-01   0.301274E+00   0.287848E+03   0.189134E-15
  Finished solving LPB equations
  A_corr:   -9.840874719286379E-002
 End minimization
 Ecorr=   3298.13482796513     
 A_corr= -9.840874719286379E-002
 Ecorr_band=  -3298.23323671232     
 End Solvation calculations
RMM:   6    -0.248734251749E+03   -0.37633E-04   -0.22759E-04 10338   0.257E-02
 Begin Solvation calculations
  rms_SCF =   0.322715430244976      tol =   3.227154302449760E-002
 Begin minimization
 Creating dielectric and ionic cavities
  area:      142.013571730039     
  volume:    728.014885946836     
  Acav:     7.455712515827023E-002
  Solving linear dielectric/ionic screening model
        iter                  A_solv                     rms
   LPB:       -0.173247617870053E+00   0.278958263130812E+00
   LPB:    0  -0.173230337534071E+00   0.264253491260867E+00   0.104962E-02   0.000000E+00   0.313700E+02   0.329267E-01
   LPB:    1  -0.172850171747330E+00   0.527445323506861E-01   0.122263E-01   0.000000E+00   0.703017E+02   0.201288E-17
   LPB:    2  -0.172816213911989E+00   0.200319496676897E-01   0.115775E-01   0.943294E-01   0.217382E+03   0.110507E-15
   LPB:    3  -0.172804975352449E+00   0.743185837663269E-02   0.238681E-01   0.160534E+00   0.105674E+03   0.758703E-16
   LPB:    4  -0.172796349512243E+00   0.734095984500555E-02   0.390976E-01   0.468552E+00   0.131786E+03   0.686383E-16
  Finished solving LPB equations
  A_corr:   -9.823922435397250E-002
 End minimization
 Ecorr=   3298.66950065670     
 A_corr= -9.823922435397250E-002
 Ecorr_band=  -3298.76773988106     
 End Solvation calculations
   2 F= -.24873425E+03 E0= -.24873384E+03  d E =-.104854E-02
quench:  g(F)=  0.000E+00 g(S)=  0.000E+00 dE (1.order)= 0.000E+00
 bond charge predicted
       N       E                     dE             d eps       ncg     rms          rms(c)
 Begin Solvation calculations
  rms_SCF =   0.322715430244976      tol =   3.227154302449760E-002
 Begin minimization
 Creating dielectric and ionic cavities
  area:      142.026046926015     
  volume:    728.012851167330     
  Acav:     7.456367463615764E-002
  Solving linear dielectric/ionic screening model
        iter                  A_solv                     rms
   LPB:       -0.172942111600867E+00   0.764923746299914E-02
   LPB:    0  -0.172942111597066E+00   0.766971390061109E-02  -0.492248E-06   0.000000E+00   0.313701E+02  -0.154419E-04
   LPB:    1  -0.172843370257357E+00   0.371368622935957E-02   0.156489E-01   0.000000E+00   0.952581E+04  -0.631229E-21
   LPB:    2  -0.172831166745895E+00   0.834085714426074E-02   0.284547E-01   0.679696E-01   0.250815E+04   0.177413E-16
   LPB:    3  -0.172825974742184E+00   0.112885978786863E-01   0.298243E-01   0.405914E+00   0.153533E+03   0.387067E-16
   LPB:    4  -0.172822188924439E+00   0.108197440727815E-01   0.245666E-01   0.885220E+00   0.278741E+03   0.861434E-16
  Finished solving LPB equations
  A_corr:   -9.825851428828160E-002
 End minimization
 Ecorr=   3298.86153368226     
 A_corr= -9.825851428828160E-002
 Ecorr_band=  -3298.95979219655     
 End Solvation calculations
DAV:   1    -0.248734544930E+03   -0.33081E-03   -0.85515E-03 17316   0.299E-01    0.297E-01
 Begin Solvation calculations
  rms_SCF =   0.322715430244976      tol =   3.227154302449760E-002
 Begin minimization
 Creating dielectric and ionic cavities
  area:      142.001000144136     
  volume:    727.917168960103     
  Acav:     7.455052507567161E-002
  Solving linear dielectric/ionic screening model
        iter                  A_solv                     rms
   LPB:       -0.211546166609204E+00   0.361230729873921E+01
   LPB:    0  -0.211474592666408E+00   0.360779878455730E+01  -0.213601E-02   0.000000E+00   0.313745E+02  -0.670164E-01
   LPB:    1  -0.178028629707889E+00   0.371947505578297E+00   0.885323E-02   0.000000E+00   0.655415E+02   0.469343E-18
   LPB:    2  -0.174719788945846E+00   0.640115131905869E-01   0.151864E-01   0.576740E-01   0.136741E+03   0.134145E-15
   LPB:    3  -0.174345804660823E+00   0.217981675301894E-01   0.214222E-01   0.801249E-01   0.218705E+03   0.158166E-15
   LPB:    4  -0.174241622119725E+00   0.149599831243623E-01   0.274601E-01   0.217322E+00   0.322718E+03   0.261609E-15
  Finished solving LPB equations
  A_corr:   -9.969109704405299E-002
 End minimization
 Ecorr=   3299.12240684687     
 A_corr= -9.969109704405299E-002
 Ecorr_band=  -3299.22209794391     
 End Solvation calculations
RMM:   2    -0.248910866788E+03   -0.17632E+00   -0.23388E-02 16364   0.231E-01    0.488E+00
 Begin Solvation calculations
  rms_SCF =   0.322715430244976      tol =   3.227154302449760E-002
 Begin minimization
 Creating dielectric and ionic cavities
  area:      142.089795308682     
  volume:    727.995068247268     
  Acav:     7.459714253705785E-002
  Solving linear dielectric/ionic screening model
        iter                  A_solv                     rms
   LPB:       -0.202309060776425E+00   0.327442037461731E+01
   LPB:    0  -0.202135550372951E+00   0.326207174126906E+01   0.332594E-02   0.000000E+00   0.313709E+02   0.104338E+00
   LPB:    1  -0.175257154711652E+00   0.311459938040925E+00   0.862718E-02   0.000000E+00   0.677616E+02   0.552465E-17
   LPB:    2  -0.172937565154797E+00   0.474169679962636E-01   0.158097E-01   0.470925E-01   0.125032E+03   0.313626E-15
   LPB:    3  -0.172703000464052E+00   0.127513497385177E-01   0.201355E-01   0.793988E-01   0.283496E+03   0.429670E-15
   LPB:    4  -0.172658564794321E+00   0.629549542012642E-02   0.239358E-01   0.159361E+00   0.652746E+03   0.404091E-15
  Finished solving LPB equations
  A_corr:   -9.806142225726283E-002
 End minimization
 Ecorr=   3299.40592183541     
 A_corr= -9.806142225726283E-002
 Ecorr_band=  -3299.50398325767     
 End Solvation calculations
RMM:   3    -0.248736055755E+03    0.17481E+00   -0.17911E-02 16254   0.205E-01    0.368E-01
 Begin Solvation calculations
  rms_SCF =   0.322715430244976      tol =   3.227154302449760E-002
 Begin minimization
 Creating dielectric and ionic cavities
  area:      142.053462981957     
  volume:    727.986590213200     
  Acav:     7.457806806552746E-002
  Solving linear dielectric/ionic screening model
        iter                  A_solv                     rms
   LPB:       -0.172776046601038E+00   0.169541495870225E+00
   LPB:    0  -0.172774604664522E+00   0.167994995511142E+00   0.303195E-03   0.000000E+00   0.313713E+02   0.951162E-02
   LPB:    1  -0.172666015667693E+00   0.290256606018301E-01   0.107078E-01   0.000000E+00   0.668481E+02   0.163079E-18
   LPB:    2  -0.172649284560562E+00   0.702319918280267E-02   0.137836E-01   0.119695E+00   0.265768E+03   0.135707E-16
   LPB:    3  -0.172645076239241E+00   0.417537690794222E-02   0.219025E-01   0.158290E+00   0.455993E+03   0.534919E-16
   LPB:    4  -0.172642469369882E+00   0.425188673056493E-02   0.430366E-01   0.315258E+00   0.273301E+03   0.653787E-16
  Finished solving LPB equations
  A_corr:   -9.806440130435411E-002
 End minimization
 Ecorr=   3299.55019433835     
 A_corr= -9.806440130435411E-002
 Ecorr_band=  -3299.64825873966     
 End Solvation calculations
RMM:   4    -0.248734868677E+03    0.11871E-02   -0.11076E-03 13745   0.599E-02    0.257E-01
 Begin Solvation calculations
  rms_SCF =   0.322715430244976      tol =   3.227154302449760E-002
 Begin minimization
 Creating dielectric and ionic cavities
  area:      142.068568555890     
  volume:    727.971289091929     
  Acav:     7.458599849184247E-002
  Solving linear dielectric/ionic screening model
        iter                  A_solv                     rms
   LPB:       -0.173041999576871E+00   0.285296613690091E+00
   LPB:    0  -0.173036851976341E+00   0.281002894837801E+00   0.572857E-03   0.000000E+00   0.313720E+02   0.179717E-01
   LPB:    1  -0.172664772223439E+00   0.546162162229139E-01   0.118114E-01   0.000000E+00   0.667095E+02  -0.372514E-18
   LPB:    2  -0.172626953518235E+00   0.160956316639334E-01   0.115102E-01   0.104301E+00   0.242683E+03   0.709270E-16
   LPB:    3  -0.172619492778494E+00   0.417503339230917E-02   0.200581E-01   0.113206E+00   0.145503E+03   0.119718E-15
   LPB:    4  -0.172616421257537E+00   0.549913165806348E-02   0.317169E-01   0.260358E+00   0.251140E+03   0.102373E-15
  Finished solving LPB equations
  A_corr:   -9.803042276569485E-002
 End minimization
 Ecorr=   3299.86964346517     
 A_corr= -9.803042276569485E-002
 Ecorr_band=  -3299.96767388794     
 End Solvation calculations
RMM:   5    -0.248734802538E+03    0.66139E-04   -0.18662E-04 10088   0.245E-02
 Begin Solvation calculations
  rms_SCF =   0.322715430244976      tol =   3.227154302449760E-002
 Begin minimization
 Creating dielectric and ionic cavities
  area:      142.075098357930     
  volume:    727.972624197019     
  Acav:     7.458942663791344E-002
  Solving linear dielectric/ionic screening model
        iter                  A_solv                     rms
   LPB:       -0.172620932380816E+00   0.777614859201742E-01
   LPB:    0  -0.172619010533751E+00   0.713989015681464E-01   0.350029E-03   0.000000E+00   0.313719E+02   0.109811E-01
   LPB:    1  -0.172588079743950E+00   0.135377280915397E-01   0.127014E-01   0.000000E+00   0.710073E+02   0.379025E-18
   LPB:    2  -0.172585604513112E+00   0.712231007614140E-02   0.122993E-01   0.826406E-01   0.221947E+03  -0.674974E-16
   LPB:    3  -0.172583861203130E+00   0.493395133481836E-02   0.321213E-01   0.269679E+00   0.775538E+02  -0.643135E-16
   LPB:    4  -0.172581094382615E+00   0.205506428032236E-02   0.506361E-01   0.100679E+01   0.556727E+02  -0.618797E-16
  Finished solving LPB equations
  A_corr:   -9.799166774470135E-002
 End minimization
 Ecorr=   3300.18376595152     
 A_corr= -9.799166774470135E-002
 Ecorr_band=  -3300.28175761927     
 End Solvation calculations
   3 F= -.24873480E+03 E0= -.24873433E+03  d E =-.550789E-03
quench:  g(F)=  0.000E+00 g(S)=  0.000E+00 dE (1.order)= 0.000E+00
 bond charge predicted
       N       E                     dE             d eps       ncg     rms          rms(c)
 Begin Solvation calculations
  rms_SCF =   0.322715430244976      tol =   3.227154302449760E-002
 Begin minimization
 Creating dielectric and ionic cavities
  area:      142.081443851893     
  volume:    727.977326716758     
  Acav:     7.459275802224388E-002
  Solving linear dielectric/ionic screening model
        iter                  A_solv                     rms
   LPB:       -0.172800662203889E+00   0.256490303320284E-02
   LPB:    0  -0.172800662201709E+00   0.256549756185352E-02   0.372797E-06   0.000000E+00   0.313717E+02   0.116953E-04
   LPB:    1  -0.172608267009285E+00   0.153876493470621E-02   0.153960E-01   0.000000E+00   0.243092E+06   0.223335E-21
   LPB:    2  -0.172588310011539E+00   0.185028521212217E-02   0.278718E-01   0.572986E-01   0.209267E+05  -0.148123E-17
   LPB:    3  -0.172581050774298E+00   0.411431978759342E-02   0.341113E-01   0.297210E+00   0.506725E+04   0.185102E-17
   LPB:    4  -0.172577668826104E+00   0.115004501085377E-01   0.320852E-01   0.495301E+00   0.499689E+03   0.299742E-17
  Finished solving LPB equations
  A_corr:   -9.798491080385968E-002
 End minimization
 Ecorr=   3300.22789216309     
 A_corr= -9.798491080385968E-002
 Ecorr_band=  -3300.32587707389     
 End Solvation calculations
DAV:   1    -0.248734897645E+03   -0.28968E-04   -0.11803E-02 16524   0.235E-01    0.185E-01
 Begin Solvation calculations
  rms_SCF =   0.322715430244976      tol =   3.227154302449760E-002
 Begin minimization
 Creating dielectric and ionic cavities
  area:      142.071100542946     
  volume:    727.922541694156     
  Acav:     7.458732778504661E-002
  Solving linear dielectric/ionic screening model
        iter                  A_solv                     rms
   LPB:       -0.189070071671930E+00   0.232707106465944E+01
   LPB:    0  -0.189043734578515E+00   0.232456327110954E+01  -0.129572E-02   0.000000E+00   0.313743E+02  -0.406524E-01
   LPB:    1  -0.175126797592173E+00   0.239951911007739E+00   0.887192E-02   0.000000E+00   0.654211E+02  -0.239704E-17
   LPB:    2  -0.173752662086829E+00   0.417414485620006E-01   0.150646E-01   0.581495E-01   0.139130E+03   0.176021E-15
   LPB:    3  -0.173598175840349E+00   0.138024702329321E-01   0.213476E-01   0.793359E-01   0.215593E+03   0.193894E-15
   LPB:    4  -0.173555581238097E+00   0.912139941967983E-02   0.274121E-01   0.214719E+00   0.331589E+03   0.255282E-15
  Finished solving LPB equations
  A_corr:   -9.896825345305067E-002
 End minimization
 Ecorr=   3300.41705623777     
 A_corr= -9.896825345305067E-002
 Ecorr_band=  -3300.51602449122     
 End Solvation calculations
RMM:   2    -0.248804441984E+03   -0.69544E-01   -0.90319E-03 16250   0.143E-01    0.307E+00
 Begin Solvation calculations
  rms_SCF =   0.322715430244976      tol =   3.227154302449760E-002
 Begin minimization
 Creating dielectric and ionic cavities
  area:      142.118468226020     
  volume:    727.971931041629     
  Acav:     7.461219581866074E-002
  Solving linear dielectric/ionic screening model
        iter                  A_solv                     rms
   LPB:       -0.184292070242589E+00   0.206461621084915E+01
   LPB:    0  -0.184222733533615E+00   0.205680965499372E+01   0.210245E-02   0.000000E+00   0.313720E+02   0.659580E-01
   LPB:    1  -0.173538502795732E+00   0.196355445395561E+00   0.862576E-02   0.000000E+00   0.677747E+02   0.397266E-17
   LPB:    2  -0.172616516979370E+00   0.298340085989244E-01   0.158156E-01   0.470644E-01   0.124930E+03  -0.779254E-16
   LPB:    3  -0.172523589413903E+00   0.806093161466949E-02   0.201330E-01   0.791767E-01   0.284028E+03  -0.152216E-15
   LPB:    4  -0.172505926996166E+00   0.395805060557251E-02   0.239745E-01   0.159612E+00   0.652365E+03  -0.247824E-15
  Finished solving LPB equations
  A_corr:   -9.789373117750491E-002
 End minimization
 Ecorr=   3300.59474985944     
 A_corr= -9.789373117750491E-002
 Ecorr_band=  -3300.69264359061     
 End Solvation calculations
RMM:   3    -0.248735565950E+03    0.68876E-01   -0.71311E-03 16230   0.130E-01    0.226E-01
 Begin Solvation calculations
  rms_SCF =   0.322715430244976      tol =   3.227154302449760E-002
 Begin minimization
 Creating dielectric and ionic cavities
  area:      142.106312228165     
  volume:    727.980140212939     
  Acav:     7.460581391978639E-002
  Solving linear dielectric/ionic screening model
        iter                  A_solv                     rms
   LPB:       -0.172600106992925E+00   0.149600929266949E+00
   LPB:    0  -0.172594876209350E+00   0.143120631455138E+00   0.577471E-03   0.000000E+00   0.313716E+02   0.181162E-01
   LPB:    1  -0.172511324949331E+00   0.254974597157427E-01   0.110771E-01   0.000000E+00   0.655801E+02  -0.111717E-17
   LPB:    2  -0.172500721113728E+00   0.666696545301275E-02   0.126215E-01   0.111385E+00   0.266016E+03  -0.198394E-16
   LPB:    3  -0.172498421632956E+00   0.293683854512441E-02   0.202983E-01   0.134839E+00   0.278225E+03  -0.405758E-16
   LPB:    4  -0.172497296134958E+00   0.162264897654496E-02   0.405743E-01   0.244864E+00   0.234844E+03  -0.395187E-16
  Finished solving LPB equations
  A_corr:   -9.789148221517148E-002
 End minimization
 Ecorr=   3300.60886737692     
 A_corr= -9.789148221517148E-002
 Ecorr_band=  -3300.70675885913     
 End Solvation calculations
RMM:   4    -0.248735285932E+03    0.28002E-03   -0.40285E-04 11773   0.375E-02    0.192E-01
 Begin Solvation calculations
  rms_SCF =   0.272618188495789      tol =   2.726181884957894E-002
 Begin minimization
 Creating dielectric and ionic cavities
  area:      142.115929258539     
  volume:    727.964614369190     
  Acav:     7.461086286073321E-002
  Solving linear dielectric/ionic screening model
        iter                  A_solv                     rms
   LPB:       -0.172666507588585E+00   0.166481630588873E+00
   LPB:    0  -0.172666399533991E+00   0.166165360464797E+00   0.829972E-04   0.000000E+00   0.313723E+02   0.260381E-02
   LPB:    1  -0.172539291645497E+00   0.314223577126379E-01   0.116889E-01   0.000000E+00   0.669147E+02   0.249143E-19
   LPB:    2  -0.172526712113187E+00   0.899310010763433E-02   0.114493E-01   0.101039E+00   0.243313E+03  -0.232434E-16
   LPB:    3  -0.172524281429148E+00   0.245984534213239E-02   0.203146E-01   0.108902E+00   0.147046E+03  -0.942105E-17
   LPB:    4  -0.172523130012880E+00   0.395076228444675E-02   0.335877E-01   0.286505E+00   0.249296E+03  -0.142098E-16
  Finished solving LPB equations
  A_corr:   -9.791226715214699E-002
 End minimization
 Ecorr=   3300.88658518659     
 A_corr= -9.791226715214699E-002
 Ecorr_band=  -3300.98449745374     
 End Solvation calculations
RMM:   5    -0.248735203328E+03    0.82604E-04   -0.98029E-05  8921   0.189E-02
 Begin Solvation calculations
  rms_SCF =   0.272618188495789      tol =   2.726181884957894E-002
 Begin minimization
 Creating dielectric and ionic cavities
  area:      142.119231135087     
  volume:    727.969409043568     
  Acav:     7.461259634592075E-002
  Solving linear dielectric/ionic screening model
        iter                  A_solv                     rms
   LPB:       -0.172536038935280E+00   0.725895379868929E-01
   LPB:    0  -0.172534010615344E+00   0.657002346662267E-01   0.359593E-03   0.000000E+00   0.313721E+02   0.112812E-01
   LPB:    1  -0.172513834552290E+00   0.119804754459835E-01   0.117769E-01   0.000000E+00   0.638887E+02  -0.781234E-18
   LPB:    2  -0.172512021511698E+00   0.424276114935744E-02   0.115221E-01   0.918482E-01   0.240215E+03  -0.101719E-16
   LPB:    3  -0.172511253638011E+00   0.316042659117342E-02   0.306886E-01   0.159014E+00   0.926453E+02  -0.898869E-17
   LPB:    4  -0.172510069887428E+00   0.265393078125412E-02   0.539200E-01   0.877400E+00   0.498893E+02  -0.826138E-17
  Finished solving LPB equations
  A_corr:   -9.789747354150773E-002
 End minimization
 Ecorr=   3301.06388310233     
 A_corr= -9.789747354150773E-002
 Ecorr_band=  -3301.16178057587     
 End Solvation calculations
   4 F= -.24873520E+03 E0= -.24873476E+03  d E =-.400791E-03
quench:  g(F)=  0.000E+00 g(S)=  0.000E+00 dE (1.order)= 0.000E+00
 bond charge predicted
       N       E                     dE             d eps       ncg     rms          rms(c)
 Begin Solvation calculations
  rms_SCF =   0.272618188495789      tol =   2.726181884957894E-002
 Begin minimization
 Creating dielectric and ionic cavities
  area:      142.137903577367     
  volume:    727.979652415892     
  Acav:     7.462239937811777E-002
  Solving linear dielectric/ionic screening model
        iter                  A_solv                     rms
   LPB:       -0.172888729290554E+00   0.359752885167358E-02
   LPB:    0  -0.172888729277953E+00   0.362575096944332E-02   0.896307E-06   0.000000E+00   0.313716E+02   0.281186E-04
   LPB:    1  -0.172567224915516E+00   0.259300262496322E-02   0.155663E-01   0.000000E+00   0.152316E+06   0.357568E-21
   LPB:    2  -0.172532633036836E+00   0.351162731182331E-02   0.276306E-01   0.606152E-01   0.102141E+05  -0.414765E-17
   LPB:    3  -0.172520825902908E+00   0.711568430693133E-02   0.327518E-01   0.287956E+00   0.185161E+04  -0.193266E-16
   LPB:    4  -0.172515745569410E+00   0.115816015714897E-01   0.294270E-01   0.478890E+00   0.230304E+03  -0.563347E-17
  Finished solving LPB equations
  A_corr:   -9.789334619129184E-002
 End minimization
 Ecorr=   3301.15253442619     
 A_corr= -9.789334619129184E-002
 Ecorr_band=  -3301.25042777239     
 End Solvation calculations
DAV:   1    -0.248735281244E+03    0.46884E-05   -0.18466E-02 16542   0.221E-01    0.133E-01
 Begin Solvation calculations
  rms_SCF =   0.237636984132458      tol =   2.376369841324577E-002
 Begin minimization
 Creating dielectric and ionic cavities
  area:      142.125703354310     
  volume:    727.924688081958     
  Acav:     7.461599426101295E-002
  Solving linear dielectric/ionic screening model
        iter                  A_solv                     rms
   LPB:       -0.180679664565462E+00   0.160117828554040E+01
   LPB:    0  -0.180647845947127E+00   0.159670437423526E+01  -0.142419E-02   0.000000E+00   0.313742E+02  -0.446830E-01
   LPB:    1  -0.174070656484692E+00   0.166534441199440E+00   0.888416E-02   0.000000E+00   0.653146E+02  -0.118435E-17
   LPB:    2  -0.173410360635853E+00   0.285158808186804E-01   0.151155E-01   0.590055E-01   0.137824E+03   0.525961E-16
   LPB:    3  -0.173336131124083E+00   0.945583927192700E-02   0.212073E-01   0.801262E-01   0.225188E+03   0.774472E-16
   LPB:    4  -0.173315109893169E+00   0.852866831918338E-02   0.273901E-01   0.219267E+00   0.327598E+03   0.100809E-15
  Finished solving LPB equations
  A_corr:   -9.869911563215558E-002
 End minimization
 Ecorr=   3301.27226315891     
 A_corr= -9.869911563215558E-002
 Ecorr_band=  -3301.37096227454     
 End Solvation calculations
RMM:   2    -0.248768760382E+03   -0.33479E-01   -0.47887E-03 15780   0.107E-01    0.213E+00
 Begin Solvation calculations
  rms_SCF =   0.237636984132458      tol =   2.376369841324577E-002
 Begin minimization
 Creating dielectric and ionic cavities
  area:      142.154882546287     
  volume:    727.961103226874     
  Acav:     7.463131333680077E-002
  Solving linear dielectric/ionic screening model
        iter                  A_solv                     rms
   LPB:       -0.178286540804019E+00   0.144089314135190E+01
   LPB:    0  -0.178249377177367E+00   0.143480652014884E+01   0.153922E-02   0.000000E+00   0.313725E+02   0.482890E-01
   LPB:    1  -0.173050110550426E+00   0.137082300942402E+00   0.862592E-02   0.000000E+00   0.677563E+02   0.476382E-19
   LPB:    2  -0.172600407161712E+00   0.204832020575163E-01   0.158299E-01   0.471314E-01   0.124649E+03  -0.747160E-16
   LPB:    3  -0.172554875929968E+00   0.569160006747247E-02   0.201906E-01   0.793803E-01   0.294534E+03  -0.141177E-15
   LPB:    4  -0.172545962314236E+00   0.328592575567240E-02   0.242441E-01   0.163038E+00   0.624210E+03  -0.168861E-15
  Finished solving LPB equations
  A_corr:   -9.791464897743533E-002
 End minimization
 Ecorr=   3301.40083031599     
 A_corr= -9.791464897743533E-002
 Ecorr_band=  -3301.49874496497     
 End Solvation calculations
RMM:   3    -0.248735722139E+03    0.33038E-01   -0.34963E-03 15159   0.913E-02    0.184E-01
 Begin Solvation calculations
  rms_SCF =   0.237636984132458      tol =   2.376369841324577E-002
 Begin minimization
 Creating dielectric and ionic cavities
  area:      142.146386766664     
  volume:    727.975563918225     
  Acav:     7.462685305249864E-002
  Solving linear dielectric/ionic screening model
        iter                  A_solv                     rms
   LPB:       -0.172598971963409E+00   0.964249315867601E-01
   LPB:    0  -0.172593894903339E+00   0.868509486760249E-01   0.568920E-03   0.000000E+00   0.313718E+02   0.178481E-01
   LPB:    1  -0.172564846318251E+00   0.144774767030902E-01   0.107022E-01   0.000000E+00   0.656483E+02   0.118302E-17
   LPB:    2  -0.172560840839825E+00   0.420633143260275E-02   0.134247E-01   0.109925E+00   0.273014E+03   0.797320E-16
   LPB:    3  -0.172559707195142E+00   0.309419798171414E-02   0.229271E-01   0.165721E+00   0.262068E+03   0.949897E-16
   LPB:    4  -0.172558777331468E+00   0.302020283129968E-02   0.484743E-01   0.387954E+00   0.141225E+03   0.835977E-16
  Finished solving LPB equations
  A_corr:   -9.793192427896888E-002
 End minimization
 Ecorr=   3301.33273125207     
 A_corr= -9.793192427896888E-002
 Ecorr_band=  -3301.43066317635     
 End Solvation calculations
RMM:   4    -0.248735530358E+03    0.19178E-03   -0.20493E-04 10371   0.278E-02    0.142E-01
 Begin Solvation calculations
  rms_SCF =   0.217399808168633      tol =   2.173998081686328E-002
 Begin minimization
 Creating dielectric and ionic cavities
  area:      142.153964839723     
  volume:    727.961147691790     
  Acav:     7.463083154085474E-002
  Solving linear dielectric/ionic screening model
        iter                  A_solv                     rms
   LPB:       -0.172738074632544E+00   0.139854064713501E+00
   LPB:    0  -0.172737593309274E+00   0.139473297231709E+00  -0.175170E-03   0.000000E+00   0.313725E+02  -0.549551E-02
   LPB:    1  -0.172648738440350E+00   0.264502078276596E-01   0.116759E-01   0.000000E+00   0.669671E+02  -0.641509E-19
   LPB:    2  -0.172639532273278E+00   0.762178779601195E-02   0.115866E-01   0.104408E+00   0.250484E+03   0.539891E-17
   LPB:    3  -0.172637864301211E+00   0.208056130449333E-02   0.195780E-01   0.107225E+00   0.147481E+03  -0.227837E-16
   LPB:    4  -0.172637088810922E+00   0.370947685510469E-02   0.324550E-01   0.280462E+00   0.279321E+03  -0.265034E-16
  Finished solving LPB equations
  A_corr:   -9.800625727006750E-002
 End minimization
 Ecorr=   3301.53633614133     
 A_corr= -9.800625727006750E-002
 Ecorr_band=  -3301.63434239860     
 End Solvation calculations
RMM:   5    -0.248735521906E+03    0.84520E-05   -0.51599E-05  8709   0.142E-02
 Begin Solvation calculations
  rms_SCF =   0.217399808168633      tol =   2.173998081686328E-002
 Begin minimization
 Creating dielectric and ionic cavities
  area:      142.155349058296     
  volume:    727.967726307543     
  Acav:     7.463155825560551E-002
  Solving linear dielectric/ionic screening model
        iter                  A_solv                     rms
   LPB:       -0.172661297737843E+00   0.535638606340552E-01
   LPB:    0  -0.172660162379105E+00   0.484070920157124E-01   0.269035E-03   0.000000E+00   0.313722E+02   0.844022E-02
   LPB:    1  -0.172649419952608E+00   0.889071994931276E-02   0.117264E-01   0.000000E+00   0.632998E+02   0.207998E-19
   LPB:    2  -0.172648363941913E+00   0.331562513252178E-02   0.118962E-01   0.968994E-01   0.249327E+03   0.967810E-17
   LPB:    3  -0.172647892126567E+00   0.287975478073456E-02   0.305605E-01   0.173921E+00   0.878386E+02   0.115771E-16
   LPB:    4  -0.172647180296336E+00   0.274699543272834E-02   0.506439E-01   0.910412E+00   0.639331E+02   0.998509E-17
  Finished solving LPB equations
  A_corr:   -9.801562204073096E-002
 End minimization
 Ecorr=   3301.61551801066     
 A_corr= -9.801562204073096E-002
 Ecorr_band=  -3301.71353363270     
 End Solvation calculations
   5 F= -.24873552E+03 E0= -.24873508E+03  d E =-.318578E-03
quench:  g(F)=  0.000E+00 g(S)=  0.000E+00 dE (1.order)= 0.000E+00
 bond charge predicted
       N       E                     dE             d eps       ncg     rms          rms(c)
 Begin Solvation calculations
  rms_SCF =   0.217399808168633      tol =   2.173998081686328E-002
 Begin minimization
 Creating dielectric and ionic cavities
  area:      142.153121684298     
  volume:    727.968111016933     
  Acav:     7.463038888425623E-002
  Solving linear dielectric/ionic screening model
        iter                  A_solv                     rms
   LPB:       -0.172812776174732E+00   0.294273612435100E-02
   LPB:    0  -0.172812776174727E+00   0.294214489725774E-02  -0.167409E-07   0.000000E+00   0.313722E+02  -0.525198E-06
   LPB:    1  -0.172660472190102E+00   0.209931102845261E-02   0.153781E-01   0.000000E+00   0.111480E+06   0.425053E-22
   LPB:    2  -0.172645546574217E+00   0.309847762423191E-02   0.273315E-01   0.551392E-01   0.688152E+04  -0.953452E-17
   LPB:    3  -0.172640510228700E+00   0.609131351662427E-02   0.317953E-01   0.290057E+00   0.106913E+04  -0.134030E-17
   LPB:    4  -0.172638384114569E+00   0.806909635446339E-02   0.263941E-01   0.508543E+00   0.176727E+03  -0.103283E-16
  Finished solving LPB equations
  A_corr:   -9.800799523031285E-002
 End minimization
 Ecorr=   3301.66957641532     
 A_corr= -9.800799523031285E-002
 Ecorr_band=  -3301.76758441055     
 End Solvation calculations
DAV:   1    -0.248735556767E+03   -0.26408E-04   -0.99333E-03 15291   0.141E-01    0.994E-02
 Begin Solvation calculations
  rms_SCF =   0.176330922601668      tol =   1.763309226016677E-002
 Begin minimization
 Creating dielectric and ionic cavities
  area:      142.155160966514     
  volume:    727.951197230551     
  Acav:     7.463145950741991E-002
  Solving linear dielectric/ionic screening model
        iter                  A_solv                     rms
   LPB:       -0.177361152889167E+00   0.120673429278972E+01
   LPB:    0  -0.177355303745181E+00   0.120559730413160E+01  -0.610637E-03   0.000000E+00   0.313730E+02  -0.191575E-01
   LPB:    1  -0.173612999833092E+00   0.123030727279205E+00   0.885982E-02   0.000000E+00   0.655782E+02  -0.878770E-18
   LPB:    2  -0.173253858535707E+00   0.213689444396583E-01   0.149448E-01   0.568931E-01   0.141014E+03  -0.964884E-17
   LPB:    3  -0.173213612168413E+00   0.683193133900761E-02   0.213440E-01   0.784650E-01   0.215274E+03  -0.969968E-17
   LPB:    4  -0.173202455731602E+00   0.448821739924547E-02   0.276021E-01   0.214355E+00   0.343048E+03   0.903221E-17
  Finished solving LPB equations
  A_corr:   -9.857099622418201E-002
 End minimization
 Ecorr=   3301.72212942247     
 A_corr= -9.857099622418201E-002
 Ecorr_band=  -3301.82070041869     
 End Solvation calculations
RMM:   2    -0.248754159622E+03   -0.18603E-01   -0.27177E-03 14738   0.787E-02    0.159E+00
 Begin Solvation calculations
  rms_SCF =   0.176330922601668      tol =   1.763309226016677E-002
 Begin minimization
 Creating dielectric and ionic cavities
  area:      142.175822439376     
  volume:    727.976482942535     
  Acav:     7.464230678067245E-002
  Solving linear dielectric/ionic screening model
        iter                  A_solv                     rms
   LPB:       -0.175718059360889E+00   0.105939167842827E+01
   LPB:    0  -0.175699706179290E+00   0.105536300665169E+01   0.108169E-02   0.000000E+00   0.313718E+02   0.339344E-01
   LPB:    1  -0.172886819938273E+00   0.100891563728366E+00   0.862707E-02   0.000000E+00   0.677524E+02   0.313089E-17
   LPB:    2  -0.172643360211492E+00   0.152992594703391E-01   0.158255E-01   0.471825E-01   0.124751E+03   0.504455E-16
   LPB:    3  -0.172618702284110E+00   0.419993819608262E-02   0.202013E-01   0.793430E-01   0.284731E+03   0.667903E-16
   LPB:    4  -0.172613856082934E+00   0.210407468171483E-02   0.243086E-01   0.163329E+00   0.645475E+03   0.466592E-16
  Finished solving LPB equations
  A_corr:   -9.797154930226189E-002
 End minimization
 Ecorr=   3301.81516501691     
 A_corr= -9.797154930226189E-002
 Ecorr_band=  -3301.91313656621     
 End Solvation calculations
RMM:   3    -0.248735756351E+03    0.18403E-01   -0.18926E-03 14357   0.679E-02    0.109E-01
 Begin Solvation calculations
  rms_SCF =   0.176330922601668      tol =   1.763309226016677E-002
 Begin minimization
 Creating dielectric and ionic cavities
  area:      142.171295492333     
  volume:    727.987121977796     
  Acav:     7.463993013347490E-002
  Solving linear dielectric/ionic screening model
        iter                  A_solv                     rms
   LPB:       -0.172657166367809E+00   0.902963848143273E-01
   LPB:    0  -0.172653750971657E+00   0.830427964259254E-01   0.466627E-03   0.000000E+00   0.313713E+02   0.146387E-01
   LPB:    1  -0.172627368821865E+00   0.135459416605214E-01   0.107675E-01   0.000000E+00   0.645179E+02  -0.258990E-18
   LPB:    2  -0.172624171020234E+00   0.370343754606311E-02   0.126925E-01   0.102828E+00   0.268036E+03   0.148185E-16
   LPB:    3  -0.172623431299050E+00   0.214873210295071E-02   0.214482E-01   0.136890E+00   0.241469E+03   0.168285E-16
   LPB:    4  -0.172622985639654E+00   0.181675356805518E-02   0.429200E-01   0.301069E+00   0.156167E+03   0.320843E-16
  Finished solving LPB equations
  A_corr:   -9.798305550617904E-002
 End minimization
 Ecorr=   3301.77826562617     
 A_corr= -9.798305550617904E-002
 Ecorr_band=  -3301.87624868167     
 End Solvation calculations
RMM:   4    -0.248735713516E+03    0.42834E-04   -0.11039E-04  9269   0.213E-02
 Begin Solvation calculations
  rms_SCF =   0.176330922601668      tol =   1.763309226016677E-002
 Begin minimization
 Creating dielectric and ionic cavities
  area:      142.175872325935     
  volume:    727.976085787661     
  Acav:     7.464233297111578E-002
  Solving linear dielectric/ionic screening model
        iter                  A_solv                     rms
   LPB:       -0.172668721870750E+00   0.656137658967080E-01
   LPB:    0  -0.172668468677187E+00   0.652815457780422E-01  -0.127049E-03   0.000000E+00   0.313718E+02  -0.398576E-02
   LPB:    1  -0.172648828080939E+00   0.119374317706104E-01   0.115645E-01   0.000000E+00   0.688570E+02  -0.129487E-20
   LPB:    2  -0.172647019306551E+00   0.334746004601025E-02   0.113474E-01   0.938554E-01   0.244481E+03  -0.806801E-17
   LPB:    3  -0.172646629537324E+00   0.129981577485455E-02   0.221859E-01   0.110215E+00   0.142826E+03  -0.242449E-16
   LPB:    4  -0.172646308461229E+00   0.274318720668985E-02   0.414838E-01   0.440554E+00   0.257880E+03  -0.277431E-16
  Finished solving LPB equations
  A_corr:   -9.800397549011308E-002
 End minimization
 Ecorr=   3301.94217492447     
 A_corr= -9.800397549011308E-002
 Ecorr_band=  -3302.04017889996     
 End Solvation calculations
   6 F= -.24873571E+03 E0= -.24873526E+03  d E =-.191610E-03
quench:  g(F)=  0.000E+00 g(S)=  0.000E+00 dE (1.order)= 0.000E+00
 bond charge predicted
       N       E                     dE             d eps       ncg     rms          rms(c)
 Begin Solvation calculations
  rms_SCF =   0.176330922601668      tol =   1.763309226016677E-002
 Begin minimization
 Creating dielectric and ionic cavities
  area:      142.181988952295     
  volume:    727.983303465665     
  Acav:     7.464554419995513E-002
  Solving linear dielectric/ionic screening model
        iter                  A_solv                     rms
   LPB:       -0.172718223267891E+00   0.265028725220144E-02
   LPB:    0  -0.172718223257745E+00   0.261726130475391E-02   0.804248E-06   0.000000E+00   0.313714E+02   0.252304E-04
   LPB:    1  -0.172647677578331E+00   0.138465017865100E-02   0.156597E-01   0.000000E+00   0.600789E+05  -0.636334E-21
   LPB:    2  -0.172639995327169E+00   0.259747110826480E-02   0.275049E-01   0.620002E-01   0.100412E+05   0.880547E-17
   LPB:    3  -0.172637413120994E+00   0.452529516757815E-02   0.316003E-01   0.292564E+00   0.687211E+03   0.102345E-16
   LPB:    4  -0.172636302501891E+00   0.599449815576106E-02   0.257363E-01   0.528104E+00   0.220784E+03   0.185256E-16
  Finished solving LPB equations
  A_corr:   -9.799075830193614E-002
 End minimization
 Ecorr=   3301.95309398423     
 A_corr= -9.799075830193614E-002
 Ecorr_band=  -3302.05108474253     
 End Solvation calculations
DAV:   1    -0.248735724747E+03    0.31604E-04   -0.46730E-03 15087   0.123E-01    0.690E-02
 Begin Solvation calculations
  rms_SCF =   0.119209069987004      tol =   1.192090699870038E-002
 Begin minimization
 Creating dielectric and ionic cavities
  area:      142.170727124179     
  volume:    727.985219417750     
  Acav:     7.463963174019417E-002
  Solving linear dielectric/ionic screening model
        iter                  A_solv                     rms
   LPB:       -0.174916538542286E+00   0.807522442221853E+00
   LPB:    0  -0.174916115053819E+00   0.807451376350080E+00   0.164312E-03   0.000000E+00   0.313714E+02   0.515469E-02
   LPB:    1  -0.173233895499313E+00   0.834067543026378E-01   0.888134E-02   0.000000E+00   0.654214E+02  -0.189538E-18
   LPB:    2  -0.173069374808520E+00   0.160790509866518E-01   0.149662E-01   0.580372E-01   0.140708E+03   0.413414E-16
   LPB:    3  -0.173050957892082E+00   0.600826694815974E-02   0.210641E-01   0.795359E-01   0.179417E+03   0.507933E-16
   LPB:    4  -0.173045796011153E+00   0.342218581642835E-02   0.274434E-01   0.215128E+00   0.286214E+03  -0.119576E-15
  Finished solving LPB equations
  A_corr:   -9.840616427095858E-002
 End minimization
 Ecorr=   3301.84431216652     
 A_corr= -9.840616427095858E-002
 Ecorr_band=  -3301.94271833079     
 End Solvation calculations
RMM:   2    -0.248744074671E+03   -0.83499E-02   -0.12953E-03 13849   0.569E-02    0.106E+00
 Begin Solvation calculations
  rms_SCF =   0.119209069987004      tol =   1.192090699870038E-002
 Begin minimization
 Creating dielectric and ionic cavities
  area:      142.185439665201     
  volume:    727.992853672458     
  Acav:     7.464735582423061E-002
  Solving linear dielectric/ionic screening model
        iter                  A_solv                     rms
   LPB:       -0.174092912131067E+00   0.722232467804647E+00
   LPB:    0  -0.174089574595328E+00   0.721104599102064E+00   0.461279E-03   0.000000E+00   0.313710E+02   0.144708E-01
   LPB:    1  -0.172776663716755E+00   0.686061489294631E-01   0.862298E-02   0.000000E+00   0.678558E+02   0.140982E-18
   LPB:    2  -0.172663710541701E+00   0.110115039825623E-01   0.158167E-01   0.469034E-01   0.125717E+03  -0.198958E-16
   LPB:    3  -0.172652274306491E+00   0.320547444702352E-02   0.202097E-01   0.792394E-01   0.252853E+03  -0.467223E-16
   LPB:    4  -0.172650018574139E+00   0.157732236250747E-02   0.243394E-01   0.163778E+00   0.678770E+03  -0.230717E-16
  Finished solving LPB equations
  A_corr:   -9.800266274990853E-002
 End minimization
 Ecorr=   3301.95959813179     
 A_corr= -9.800266274990853E-002
 Ecorr_band=  -3302.05760079454     
 End Solvation calculations
RMM:   3    -0.248735915468E+03    0.81592E-02   -0.88975E-04 13386   0.469E-02    0.125E-01
 Begin Solvation calculations
  rms_SCF =   0.119209069987004      tol =   1.192090699870038E-002
 Begin minimization
 Creating dielectric and ionic cavities
  area:      142.187380878488     
  volume:    727.977559789558     
  Acav:     7.464837496120597E-002
  Solving linear dielectric/ionic screening model
        iter                  A_solv                     rms
   LPB:       -0.172689472195082E+00   0.433026975183878E-01
   LPB:    0  -0.172686769948933E+00   0.320574768744593E-01  -0.415058E-03   0.000000E+00   0.313717E+02  -0.130211E-01
   LPB:    1  -0.172682615803938E+00   0.537535987817187E-02   0.106320E-01   0.000000E+00   0.687148E+02  -0.813246E-18
   LPB:    2  -0.172681911626983E+00   0.197938705524278E-02   0.151603E-01   0.118880E+00   0.291167E+03   0.189972E-16
   LPB:    3  -0.172681653296001E+00   0.199977919563266E-02   0.238007E-01   0.233675E+00   0.290494E+03   0.262113E-16
   LPB:    4  -0.172681390074433E+00   0.303335940955358E-02   0.412644E-01   0.587705E+00   0.229095E+03   0.282411E-16
  Finished solving LPB equations
  A_corr:   -9.803301511322746E-002
 End minimization
 Ecorr=   3302.13387782871     
 A_corr= -9.803301511322746E-002
 Ecorr_band=  -3302.23191084382     
 End Solvation calculations
RMM:   4    -0.248735810521E+03    0.10495E-03   -0.64613E-05  8867   0.162E-02    0.726E-02
 Begin Solvation calculations
  rms_SCF =   0.119209069987004      tol =   1.192090699870038E-002
 Begin minimization
 Creating dielectric and ionic cavities
  area:      142.191039804522     
  volume:    727.982303518375     
  Acav:     7.465029589737393E-002
  Solving linear dielectric/ionic screening model
        iter                  A_solv                     rms
   LPB:       -0.172735922124306E+00   0.849779255979865E-01
   LPB:    0  -0.172734431717619E+00   0.805039683408336E-01   0.308248E-03   0.000000E+00   0.313715E+02   0.967019E-02
   LPB:    1  -0.172707481997977E+00   0.136566809953910E-01   0.112070E-01   0.000000E+00   0.641608E+02  -0.423296E-18
   LPB:    2  -0.172704984271374E+00   0.401600996215126E-02   0.113628E-01   0.914101E-01   0.262971E+03   0.101841E-16
   LPB:    3  -0.172704566262469E+00   0.140390763891125E-02   0.198413E-01   0.958415E-01   0.121568E+03   0.120526E-16
   LPB:    4  -0.172704362020978E+00   0.115763936192422E-02   0.357175E-01   0.271424E+00   0.136457E+03   0.250643E-16
  Finished solving LPB equations
  A_corr:   -9.805406612360429E-002
 End minimization
 Ecorr=   3302.18007800387     
 A_corr= -9.805406612360429E-002
 Ecorr_band=  -3302.27813206999     
 End Solvation calculations
RMM:   5    -0.248735830325E+03   -0.19804E-04   -0.16494E-05  8383   0.767E-03
 Begin Solvation calculations
  rms_SCF =   0.119209069987004      tol =   1.192090699870038E-002
 Begin minimization
 Creating dielectric and ionic cavities
  area:      142.192666207210     
  volume:    727.980491331285     
  Acav:     7.465114975878506E-002
  Solving linear dielectric/ionic screening model
        iter                  A_solv                     rms
   LPB:       -0.172728953499116E+00   0.306764389200393E-01
   LPB:    0  -0.172728951617324E+00   0.306469111837055E-01   0.109530E-04   0.000000E+00   0.313716E+02   0.343613E-03
   LPB:    1  -0.172724807187261E+00   0.560324750235304E-02   0.114727E-01   0.000000E+00   0.667732E+02  -0.111930E-19
   LPB:    2  -0.172724386537289E+00   0.173519640376846E-02   0.117366E-01   0.992156E-01   0.244123E+03  -0.607311E-18
   LPB:    3  -0.172724247077688E+00   0.893479402793808E-03   0.278235E-01   0.139848E+00   0.114956E+03  -0.359452E-17
   LPB:    4  -0.172724049904712E+00   0.131041945971364E-02   0.539498E-01   0.729158E+00   0.134298E+03  -0.255662E-17
  Finished solving LPB equations
  A_corr:   -9.807290014592723E-002
 End minimization
 Ecorr=   3302.23192835370     
 A_corr= -9.807290014592723E-002
 Ecorr_band=  -3302.33000125384     
 End Solvation calculations
   7 F= -.24873583E+03 E0= -.24873539E+03  d E =-.116809E-03
quench:  g(F)=  0.000E+00 g(S)=  0.000E+00 dE (1.order)= 0.000E+00
 bond charge predicted
       N       E                     dE             d eps       ncg     rms          rms(c)
 Begin Solvation calculations
  rms_SCF =   0.119209069987004      tol =   1.192090699870038E-002
[...]
 Creating dielectric and ionic cavities
  area:      142.368589298365     
  volume:    728.167175663100     
  Acav:     7.474350938164141E-002
  Solving linear dielectric/ionic screening model
        iter                  A_solv                     rms
   LPB:       -0.173206497429929E+00   0.123592407246372E-01
   LPB:    0  -0.173206116628173E+00   0.479294970529370E-02  -0.155832E-03   0.000000E+00   0.313628E+02  -0.488733E-02
   LPB:    1  -0.173206009688626E+00   0.580957315825505E-03   0.992293E-02   0.000000E+00   0.660937E+02   0.217258E-18
   LPB:    2  -0.173206001539494E+00   0.437850737293954E-03   0.157852E-01   0.479030E-01   0.200093E+03   0.760220E-17
   LPB:    3  -0.173205997383024E+00   0.314011157182401E-03   0.232023E-01   0.347002E+00   0.149004E+03   0.826092E-17
   LPB:    4  -0.173205993010379E+00   0.226805413382517E-03   0.319021E-01   0.765125E+00   0.358775E+03   0.901622E-17
   LPB:    5  -0.173205988781625E+00   0.117431105692386E-03   0.344648E-01   0.895181E+00   0.224256E+03   0.923897E-17
  Finished solving LPB equations
  A_corr:   -9.846247939998364E-002
 End minimization
 Ecorr=   3302.65761047106     
 A_corr= -9.846247939998364E-002
 Ecorr_band=  -3302.75607295046     
 End Solvation calculations
  93 F= -.24873824E+03 E0= -.24873795E+03  d E =0.663385E-04
quench:  g(F)=  0.000E+00 g(S)=  0.000E+00 dE (1.order)= 0.000E+00
 bond charge predicted
       N       E                     dE             d eps       ncg     rms          rms(c)
 Begin Solvation calculations
  rms_SCF =   1.679097425312399E-003 tol =   1.679097425312399E-004
 Begin minimization
 Creating dielectric and ionic cavities
  area:      142.367463653568     
  volume:    728.168673566546     
  Acav:     7.474291841812307E-002
  Solving linear dielectric/ionic screening model
        iter                  A_solv                     rms
   LPB:       -0.173261376184016E+00   0.753654283615166E-03
   LPB:    0  -0.173261376183434E+00   0.754891091629685E-03   0.192578E-06   0.000000E+00   0.313628E+02   0.603978E-05
   LPB:    1  -0.173206895432011E+00   0.247436395376028E-03   0.151851E-01   0.000000E+00   0.817911E+06   0.145157E-21
   LPB:    2  -0.173201806198925E+00   0.129038319248943E-03   0.271839E-01   0.521814E-01   0.203226E+06  -0.100237E-18
   LPB:    3  -0.173200119406449E+00   0.159057892236413E-03   0.331442E-01   0.271840E+00   0.151747E+06   0.253593E-18
   LPB:    4  -0.173199358564334E+00   0.417456707392852E-03   0.363448E-01   0.411337E+00   0.435330E+05   0.344691E-18
   LPB:    5  -0.173198970731969E+00   0.124972073138574E-02   0.375203E-01   0.493772E+00   0.388224E+04  -0.104818E-18
   LPB:    6  -0.173198785679905E+00   0.288401709598498E-02   0.309583E-01   0.578282E+00   0.349219E+03   0.119238E-18
   LPB:    7  -0.173198686258932E+00   0.151689919989234E-02   0.180289E-01   0.922555E+00   0.164192E+03   0.825749E-18
   LPB:    8  -0.173198593194298E+00   0.494251792333457E-03   0.308724E-01   0.546643E+00   0.797135E+03   0.244074E-18
   LPB:    9  -0.173198534479115E+00   0.776229432724705E-03   0.365239E-01   0.533286E+00   0.638630E+03  -0.236375E-18
   LPB:   10  -0.173198502855148E+00   0.851375043721043E-03   0.269766E-01   0.729214E+00   0.181941E+03  -0.223787E-17
   LPB:   11  -0.173198478538441E+00   0.366172081478794E-03   0.270535E-01   0.766748E+00   0.238093E+03  -0.149430E-17
   LPB:   12  -0.173198460134878E+00   0.157378495312042E-03   0.367594E-01   0.556996E+00   0.904611E+03  -0.332843E-17
  Finished solving LPB equations
  A_corr:   -9.845554171675509E-002
 End minimization
 Ecorr=   3302.65436646587     
 A_corr= -9.845554171675509E-002
 Ecorr_band=  -3302.75282200759     
 End Solvation calculations
DAV:   1    -0.248738246567E+03    0.12112E-04   -0.31254E-03 14304   0.903E-02    0.244E-02
 Begin Solvation calculations
  rms_SCF =   1.679097425312399E-003 tol =   1.679097425312399E-004
 Begin minimization
 Creating dielectric and ionic cavities
  area:      142.369469535141     
  volume:    728.183871918013     
  Acav:     7.474397150594897E-002
  Solving linear dielectric/ionic screening model
        iter                  A_solv                     rms
   LPB:       -0.173161888330839E+00   0.352250087142019E-01
   LPB:    0  -0.173159431941774E+00   0.184496237350646E-01   0.395787E-03   0.000000E+00   0.313620E+02   0.124127E-01
   LPB:    1  -0.173157275712269E+00   0.517538346763830E-02   0.114735E-01   0.000000E+00   0.779095E+02  -0.749981E-18
   LPB:    2  -0.173156916798088E+00   0.162178167246186E-02   0.145161E-01   0.131566E+00   0.240281E+03   0.255909E-16
   LPB:    3  -0.173156817250399E+00   0.134352767973625E-02   0.205140E-01   0.196264E+00   0.250359E+03   0.301127E-16
   LPB:    4  -0.173156774249641E+00   0.695799479988176E-03   0.205923E-01   0.430320E+00   0.166160E+03   0.357418E-16
   LPB:    5  -0.173156748237303E+00   0.342910894030017E-03   0.293737E-01   0.424081E+00   0.363055E+03   0.424837E-16
   LPB:    6  -0.173156733218724E+00   0.166168497212987E-03   0.354810E-01   0.477983E+00   0.448088E+03   0.459094E-16
  Finished solving LPB equations
  A_corr:   -9.841276171277480E-002
 End minimization
 Ecorr=   3302.56428791105     
 A_corr= -9.841276171277480E-002
 Ecorr_band=  -3302.66270067276     
 End Solvation calculations
RMM:   2    -0.248738303898E+03   -0.57331E-04   -0.19253E-04  8981   0.242E-02
 Begin Solvation calculations
  rms_SCF =   1.679097425312399E-003 tol =   1.679097425312399E-004
 Begin minimization
 Creating dielectric and ionic cavities
  area:      142.371611071950     
  volume:    728.172791440014     
  Acav:     7.474509581277350E-002
  Solving linear dielectric/ionic screening model
        iter                  A_solv                     rms
   LPB:       -0.173167311763041E+00   0.309318802505700E-01
   LPB:    0  -0.173165747011431E+00   0.206804485312784E-01  -0.315887E-03   0.000000E+00   0.313626E+02  -0.990703E-02
   LPB:    1  -0.173164507218002E+00   0.178900552481514E-02   0.883359E-02   0.000000E+00   0.681969E+02  -0.688909E-18
   LPB:    2  -0.173164432252090E+00   0.101378202398559E-02   0.138508E-01   0.385634E-01   0.159069E+03  -0.238745E-18
   LPB:    3  -0.173164417965559E+00   0.462860476176674E-03   0.185550E-01   0.142258E+00   0.636946E+02   0.265714E-17
   LPB:    4  -0.173164410672699E+00   0.157049383967104E-03   0.254832E-01   0.371689E+00   0.409557E+03  -0.391908E-17
  Finished solving LPB equations
  A_corr:   -9.841931485992544E-002
 End minimization
 Ecorr=   3302.67671910084     
 A_corr= -9.841931485992544E-002
 Ecorr_band=  -3302.77513841570     
 End Solvation calculations
  94 F= -.24873830E+03 E0= -.24873802E+03  d E =-.686672E-04
quench:  g(F)=  0.000E+00 g(S)=  0.000E+00 dE (1.order)= 0.000E+00
 bond charge predicted
       N       E                     dE             d eps       ncg     rms          rms(c)
 Begin Solvation calculations
  rms_SCF =   1.679097425312399E-003 tol =   1.679097425312399E-004
 Begin minimization
 Creating dielectric and ionic cavities
  area:      142.375428589186     
  volume:    728.176415439764     
  Acav:     7.474710000932246E-002
  Solving linear dielectric/ionic screening model
        iter                  A_solv                     rms
   LPB:       -0.173217026176161E+00   0.734515002131341E-03
   LPB:    0  -0.173217026173473E+00   0.738676113271319E-03   0.413995E-06   0.000000E+00   0.313624E+02   0.129839E-04
   LPB:    1  -0.173169357351140E+00   0.257635238986310E-03   0.154743E-01   0.000000E+00   0.687874E+06  -0.562540E-21
   LPB:    2  -0.173164363997534E+00   0.215862588953561E-03   0.274307E-01   0.590925E-01   0.184524E+06  -0.577892E-18
   LPB:    3  -0.173162716642369E+00   0.415494972673728E-03   0.329845E-01   0.274361E+00   0.720734E+05  -0.761111E-18
   LPB:    4  -0.173161981581224E+00   0.119481414534841E-02   0.359488E-01   0.409413E+00   0.862167E+04  -0.784866E-18
   LPB:    5  -0.173161635545988E+00   0.314412017216169E-02   0.334987E-01   0.505188E+00   0.583166E+03  -0.966286E-18
   LPB:    6  -0.173161483559012E+00   0.248804455998165E-02   0.188087E-01   0.782268E+00   0.154974E+03  -0.840095E-18
   LPB:    7  -0.173161336787161E+00   0.560377333643480E-03   0.266859E-01   0.680633E+00   0.507193E+03  -0.208166E-17
   LPB:    8  -0.173161239096944E+00   0.368627761976153E-03   0.381892E-01   0.465104E+00   0.319832E+04  -0.402588E-17
   LPB:    9  -0.173161181254326E+00   0.754377811652995E-03   0.368915E-01   0.612930E+00   0.720269E+03  -0.614999E-17
   LPB:   10  -0.173161149286027E+00   0.844837485878450E-03   0.273222E-01   0.746246E+00   0.191577E+03  -0.762696E-17
   LPB:   11  -0.173161124519923E+00   0.387366476377004E-03   0.272578E-01   0.776540E+00   0.238249E+03  -0.141169E-16
   LPB:   12  -0.173161105856767E+00   0.192752006940605E-03   0.364728E-01   0.563182E+00   0.699841E+03  -0.304411E-16
   LPB:   13  -0.173161093842680E+00   0.153932558350565E-03   0.369324E-01   0.635722E+00   0.110365E+04  -0.373824E-16
  Finished solving LPB equations
  A_corr:   -9.841399383335715E-002
 End minimization
 Ecorr=   3302.67412166484     
 A_corr= -9.841399383335715E-002
 Ecorr_band=  -3302.77253565867     
 End Solvation calculations
DAV:   1    -0.248738268991E+03   -0.22423E-04   -0.29252E-03 14031   0.960E-02    0.342E-02
 Begin Solvation calculations
  rms_SCF =   1.679097425312399E-003 tol =   1.679097425312399E-004
 Begin minimization
 Creating dielectric and ionic cavities
  area:      142.362363758263     
  volume:    728.188656281689     
  Acav:     7.474024097308797E-002
  Solving linear dielectric/ionic screening model
        iter                  A_solv                     rms
   LPB:       -0.173391984996230E+00   0.193344606827434E+00
   LPB:    0  -0.173389740393971E+00   0.191896549469435E+00   0.378342E-03   0.000000E+00   0.313618E+02   0.118655E-01
   LPB:    1  -0.173295810783752E+00   0.188252137234192E-01   0.866854E-02   0.000000E+00   0.678766E+02   0.634051E-18
   LPB:    2  -0.173287140576714E+00   0.429727893369356E-02   0.160585E-01   0.498273E-01   0.125872E+03   0.457942E-17
   LPB:    3  -0.173286142492440E+00   0.230396108737602E-02   0.209620E-01   0.881883E-01   0.132429E+03   0.287482E-16
   LPB:    4  -0.173285853700334E+00   0.175003313954001E-02   0.245049E-01   0.247513E+00   0.217376E+03   0.256708E-16
   LPB:    5  -0.173285740724925E+00   0.104375913048520E-02   0.225925E-01   0.424314E+00   0.154815E+03   0.357532E-16
   LPB:    6  -0.173285679016439E+00   0.509375055446090E-03   0.263120E-01   0.468998E+00   0.272643E+03   0.460850E-16
   LPB:    7  -0.173285644966449E+00   0.275985532624090E-03   0.305591E-01   0.475099E+00   0.312272E+03   0.427119E-16
   LPB:    8  -0.173285625032636E+00   0.132335054390246E-03   0.343628E-01   0.520627E+00   0.388036E+03   0.449506E-16
  Finished solving LPB equations
  A_corr:   -9.854538405954812E-002
 End minimization
 Ecorr=   3302.42484841928     
 A_corr= -9.854538405954812E-002
 Ecorr_band=  -3302.52339380334     
 End Solvation calculations
RMM:   2    -0.248739022614E+03   -0.75362E-03   -0.31773E-04 10642   0.299E-02    0.311E-01
 Begin Solvation calculations
  rms_SCF =   1.679097425312399E-003 tol =   1.679097425312399E-004
 Begin minimization
 Creating dielectric and ionic cavities
  area:      142.368024357721     
  volume:    728.183491131705     
  Acav:     7.474321278780371E-002
  Solving linear dielectric/ionic screening model
        iter                  A_solv                     rms
   LPB:       -0.173307153165854E+00   0.231626892421103E+00
   LPB:    0  -0.173307056195814E+00   0.231622482258808E+00  -0.786378E-04   0.000000E+00   0.313621E+02  -0.246624E-02
   LPB:    1  -0.173171729511082E+00   0.221747168255578E-01   0.863264E-02   0.000000E+00   0.676882E+02   0.163002E-18
   LPB:    2  -0.173160248794570E+00   0.399034328370208E-02   0.156527E-01   0.467886E-01   0.125798E+03   0.124515E-16
   LPB:    3  -0.173158987818572E+00   0.165662677431377E-02   0.213936E-01   0.803606E-01   0.182466E+03   0.150500E-16
   LPB:    4  -0.173158649989599E+00   0.117806254368780E-02   0.265364E-01   0.215989E+00   0.301391E+03   0.518007E-16
   LPB:    5  -0.173158532539860E+00   0.107647748375081E-02   0.248173E-01   0.371743E+00   0.220944E+03   0.583294E-16
   LPB:    6  -0.173158482205757E+00   0.798676539058260E-03   0.235340E-01   0.451928E+00   0.182070E+03   0.572690E-16
   LPB:    7  -0.173158456025781E+00   0.369041271772332E-03   0.252497E-01   0.484782E+00   0.175317E+03   0.673863E-16
   LPB:    8  -0.173158440892822E+00   0.144190288315756E-03   0.316775E-01   0.460745E+00   0.351396E+03   0.718143E-16
  Finished solving LPB equations
  A_corr:   -9.841522810501840E-002
 End minimization
 Ecorr=   3302.54120703267     
 A_corr= -9.841522810501840E-002
 Ecorr_band=  -3302.63962226077     
 End Solvation calculations
RMM:   3    -0.248738351739E+03    0.67088E-03   -0.10034E-04  8757   0.186E-02    0.103E-01
 Begin Solvation calculations
  rms_SCF =   1.679097425312399E-003 tol =   1.679097425312399E-004
 Begin minimization
 Creating dielectric and ionic cavities
  area:      142.369688403970     
  volume:    728.170351431563     
  Acav:     7.474408641208440E-002
  Solving linear dielectric/ionic screening model
        iter                  A_solv                     rms
   LPB:       -0.173209176812721E+00   0.553530927921182E-01
   LPB:    0  -0.173206624362026E+00   0.465809668274035E-01  -0.403448E-03   0.000000E+00   0.313627E+02  -0.126532E-01
   LPB:    1  -0.173200928401925E+00   0.474127513885401E-02   0.875838E-02   0.000000E+00   0.660799E+02   0.326698E-18
   LPB:    2  -0.173200409765578E+00   0.117873008856761E-02   0.155984E-01   0.511257E-01   0.117234E+03   0.273161E-16
   LPB:    3  -0.173200349825095E+00   0.810612890188549E-03   0.184332E-01   0.977998E-01   0.182590E+03   0.357609E-16
   LPB:    4  -0.173200330708730E+00   0.493344654752057E-03   0.212316E-01   0.276886E+00   0.137785E+03   0.394591E-16
   LPB:    5  -0.173200321803191E+00   0.160602431957686E-03   0.248180E-01   0.398540E+00   0.221827E+03   0.506750E-16
  Finished solving LPB equations
  A_corr:   -9.845623539110633E-002
 End minimization
 Ecorr=   3302.66149116264     
 A_corr= -9.845623539110633E-002
 Ecorr_band=  -3302.75994739803     
 End Solvation calculations
RMM:   4    -0.248738272724E+03    0.79015E-04   -0.35557E-05  8510   0.106E-02
 Begin Solvation calculations
  rms_SCF =   1.679097425312399E-003 tol =   1.679097425312399E-004
 Begin minimization
 Creating dielectric and ionic cavities
  area:      142.370154690257     
  volume:    728.173133131042     
  Acav:     7.474433121238513E-002
  Solving linear dielectric/ionic screening model
        iter                  A_solv                     rms
   LPB:       -0.173196088943648E+00   0.593683558888506E-02
   LPB:    0  -0.173196001491860E+00   0.224275519878196E-02   0.746782E-04   0.000000E+00   0.313625E+02   0.234210E-02
   LPB:    1  -0.173195958893968E+00   0.648679341823327E-03   0.120398E-01   0.000000E+00   0.787303E+02  -0.622077E-19
   LPB:    2  -0.173195949264334E+00   0.352389152868201E-03   0.189549E-01   0.143589E+00   0.303187E+03  -0.443706E-17
   LPB:    3  -0.173195945368528E+00   0.391782394271904E-03   0.226437E-01   0.338658E+00   0.175261E+03  -0.807116E-17
   LPB:    4  -0.173195942140421E+00   0.227358433738910E-03   0.244438E-01   0.767590E+00   0.201840E+03  -0.888233E-17
   LPB:    5  -0.173195939572543E+00   0.923166654524790E-04   0.311397E-01   0.624425E+00   0.348174E+03  -0.895670E-17
  Finished solving LPB equations
  A_corr:   -9.845160836015776E-002
 End minimization
 Ecorr=   3302.63735865437     
 A_corr= -9.845160836015776E-002
 Ecorr_band=  -3302.73581026273     
 End Solvation calculations
  95 F= -.24873827E+03 E0= -.24873798E+03  d E =0.311744E-04
quench:  g(F)=  0.000E+00 g(S)=  0.000E+00 dE (1.order)= 0.000E+00
 bond charge predicted
       N       E                     dE             d eps       ncg     rms          rms(c)
 Begin Solvation calculations
  rms_SCF =   1.679097425312399E-003 tol =   1.679097425312399E-004
 Begin minimization
 Creating dielectric and ionic cavities
  area:      142.369982571017     
  volume:    728.173161539021     
  Acav:     7.474424084978382E-002
  Solving linear dielectric/ionic screening model
        iter                  A_solv                     rms
   LPB:       -0.173248002955105E+00   0.688500700046550E-03
   LPB:    0  -0.173248002955103E+00   0.688517945535828E-03  -0.102827E-07   0.000000E+00   0.313625E+02  -0.322492E-06
   LPB:    1  -0.173201737321471E+00   0.232453034931274E-03   0.152172E-01   0.000000E+00   0.842788E+06   0.117922E-22
   LPB:    2  -0.173197359186063E+00   0.186320825466838E-03   0.272052E-01   0.529316E-01   0.201512E+06  -0.986518E-19
   LPB:    3  -0.173195912682613E+00   0.390969495509105E-03   0.330733E-01   0.271772E+00   0.758031E+05  -0.468367E-18
   LPB:    4  -0.173195264751096E+00   0.106212913885637E-02   0.360452E-01   0.410998E+00   0.726594E+04  -0.170427E-17
   LPB:    5  -0.173194955069364E+00   0.272337742602687E-02   0.339329E-01   0.507706E+00   0.604274E+03  -0.187959E-17
   LPB:    6  -0.173194818715233E+00   0.240960177119462E-02   0.198185E-01   0.753882E+00   0.154869E+03   0.578942E-17
   LPB:    7  -0.173194694998637E+00   0.930910515639134E-03   0.252079E-01   0.713335E+00   0.397197E+03   0.124549E-16
   LPB:    8  -0.173194618756734E+00   0.122336678318348E-02   0.317451E-01   0.489358E+00   0.353378E+03   0.194019E-16
   LPB:    9  -0.173194574296234E+00   0.871528178281667E-03   0.242230E-01   0.764238E+00   0.156206E+03   0.210177E-16
   LPB:   10  -0.173194537308515E+00   0.285861843601557E-03   0.307551E-01   0.655231E+00   0.430409E+03   0.270840E-16
   LPB:   11  -0.173194512045297E+00   0.108448642492932E-03   0.389577E-01   0.539207E+00   0.172630E+04   0.512463E-16
  Finished solving LPB equations
  A_corr:   -9.845027119551297E-002
 End minimization
 Ecorr=   3302.63250223539     
 A_corr= -9.845027119551297E-002
 Ecorr_band=  -3302.73095250658     
 End Solvation calculations
DAV:   1    -0.248738284878E+03    0.66861E-04   -0.26778E-03 13731   0.762E-02    0.188E-02
 Begin Solvation calculations
  rms_SCF =   1.679097425312399E-003 tol =   1.679097425312399E-004
 Begin minimization
 Creating dielectric and ionic cavities
  area:      142.373627823004     
  volume:    728.177585759572     
  Acav:     7.474615460707708E-002
  Solving linear dielectric/ionic screening model
        iter                  A_solv                     rms
   LPB:       -0.173183757435863E+00   0.192821917469230E-01
   LPB:    0  -0.173183656270693E+00   0.180819677499472E-01   0.803205E-04   0.000000E+00   0.313623E+02   0.251904E-02
   LPB:    1  -0.173182078812830E+00   0.429810115760132E-02   0.106295E-01   0.000000E+00   0.839510E+02  -0.816815E-19
   LPB:    2  -0.173181781853808E+00   0.717590955265717E-03   0.146363E-01   0.136716E+00   0.330983E+03   0.150871E-16
   LPB:    3  -0.173181698524789E+00   0.533171280409113E-03   0.262478E-01   0.156472E+00   0.754228E+03   0.150121E-16
   LPB:    4  -0.173181667938976E+00   0.608326103690527E-03   0.285294E-01   0.337695E+00   0.266728E+03   0.148940E-16
   LPB:    5  -0.173181652091870E+00   0.500124477339684E-03   0.244811E-01   0.603797E+00   0.240522E+03   0.199050E-16
   LPB:    6  -0.173181640653070E+00   0.282295155035018E-03   0.297516E-01   0.593953E+00   0.182874E+03   0.216064E-16
   LPB:    7  -0.173181632830417E+00   0.145819046688282E-03   0.335260E-01   0.606879E+00   0.613569E+03   0.195320E-16
  Finished solving LPB equations
  A_corr:   -9.843547822333960E-002
 End minimization
 Ecorr=   3302.64250846840     
 A_corr= -9.843547822333960E-002
 Ecorr_band=  -3302.74094394663     
 End Solvation calculations
RMM:   2    -0.248738306846E+03   -0.21968E-04   -0.13866E-04  8117   0.186E-02
