 vasp.5.4.4.18Apr17-6-g9f103f2a35 (build Feb 06 2024 13:54:16) complex          
  
 POSCAR found type information on POSCAR  Cu Ru Cu N  O 
 02/POSCAR found :  5 types and      40 ions
 scaLAPACK will be used

 ----------------------------------------------------------------------------- 
|                                                                             |
|  ADVICE TO THIS USER RUNNING 'VASP/VAMP'   (HEAR YOUR MASTER'S VOICE ...):  |
|                                                                             |
|      You enforced a specific xc-type in the INCAR file,                     |
|      a different type was found on the POTCAR file                          |
|          I HOPE YOU KNOW, WHAT YOU ARE  DOING                               |
|                                                                             |
 ----------------------------------------------------------------------------- 

 LDA part: xc-table for Pade appr. of Perdew
 POSCAR found type information on POSCAR  Cu Ru Cu N  O 
 00/POSCAR found :  5 types and      40 ions
 POSCAR found type information on POSCAR  Cu Ru Cu N  O 
 06/POSCAR found :  5 types and      40 ions
 Jacobian:    20.5888137679208     
 POSCAR, INCAR and KPOINTS ok, starting setup
 FFT: planning ...
 WAVECAR not read
 entering main loop
       N       E                     dE             d eps       ncg     rms          rms(c)
  Solvation turned off during non-self-consistent phase (first NELMDL steps)
DAV:   1     0.439392334140E+04    0.43939E+04   -0.18052E+05  4080   0.203E+03
DAV:   2     0.630560501202E+03   -0.37634E+04   -0.36313E+04  4107   0.471E+02
DAV:   3    -0.283121421231E+02   -0.65887E+03   -0.60800E+03  4746   0.235E+02
DAV:   4    -0.149056267771E+03   -0.12074E+03   -0.10779E+03  7413   0.928E+01
DAV:   5    -0.162649384479E+03   -0.13593E+02   -0.13073E+02  6315   0.297E+01    0.447E+01
 Begin Solvation calculations
  rms_SCF =    5.59582259647252      tol =   0.559582259647252     
 Begin minimization
 Creating dielectric and ionic cavities
  area:      173.816947993696     
  volume:    694.180611109131     
  Acav:     9.125389769669041E-002
  Solving linear dielectric/ionic screening model
        iter                  A_solv                     rms
   LPB:       -0.342602913539763E+03   0.224071422751386E+03
   LPB:    0  -0.832407627212354E+01   0.340970966447292E+02  -0.456014E+01   0.000000E+00   0.321501E+02  -0.146609E+03
   LPB:    1  -0.163757652951472E+01   0.696770615838721E+01   0.108509E-01   0.000000E+00   0.951267E+02  -0.245273E-14
   LPB:    2  -0.667249783949615E+00   0.116750262315724E+01   0.141437E-01   0.111333E+00   0.376562E+03   0.333860E-13
   LPB:    3  -0.409760377231066E+00   0.111375954696854E+01   0.271165E-01   0.138411E+00   0.659316E+03   0.497556E-13
   LPB:    4  -0.322548893880764E+00   0.946703986750061E+00   0.279902E-01   0.328127E+00   0.975454E+02   0.537605E-13
   LPB:    5  -0.284978841151371E+00   0.723932256511496E+00   0.231390E-01   0.521109E+00   0.461855E+03   0.556160E-13
   LPB:    6  -0.261129500313871E+00   0.259531548323910E+00   0.280888E-01   0.522934E+00   0.106296E+03   0.602434E-13
  Finished solving LPB equations
  A_corr:   -0.169875602617180     
 End minimization
 Ecorr=   1800.58146978145     
 A_corr= -0.169875602617180     
 Ecorr_band=  -1800.75134538406     
 End Solvation calculations
RMM:   6    -0.168000182074E+03   -0.53508E+01   -0.34930E+02  4177   0.919E+01    0.379E+01
 Begin Solvation calculations
  rms_SCF =    5.59582259647252      tol =   0.559582259647252     
 Begin minimization
 Creating dielectric and ionic cavities
  area:      172.087740007822     
  volume:    703.138854629263     
  Acav:     9.034606350410643E-002
  Solving linear dielectric/ionic screening model
        iter                  A_solv                     rms
   LPB:       -0.123049977385777E+02   0.607381124707525E+02
   LPB:    0  -0.119592107697804E+02   0.600208796369941E+02   0.147633E+00   0.000000E+00   0.317301E+02   0.468441E+01
   LPB:    1  -0.118147725408919E+01   0.553187667808054E+01   0.897942E-02   0.000000E+00   0.741297E+02   0.772173E-16
   LPB:    2  -0.397119963129796E+00   0.138088596307168E+01   0.164278E-01   0.397791E-01   0.128664E+03  -0.138795E-14
   LPB:    3  -0.287887286819156E+00   0.751202172563341E+00   0.223830E-01   0.102212E+00   0.122142E+03  -0.855317E-15
   LPB:    4  -0.253736929695009E+00   0.686665981530779E+00   0.245446E-01   0.285105E+00   0.260723E+03  -0.494671E-14
   LPB:    5  -0.237483925644622E+00   0.287466792573127E+00   0.237892E-01   0.491038E+00   0.111973E+03  -0.183850E-14
  Finished solving LPB equations
  A_corr:   -0.147137862140515     
 End minimization
 Ecorr=   1732.90402919907     
 A_corr= -0.147137862140515     
 Ecorr_band=  -1733.05116706121     
 End Solvation calculations
RMM:   7    -0.152699872850E+03    0.15300E+02   -0.11375E+02  4219   0.469E+01    0.223E+01
 Begin Solvation calculations
  rms_SCF =    5.59582259647252      tol =   0.559582259647252     
 Begin minimization
 Creating dielectric and ionic cavities
  area:      170.631994221496     
  volume:    706.779682495608     
  Acav:     8.958179696628545E-002
  Solving linear dielectric/ionic screening model
        iter                  A_solv                     rms
   LPB:       -0.576409705990497E+01   0.408108837454367E+02
   LPB:    0  -0.571050772440725E+01   0.406965865293249E+02   0.582760E-01   0.000000E+00   0.315594E+02   0.183916E+01
   LPB:    1  -0.711791445979976E+00   0.386407222070806E+01   0.911681E-02   0.000000E+00   0.726207E+02  -0.503969E-16
   LPB:    2  -0.305192672040031E+00   0.619916437902594E+00   0.163864E-01   0.452551E-01   0.134210E+03   0.414019E-15
   LPB:    3  -0.245947734642952E+00   0.263210551705831E+00   0.228121E-01   0.104666E+00   0.309649E+03  -0.518552E-15
   LPB:    4  -0.231454335515149E+00   0.173747163255922E+00   0.272068E-01   0.205119E+00   0.339194E+03  -0.228506E-15
  Finished solving LPB equations
  A_corr:   -0.141872538548864     
 End minimization
 Ecorr=   1700.69666410727     
 A_corr= -0.141872538548864     
 Ecorr_band=  -1700.83853664582     
 End Solvation calculations
RMM:   8    -0.138621631676E+03    0.14078E+02   -0.79265E+00  4180   0.111E+01    0.117E+01
 Begin Solvation calculations
  rms_SCF =    2.14236921747411      tol =   0.214236921747411     
 Begin minimization
 Creating dielectric and ionic cavities
  area:      162.571234426269     
  volume:    706.057276914024     
  Acav:     8.534989807379111E-002
  Solving linear dielectric/ionic screening model
        iter                  A_solv                     rms
   LPB:       -0.890632115550776E+00   0.135604530351503E+02
   LPB:    0  -0.890259995695512E+00   0.135908200971632E+02   0.485354E-02   0.000000E+00   0.315933E+02   0.153339E+00
   LPB:    1  -0.322345238962923E+00   0.150622048286571E+01   0.919448E-02   0.000000E+00   0.715152E+02   0.571606E-17
   LPB:    2  -0.258178252065722E+00   0.294844603045963E+00   0.185955E-01   0.558659E-01   0.972262E+02  -0.136480E-14
   LPB:    3  -0.246987129078318E+00   0.218968074699288E+00   0.234271E-01   0.138437E+00   0.268025E+03   0.188427E-14
   LPB:    4  -0.241698622943113E+00   0.156895003762167E+00   0.332931E-01   0.332525E+00   0.755078E+02   0.235871E-14
  Finished solving LPB equations
  A_corr:   -0.156348724869321     
 End minimization
 Ecorr=   1663.99715833962     
 A_corr= -0.156348724869321     
 Ecorr_band=  -1664.15350706449     
 End Solvation calculations
RMM:   9    -0.137237249208E+03    0.13844E+01   -0.72282E+00  4208   0.108E+01    0.693E+00
 Begin Solvation calculations
  rms_SCF =    2.14236921747411      tol =   0.214236921747411     
 Begin minimization
 Creating dielectric and ionic cavities
  area:      153.034753624870     
  volume:    704.285915722039     
  Acav:     8.034324565305695E-002
  Solving linear dielectric/ionic screening model
        iter                  A_solv                     rms
   LPB:       -0.114902823900939E+01   0.157039773142873E+02
   LPB:    0  -0.113058213689016E+01   0.156993786637427E+02   0.341271E-01   0.000000E+00   0.316763E+02   0.108102E+01
   LPB:    1  -0.361965735399536E+00   0.147129729634834E+01   0.920302E-02   0.000000E+00   0.735207E+02  -0.375500E-16
   LPB:    2  -0.298443087774951E+00   0.258394544658361E+00   0.158141E-01   0.480956E-01   0.154200E+03   0.882155E-15
   LPB:    3  -0.286493332320807E+00   0.180572923594985E+00   0.259522E-01   0.114631E+00   0.278878E+03   0.101377E-14
   LPB:    4  -0.280466560107330E+00   0.117148946642849E+00   0.376669E-01   0.347488E+00   0.123342E+03   0.117301E-14
  Finished solving LPB equations
  A_corr:   -0.200123314454273     
 End minimization
 Ecorr=   1630.03646921654     
 A_corr= -0.200123314454273     
 Ecorr_band=  -1630.23659253100     
 End Solvation calculations
RMM:  10    -0.136492308791E+03    0.74494E+00   -0.15465E+00  4284   0.504E+00    0.609E+00
 Begin Solvation calculations
  rms_SCF =    2.14236921747411      tol =   0.214236921747411     
 Begin minimization
 Creating dielectric and ionic cavities
  area:      149.686644436938     
  volume:    700.273079706841     
  Acav:     7.858548832939231E-002
  Solving linear dielectric/ionic screening model
        iter                  A_solv                     rms
   LPB:       -0.353468820271714E+00   0.630325211717327E+00
   LPB:    0  -0.347651991806694E+00   0.118820196997305E+01   0.191075E-01   0.000000E+00   0.318645E+02   0.608852E+00
   LPB:    1  -0.317394786658684E+00   0.365230697646149E+00   0.169485E-01   0.000000E+00   0.976234E+02   0.447025E-16
   LPB:    2  -0.310609584494045E+00   0.398684331912814E+00   0.232785E-01   0.163271E+00   0.275211E+03   0.781628E-14
   LPB:    3  -0.305202116962389E+00   0.396531377807520E+00   0.292003E-01   0.635328E+00   0.670814E+02   0.991507E-14
   LPB:    4  -0.299539309797980E+00   0.382291779386540E+00   0.357888E-01   0.854434E+00   0.705985E+02   0.123396E-13
   LPB:    5  -0.296059822963772E+00   0.249267105436350E+00   0.218810E-01   0.100499E+01   0.152413E+03   0.146438E-13
   LPB:    6  -0.293634990284739E+00   0.917910404746966E-01   0.258068E-01   0.590881E+00   0.822674E+02   0.163581E-13
  Finished solving LPB equations
  A_corr:   -0.215049501955347     
 End minimization
 Ecorr=   1589.60024997643     
 A_corr= -0.215049501955347     
 Ecorr_band=  -1589.81529947839     
 End Solvation calculations
RMM:  11    -0.136291996368E+03    0.20031E+00   -0.96421E-01  4198   0.226E+00    0.350E+00
 Begin Solvation calculations
  rms_SCF =    1.02472324918611      tol =   0.102472324918611     
 Begin minimization
 Creating dielectric and ionic cavities
  area:      149.274433667934     
  volume:    696.544048691280     
  Acav:     7.836907767566556E-002
  Solving linear dielectric/ionic screening model
        iter                  A_solv                     rms
   LPB:       -0.347296153227558E+00   0.989514188474402E+00
   LPB:    0  -0.343884552785109E+00   0.129580084176841E+01   0.145933E-01   0.000000E+00   0.320393E+02   0.467558E+00
   LPB:    1  -0.319220332469668E+00   0.451578245375989E+00   0.153422E-01   0.000000E+00   0.972267E+02   0.239968E-16
   LPB:    2  -0.315102446908708E+00   0.260628789511666E+00   0.151175E-01   0.169440E+00   0.262640E+03   0.783890E-15
   LPB:    3  -0.313691911615784E+00   0.166531272522203E+00   0.207932E-01   0.249040E+00   0.120077E+03  -0.577970E-15
   LPB:    4  -0.312670111799331E+00   0.154246705852265E+00   0.332126E-01   0.453524E+00   0.107927E+03  -0.116032E-14
   LPB:    5  -0.311441846886470E+00   0.130763334372666E+00   0.343152E-01   0.116344E+01   0.244271E+03  -0.352695E-15
   LPB:    6  -0.310101925891685E+00   0.601610122824955E-01   0.364392E-01   0.102732E+01   0.690428E+02   0.156383E-14
  Finished solving LPB equations
  A_corr:   -0.231732848216019     
 End minimization
 Ecorr=   1567.86979377001     
 A_corr= -0.231732848216019     
 Ecorr_band=  -1568.10152661823     
 End Solvation calculations
RMM:  12    -0.136160693628E+03    0.13130E+00   -0.14672E-01  4221   0.165E+00    0.231E+00
 Begin Solvation calculations
  rms_SCF =   0.645672967149550      tol =   6.456729671495495E-002
 Begin minimization
 Creating dielectric and ionic cavities
  area:      149.964637288910     
  volume:    692.969036542741     
  Acav:     7.873143457667756E-002
  Solving linear dielectric/ionic screening model
        iter                  A_solv                     rms
   LPB:       -0.341650391342583E+00   0.107534118893095E+01
   LPB:    0  -0.341644263005679E+00   0.109958205163382E+01   0.616896E-03   0.000000E+00   0.322069E+02   0.198683E-01
   LPB:    1  -0.325816750838241E+00   0.337422083245981E+00   0.135562E-01   0.000000E+00   0.989352E+02   0.149633E-19
   LPB:    2  -0.323742400923933E+00   0.973697283068567E-01   0.163369E-01   0.108752E+00   0.169301E+03   0.466366E-15
   LPB:    3  -0.323212135420846E+00   0.445097759245470E-01   0.233207E-01   0.179077E+00   0.185056E+03   0.110918E-14
   LPB:    4  -0.322761218917965E+00   0.128750137781736E+00   0.420792E-01   0.471277E+00   0.140386E+03   0.207423E-14
   LPB:    5  -0.322275367771928E+00   0.150255836736908E+00   0.281103E-01   0.161291E+01   0.100733E+03   0.300728E-14
   LPB:    6  -0.321740668139315E+00   0.543701219140105E-01   0.292351E-01   0.105820E+01   0.575329E+02   0.402353E-14
  Finished solving LPB equations
  A_corr:   -0.243009233562637     
 End minimization
 Ecorr=   1554.08756802113     
 A_corr= -0.243009233562637     
 Ecorr_band=  -1554.33057725469     
 End Solvation calculations
RMM:  13    -0.136127197411E+03    0.33496E-01   -0.62705E-02  4224   0.110E+00    0.184E+00
 Begin Solvation calculations
  rms_SCF =   0.474831889262602      tol =   4.748318892626018E-002
 Begin minimization
 Creating dielectric and ionic cavities
  area:      150.891176753485     
  volume:    689.037181120632     
  Acav:     7.921786779557975E-002
  Solving linear dielectric/ionic screening model
        iter                  A_solv                     rms
   LPB:       -0.370029851818929E+00   0.105262136266428E+01
   LPB:    0  -0.369241409803680E+00   0.128656430416555E+01   0.697728E-02   0.000000E+00   0.323912E+02   0.226003E+00
   LPB:    1  -0.342628028367151E+00   0.505708909347004E+00   0.138106E-01   0.000000E+00   0.126088E+03  -0.503092E-17
   LPB:    2  -0.339313312159954E+00   0.131488644655450E+00   0.155056E-01   0.110936E+00   0.120070E+03   0.280000E-14
   LPB:    3  -0.338542982252875E+00   0.856615103994621E-01   0.205278E-01   0.175540E+00   0.268037E+03   0.243032E-14
   LPB:    4  -0.338192807081619E+00   0.112094069416614E+00   0.244215E-01   0.382101E+00   0.143519E+03   0.250912E-14
   LPB:    5  -0.337884516278928E+00   0.812002936979290E-01   0.261082E-01   0.823513E+00   0.217413E+03   0.257702E-14
   LPB:    6  -0.337544487611880E+00   0.338715119621119E-01   0.385250E-01   0.747462E+00   0.959616E+02   0.281298E-14
  Finished solving LPB equations
  A_corr:   -0.258326619816300     
 End minimization
 Ecorr=   1541.01645913439     
 A_corr= -0.258326619816300     
 Ecorr_band=  -1541.27478575420     
 End Solvation calculations
RMM:  14    -0.136089046664E+03    0.38151E-01   -0.39738E-02  4334   0.657E-01    0.701E-01
 Begin Solvation calculations
  rms_SCF =   0.154647533012759      tol =   1.546475330127588E-002
 Begin minimization
 Creating dielectric and ionic cavities
  area:      151.645397342517     
  volume:    686.184653007498     
  Acav:     7.961383360482140E-002
  Solving linear dielectric/ionic screening model
        iter                  A_solv                     rms
   LPB:       -0.376341946652262E+00   0.101877256420335E+01
   LPB:    0  -0.375946943830647E+00   0.117009339081555E+01   0.492841E-02   0.000000E+00   0.325250E+02   0.160296E+00
   LPB:    1  -0.354125667937299E+00   0.413712996669447E+00   0.139196E-01   0.000000E+00   0.130284E+03   0.727116E-17
   LPB:    2  -0.351402685166448E+00   0.116464129841356E+00   0.157818E-01   0.110061E+00   0.126882E+03   0.526432E-15
   LPB:    3  -0.350781048180387E+00   0.476487902626167E-01   0.223470E-01   0.161224E+00   0.169400E+03  -0.352658E-15
   LPB:    4  -0.350415542872719E+00   0.752292097761491E-01   0.342680E-01   0.383431E+00   0.250657E+03  -0.168590E-14
   LPB:    5  -0.350128176341141E+00   0.127405988853209E+00   0.291336E-01   0.924778E+00   0.176226E+03  -0.218363E-14
   LPB:    6  -0.349838034840955E+00   0.603611084791803E-01   0.255248E-01   0.115241E+01   0.724305E+02  -0.257434E-14
   LPB:    7  -0.349590485598219E+00   0.222133202936241E-01   0.334739E-01   0.650589E+00   0.257159E+03  -0.312505E-14
   LPB:    8  -0.349428668640782E+00   0.151763736408579E-01   0.346504E-01   0.631482E+00   0.238823E+03  -0.363310E-14
  Finished solving LPB equations
  A_corr:   -0.269814835035960     
 End minimization
 Ecorr=   1529.19309275961     
 A_corr= -0.269814835035960     
 Ecorr_band=  -1529.46290759464     
 End Solvation calculations
RMM:  15    -0.136084412644E+03    0.46340E-02   -0.21293E-02  4310   0.393E-01    0.320E-01
 Begin Solvation calculations
  rms_SCF =   0.154647533012759      tol =   1.546475330127588E-002
 Begin minimization
 Creating dielectric and ionic cavities
  area:      152.081021055492     
  volume:    684.891520830722     
  Acav:     7.984253605413304E-002
  Solving linear dielectric/ionic screening model
        iter                  A_solv                     rms
   LPB:       -0.366397076221128E+00   0.845579883737182E+00
   LPB:    0  -0.366374567695787E+00   0.874561723344594E+00   0.117537E-02   0.000000E+00   0.325856E+02   0.383002E-01
   LPB:    1  -0.357133709103502E+00   0.233504666950891E+00   0.139478E-01   0.000000E+00   0.108211E+03   0.279594E-17
   LPB:    2  -0.355989303558533E+00   0.954118095814831E-01   0.150433E-01   0.114823E+00   0.180154E+03  -0.160972E-15
   LPB:    3  -0.355747880222114E+00   0.635142882401383E-01   0.194922E-01   0.162810E+00   0.121825E+03  -0.187582E-16
   LPB:    4  -0.355668325515399E+00   0.434850963089468E-01   0.191904E-01   0.334707E+00   0.218042E+03   0.360560E-15
   LPB:    5  -0.355620131434782E+00   0.269301372565252E-01   0.246315E-01   0.471977E+00   0.166291E+03   0.475503E-15
   LPB:    6  -0.355561136912532E+00   0.143762469187069E-01   0.421033E-01   0.716131E+00   0.130537E+03   0.408105E-15
  Finished solving LPB equations
  A_corr:   -0.275718600858399     
 End minimization
 Ecorr=   1524.57648453050     
 A_corr= -0.275718600858399     
 Ecorr_band=  -1524.85220313136     
 End Solvation calculations
RMM:  16    -0.136084134326E+03    0.27832E-03   -0.41865E-03  4499   0.203E-01    0.204E-01
 Begin Solvation calculations
  rms_SCF =   0.154647533012759      tol =   1.546475330127588E-002
 Begin minimization
 Creating dielectric and ionic cavities
  area:      152.388891532225     
  volume:    684.298358905436     
  Acav:     8.000416805441798E-002
  Solving linear dielectric/ionic screening model
        iter                  A_solv                     rms
   LPB:       -0.368437750322266E+00   0.863285633669502E+00
   LPB:    0  -0.368415200938367E+00   0.836947023468838E+00  -0.117594E-02   0.000000E+00   0.326134E+02  -0.383513E-01
   LPB:    1  -0.360869225759618E+00   0.198949118103247E+00   0.138043E-01   0.000000E+00   0.103296E+03  -0.339460E-17
   LPB:    2  -0.360000402581566E+00   0.890095039551619E-01   0.147123E-01   0.108031E+00   0.185584E+03   0.224952E-14
   LPB:    3  -0.359834857297761E+00   0.514751613562227E-01   0.182545E-01   0.153567E+00   0.106141E+03   0.233680E-14
   LPB:    4  -0.359758800755253E+00   0.490421031915204E-01   0.231583E-01   0.362144E+00   0.198613E+03   0.253864E-14
   LPB:    5  -0.359696586143015E+00   0.328670405695517E-01   0.276412E-01   0.685338E+00   0.104202E+03   0.263343E-14
   LPB:    6  -0.359629999302341E+00   0.133486380762871E-01   0.366290E-01   0.807660E+00   0.109153E+03   0.270665E-14
  Finished solving LPB equations
  A_corr:   -0.279625831247923     
 End minimization
 Ecorr=   1521.74958978406     
 A_corr= -0.279625831247923     
 Ecorr_band=  -1522.02921561531     
 End Solvation calculations
RMM:  17    -0.136085194960E+03   -0.10606E-02   -0.26590E-03  4465   0.134E-01    0.237E-01
 Begin Solvation calculations
  rms_SCF =   0.154647533012759      tol =   1.546475330127588E-002
 Begin minimization
 Creating dielectric and ionic cavities
  area:      152.811780276830     
  volume:    683.544336019835     
  Acav:     8.022618464533583E-002
  Solving linear dielectric/ionic screening model
        iter                  A_solv                     rms
   LPB:       -0.380889434341247E+00   0.118526544921548E+01
   LPB:    0  -0.380849259315779E+00   0.115095395018909E+01  -0.156877E-02   0.000000E+00   0.326487E+02  -0.512184E-01
   LPB:    1  -0.367897119731110E+00   0.268774137482143E+00   0.137214E-01   0.000000E+00   0.950851E+02  -0.124415E-17
   LPB:    2  -0.366371414337453E+00   0.118115160612654E+00   0.143563E-01   0.112587E+00   0.197939E+03  -0.127609E-14
   LPB:    3  -0.366087548453566E+00   0.672012662878333E-01   0.177794E-01   0.150234E+00   0.113935E+03  -0.174067E-14
   LPB:    4  -0.365967247400369E+00   0.568647066823609E-01   0.218562E-01   0.344745E+00   0.198606E+03  -0.136572E-14
   LPB:    5  -0.365883083998471E+00   0.343531803220174E-01   0.267257E-01   0.572135E+00   0.106001E+03  -0.124476E-14
   LPB:    6  -0.365803495142592E+00   0.142377130892529E-01   0.359038E-01   0.703911E+00   0.127663E+03  -0.125792E-14
  Finished solving LPB equations
  A_corr:   -0.285577310497257     
 End minimization
 Ecorr=   1518.22150615063     
 A_corr= -0.285577310497257     
 Ecorr_band=  -1518.50708346113     
 End Solvation calculations
RMM:  18    -0.136085887539E+03   -0.69258E-03   -0.15303E-03  4579   0.837E-02    0.112E-01
 Begin Solvation calculations
  rms_SCF =   0.154647533012759      tol =   1.546475330127588E-002
 Begin minimization
 Creating dielectric and ionic cavities
  area:      153.275458347553     
  volume:    682.962670746613     
  Acav:     8.046961563246524E-002
  Solving linear dielectric/ionic screening model
        iter                  A_solv                     rms
   LPB:       -0.399479656889450E+00   0.175225432726332E+01
   LPB:    0  -0.399280420389052E+00   0.168615717857875E+01  -0.349209E-02   0.000000E+00   0.326760E+02  -0.114107E+00
   LPB:    1  -0.376698352473182E+00   0.368625770629489E+00   0.134220E-01   0.000000E+00   0.829950E+02  -0.104045E-17
   LPB:    2  -0.374013310211463E+00   0.161293896286400E+00   0.136577E-01   0.116850E+00   0.225338E+03  -0.100556E-14
   LPB:    3  -0.373513348641078E+00   0.789103750094337E-01   0.172040E-01   0.147820E+00   0.120913E+03  -0.139336E-14
   LPB:    4  -0.373307215908073E+00   0.692964545666543E-01   0.227358E-01   0.311982E+00   0.185619E+03  -0.134213E-14
   LPB:    5  -0.373173581986967E+00   0.427131745407727E-01   0.271310E-01   0.543267E+00   0.985731E+02  -0.130839E-14
   LPB:    6  -0.373056629581631E+00   0.173597363161325E-01   0.348299E-01   0.681721E+00   0.131402E+03  -0.531083E-15
   LPB:    7  -0.372967555727452E+00   0.103916750298097E-01   0.379168E-01   0.699618E+00   0.216434E+03   0.484569E-15
  Finished solving LPB equations
  A_corr:   -0.292497940094987     
 End minimization
 Ecorr=   1514.60211932095     
 A_corr= -0.292497940094987     
 Ecorr_band=  -1514.89461726104     
 End Solvation calculations
RMM:  19    -0.136087514623E+03   -0.16271E-02   -0.11306E-03  4163   0.865E-02    0.959E-02
 Begin Solvation calculations
  rms_SCF =   0.154647533012759      tol =   1.546475330127588E-002
 Begin minimization
 Creating dielectric and ionic cavities
  area:      153.604169747195     
  volume:    682.685059640056     
  Acav:     8.064218911727719E-002
  Solving linear dielectric/ionic screening model
        iter                  A_solv                     rms
   LPB:       -0.397263680409551E+00   0.153594619134773E+01
   LPB:    0  -0.397018578481129E+00   0.146289254835205E+01  -0.387246E-02   0.000000E+00   0.326890E+02  -0.126587E+00
   LPB:    1  -0.381745328439647E+00   0.309879830499131E+00   0.132453E-01   0.000000E+00   0.766734E+02   0.777032E-18
   LPB:    2  -0.379920513960524E+00   0.127395356324458E+00   0.134063E-01   0.118043E+00   0.234066E+03  -0.153694E-14
   LPB:    3  -0.379587117847473E+00   0.606877930333568E-01   0.171255E-01   0.143023E+00   0.131462E+03  -0.240035E-14
   LPB:    4  -0.379469238339898E+00   0.502842994335284E-01   0.215373E-01   0.281145E+00   0.177767E+03  -0.256467E-14
   LPB:    5  -0.379393794625584E+00   0.327575462260726E-01   0.281996E-01   0.488801E+00   0.101928E+03  -0.250846E-14
   LPB:    6  -0.379315632593117E+00   0.151910605230932E-01   0.388178E-01   0.752637E+00   0.111417E+03  -0.220051E-14
  Finished solving LPB equations
  A_corr:   -0.298673443475840     
 End minimization
 Ecorr=   1511.80378825015     
 A_corr= -0.298673443475840     
 Ecorr_band=  -1512.10246169362     
 End Solvation calculations
RMM:  20    -0.136088749276E+03   -0.12347E-02   -0.90887E-04  4129   0.563E-02    0.575E-02
 Begin Solvation calculations
  rms_SCF =   0.102152459165484      tol =   1.021524591654840E-002
 Begin minimization
 Creating dielectric and ionic cavities
  area:      153.732314837078     
  volume:    682.739998686177     
  Acav:     8.070946528946613E-002
  Solving linear dielectric/ionic screening model
        iter                  A_solv                     rms
   LPB:       -0.388025969772300E+00   0.886221525230574E+00
   LPB:    0  -0.387911909940204E+00   0.840211003420460E+00  -0.264178E-02   0.000000E+00   0.326865E+02  -0.863506E-01
   LPB:    1  -0.383314461831590E+00   0.163794426887279E+00   0.131250E-01   0.000000E+00   0.719223E+02  -0.248921E-17
   LPB:    2  -0.382804405578417E+00   0.700176430547657E-01   0.131002E-01   0.111153E+00   0.251881E+03  -0.446887E-15
   LPB:    3  -0.382709694019908E+00   0.288337590600759E-01   0.169859E-01   0.143210E+00   0.125576E+03  -0.408301E-15
   LPB:    4  -0.382660269780762E+00   0.370943462353466E-01   0.295828E-01   0.299630E+00   0.131431E+03  -0.366690E-15
   LPB:    5  -0.382607015776878E+00   0.332231121305705E-01   0.348862E-01   0.913688E+00   0.795917E+02  -0.519094E-15
   LPB:    6  -0.382546509550875E+00   0.143766183135020E-01   0.357895E-01   0.110751E+01   0.799223E+02  -0.797107E-15
   LPB:    7  -0.382506126429401E+00   0.646900330476710E-02   0.340905E-01   0.700683E+00   0.227018E+03  -0.138715E-14
  Finished solving LPB equations
  A_corr:   -0.301796661139935     
 End minimization
 Ecorr=   1510.01155388795     
 A_corr= -0.301796661139935     
 Ecorr_band=  -1510.31335054909     
 End Solvation calculations
RMM:  21    -0.136089455512E+03   -0.70624E-03   -0.28757E-04  4162   0.439E-02    0.693E-02
 Begin Solvation calculations
  rms_SCF =   0.102152459165484      tol =   1.021524591654840E-002
 Begin minimization
 Creating dielectric and ionic cavities
  area:      153.949829751121     
  volume:    682.848938764378     
  Acav:     8.082366061933875E-002
  Solving linear dielectric/ionic screening model
        iter                  A_solv                     rms
   LPB:       -0.410149906044995E+00   0.189273782809807E+01
   LPB:    0  -0.409669674278274E+00   0.180700020786325E+01  -0.542114E-02   0.000000E+00   0.326813E+02  -0.177170E+00
   LPB:    1  -0.391634027650390E+00   0.354514486236381E+00   0.125937E-01   0.000000E+00   0.668691E+02  -0.193477E-17
   LPB:    2  -0.389435470140963E+00   0.119974872532211E+00   0.128043E-01   0.119895E+00   0.251177E+03  -0.119164E-14
   LPB:    3  -0.389074358871711E+00   0.480284775910207E-01   0.171998E-01   0.122274E+00   0.158306E+03  -0.131515E-14
   LPB:    4  -0.388972843339346E+00   0.420335544290639E-01   0.215951E-01   0.223903E+00   0.175948E+03  -0.111968E-14
   LPB:    5  -0.388926582538757E+00   0.243684087778320E-01   0.242957E-01   0.405049E+00   0.110859E+03  -0.126329E-14
   LPB:    6  -0.388891243602799E+00   0.107223956428130E-01   0.334507E-01   0.554835E+00   0.133743E+03  -0.137026E-14
   LPB:    7  -0.388860872774908E+00   0.643950255272461E-02   0.397913E-01   0.722471E+00   0.163180E+03  -0.192410E-14
  Finished solving LPB equations
  A_corr:   -0.308037212155569     
 End minimization
 Ecorr=   1507.61026714367     
 A_corr= -0.308037212155569     
 Ecorr_band=  -1507.91830435583     
 End Solvation calculations
RMM:  22    -0.136090033454E+03   -0.57794E-03   -0.81729E-04  4113   0.463E-02    0.837E-02
 Begin Solvation calculations
  rms_SCF =   1.952306305658199E-002 tol =   1.952306305658199E-003
 Begin minimization
 Creating dielectric and ionic cavities
  area:      153.981922604255     
  volume:    682.903224165795     
  Acav:     8.084050936723396E-002
  Solving linear dielectric/ionic screening model
        iter                  A_solv                     rms
   LPB:       -0.392176467330061E+00   0.543414500748121E+00
   LPB:    0  -0.392124323101782E+00   0.513686319163338E+00  -0.178643E-02   0.000000E+00   0.326788E+02  -0.583783E-01
   LPB:    1  -0.390795980955183E+00   0.927218787112745E-01   0.122219E-01   0.000000E+00   0.639709E+02   0.495533E-18
   LPB:    2  -0.390647632779911E+00   0.315819322424418E-01   0.125945E-01   0.108375E+00   0.249323E+03   0.417578E-15
   LPB:    3  -0.390620351603613E+00   0.126031649857722E-01   0.182509E-01   0.126905E+00   0.148173E+03   0.462581E-15
   LPB:    4  -0.390608791765515E+00   0.163974739013936E-01   0.298581E-01   0.259007E+00   0.113914E+03   0.464561E-15
   LPB:    5  -0.390594053266738E+00   0.188585332667181E-01   0.407158E-01   0.934975E+00   0.950773E+02   0.523418E-15
   LPB:    6  -0.390571425911678E+00   0.978955867759126E-02   0.409446E-01   0.152668E+01   0.564287E+02   0.570224E-15
   LPB:    7  -0.390557041803037E+00   0.382917758383719E-02   0.302322E-01   0.860947E+00   0.143702E+03   0.793434E-15
   LPB:    8  -0.390551075920406E+00   0.226747641930228E-02   0.311169E-01   0.402964E+00   0.510086E+03   0.909754E-15
   LPB:    9  -0.390547433923415E+00   0.154934643835893E-02   0.405077E-01   0.468946E+00   0.830187E+03   0.951010E-15
  Finished solving LPB equations
  A_corr:   -0.309706924556181     
 End minimization
 Ecorr=   1506.38282528080     
 A_corr= -0.309706924556181     
 Ecorr_band=  -1506.69253220536     
 End Solvation calculations
RMM:  23    -0.136090070129E+03   -0.36675E-04   -0.15654E-04  3816   0.365E-02    0.294E-02
 Begin Solvation calculations
  rms_SCF =   1.952306305658199E-002 tol =   1.952306305658199E-003
 Begin minimization
 Creating dielectric and ionic cavities
  area:      153.985931323647     
  volume:    682.931231605619     
  Acav:     8.084261394491489E-002
  Solving linear dielectric/ionic screening model
        iter                  A_solv                     rms
   LPB:       -0.391934393146911E+00   0.359842791324677E+00
   LPB:    0  -0.391907199427569E+00   0.340740260600645E+00  -0.129010E-02   0.000000E+00   0.326775E+02  -0.421574E-01
   LPB:    1  -0.391406406899625E+00   0.554156387387766E-01   0.112770E-01   0.000000E+00   0.651123E+02  -0.102187E-17
   LPB:    2  -0.391352101732850E+00   0.157082621103684E-01   0.124939E-01   0.978768E-01   0.230697E+03  -0.577724E-15
   LPB:    3  -0.391344030967723E+00   0.487811842253745E-02   0.181970E-01   0.102040E+00   0.165450E+03  -0.648137E-15
   LPB:    4  -0.391341925822547E+00   0.483139022627899E-02   0.254971E-01   0.186156E+00   0.166715E+03  -0.616513E-15
   LPB:    5  -0.391341116988135E+00   0.362246416953588E-02   0.233732E-01   0.419131E+00   0.190553E+03  -0.617123E-15
   LPB:    6  -0.391340425992082E+00   0.216719620169234E-02   0.340988E-01   0.585593E+00   0.155984E+03  -0.615362E-15
   LPB:    7  -0.391339474733548E+00   0.136352654309935E-02   0.476627E-01   0.984881E+00   0.340518E+03  -0.578846E-15
  Finished solving LPB equations
  A_corr:   -0.310496860788633     
 End minimization
 Ecorr=   1505.95428495661     
 A_corr= -0.310496860788633     
 Ecorr_band=  -1506.26478181739     
 End Solvation calculations
RMM:  24    -0.136090195763E+03   -0.12563E-03   -0.61702E-05  2938   0.223E-02    0.417E-02
 Begin Solvation calculations
  rms_SCF =   1.952306305658199E-002 tol =   1.952306305658199E-003
 Begin minimization
 Creating dielectric and ionic cavities
  area:      153.993374333136     
  volume:    682.974086210132     
  Acav:     8.084652152489616E-002
  Solving linear dielectric/ionic screening model
        iter                  A_solv                     rms
   LPB:       -0.394148401806077E+00   0.612292966650664E+00
   LPB:    0  -0.394086083427306E+00   0.587320131208150E+00  -0.195304E-02   0.000000E+00   0.326755E+02  -0.638167E-01
   LPB:    1  -0.392725069997234E+00   0.904057588479655E-01   0.108826E-01   0.000000E+00   0.646497E+02  -0.180431E-17
   LPB:    2  -0.392571378050817E+00   0.234930879859934E-01   0.127474E-01   0.964053E-01   0.215807E+03  -0.802022E-15
   LPB:    3  -0.392551310199266E+00   0.711072433865620E-02   0.182002E-01   0.914524E-01   0.170475E+03  -0.956245E-15
   LPB:    4  -0.392546921225401E+00   0.656778634608951E-02   0.244535E-01   0.162778E+00   0.152806E+03  -0.976199E-15
   LPB:    5  -0.392545195294349E+00   0.569902207810439E-02   0.246129E-01   0.390697E+00   0.160993E+03  -0.100871E-14
   LPB:    6  -0.392543987836369E+00   0.264963368781248E-02   0.287721E-01   0.598467E+00   0.913785E+02  -0.104080E-14
   LPB:    7  -0.392543010936935E+00   0.129319909141414E-02   0.350947E-01   0.663295E+00   0.175711E+03  -0.101210E-14
  Finished solving LPB equations
  A_corr:   -0.311696489412039     
 End minimization
 Ecorr=   1505.32164483579     
 A_corr= -0.311696489412039     
 Ecorr_band=  -1505.63334132520     
 End Solvation calculations
RMM:  25    -0.136090211098E+03   -0.15335E-04   -0.60554E-05  3024   0.184E-02    0.906E-03
 Begin Solvation calculations
  rms_SCF =   1.180158601820078E-002 tol =   1.180158601820078E-003
 Begin minimization
 Creating dielectric and ionic cavities
  area:      153.971981141800     
  volume:    682.994172643367     
  Acav:     8.083529009944519E-002
  Solving linear dielectric/ionic screening model
        iter                  A_solv                     rms
   LPB:       -0.392445737194328E+00   0.107346469931347E+00
   LPB:    0  -0.392441830644416E+00   0.102995969987676E+00  -0.488998E-03   0.000000E+00   0.326745E+02  -0.159778E-01
   LPB:    1  -0.392362655918698E+00   0.236153132478667E-01   0.104477E-01   0.000000E+00   0.133851E+03  -0.294257E-18
   LPB:    2  -0.392357232099539E+00   0.395267666052943E-02   0.118350E-01   0.604739E-01   0.181054E+03  -0.432044E-16
   LPB:    3  -0.392355840465920E+00   0.206293780139366E-02   0.250816E-01   0.121069E+00   0.221581E+03  -0.508876E-16
   LPB:    4  -0.392355331333929E+00   0.290956861293299E-02   0.283220E-01   0.323994E+00   0.416153E+03  -0.706117E-16
   LPB:    5  -0.392354982934557E+00   0.233651144786536E-02   0.289220E-01   0.670104E+00   0.895309E+02  -0.837500E-16
   LPB:    6  -0.392354637080509E+00   0.186396129813924E-02   0.355175E-01   0.808354E+00   0.411356E+03  -0.129142E-15
   LPB:    7  -0.392354234461367E+00   0.126430508948930E-02   0.419972E-01   0.984517E+00   0.904805E+02  -0.165584E-15
   LPB:    8  -0.392353844458297E+00   0.821256873426796E-03   0.415411E-01   0.979300E+00   0.112881E+03  -0.221894E-15
  Finished solving LPB equations
  A_corr:   -0.311518554358852     
 End minimization
 Ecorr=   1505.14281045188     
 A_corr= -0.311518554358852     
 Ecorr_band=  -1505.45432900624     
 End Solvation calculations
RMM:  26    -0.136090323727E+03   -0.11263E-03   -0.22031E-05  2483   0.155E-02    0.842E-03
 Begin Solvation calculations
  rms_SCF =   5.344091208413580E-003 tol =   5.344091208413580E-004
 Begin minimization
 Creating dielectric and ionic cavities
  area:      153.962996905418     
  volume:    682.993472882437     
  Acav:     8.083057337534452E-002
  Solving linear dielectric/ionic screening model
        iter                  A_solv                     rms
   LPB:       -0.392302114453243E+00   0.502025397443643E-01
   LPB:    0  -0.392299622514717E+00   0.424417801802083E-01  -0.390552E-03   0.000000E+00   0.326746E+02  -0.127611E-01
   LPB:    1  -0.392275962030261E+00   0.161538511151909E-01   0.110250E-01   0.000000E+00   0.196589E+03   0.174322E-18
   LPB:    2  -0.392274217156635E+00   0.296970278770043E-02   0.124164E-01   0.654818E-01   0.100512E+03   0.328312E-16
   LPB:    3  -0.392273671161751E+00   0.880362151685152E-03   0.216943E-01   0.179092E+00   0.275953E+03   0.300728E-16
   LPB:    4  -0.392273540491648E+00   0.114846864725969E-02   0.255590E-01   0.203137E+00   0.652559E+03   0.300441E-16
   LPB:    5  -0.392273478846669E+00   0.115107374714044E-02   0.287177E-01   0.419870E+00   0.967826E+02   0.254752E-16
   LPB:    6  -0.392273399629207E+00   0.942708971280598E-03   0.401464E-01   0.919235E+00   0.449302E+03   0.249499E-16
   LPB:    7  -0.392273278816987E+00   0.815792827380391E-03   0.461391E-01   0.132699E+01   0.157279E+03   0.315721E-16
   LPB:    8  -0.392273142207356E+00   0.541515302279850E-03   0.405220E-01   0.128750E+01   0.418341E+03   0.490312E-16
   LPB:    9  -0.392273042028432E+00   0.419046169419240E-03   0.362993E-01   0.818631E+00   0.327613E+03   0.713982E-16
  Finished solving LPB equations
  A_corr:   -0.311442468653087     
 End minimization
 Ecorr=   1505.06487978584     
 A_corr= -0.311442468653087     
 Ecorr_band=  -1505.37632225449     
 End Solvation calculations
RMM:  27    -0.136090388227E+03   -0.64500E-04   -0.13212E-05  2437   0.116E-02    0.896E-03
 Begin Solvation calculations
  rms_SCF =   5.344091208413580E-003 tol =   5.344091208413580E-004
 Begin minimization
 Creating dielectric and ionic cavities
  area:      153.964018257242     
  volume:    682.977123513179     
  Acav:     8.083110958505199E-002
  Solving linear dielectric/ionic screening model
        iter                  A_solv                     rms
   LPB:       -0.392479721723186E+00   0.861678077025269E-01
   LPB:    0  -0.392472987031841E+00   0.678296916059475E-01  -0.642043E-03   0.000000E+00   0.326753E+02  -0.209790E-01
   LPB:    1  -0.392442311000405E+00   0.144702575391229E-01   0.104644E-01   0.000000E+00   0.101345E+03  -0.790113E-18
   LPB:    2  -0.392440449460173E+00   0.246911321618815E-02   0.114579E-01   0.554221E-01   0.133875E+03  -0.139755E-15
   LPB:    3  -0.392440060127100E+00   0.965284324878423E-03   0.224698E-01   0.106648E+00   0.188045E+03  -0.135378E-15
   LPB:    4  -0.392439951858858E+00   0.764438922654856E-03   0.276046E-01   0.226359E+00   0.161776E+03  -0.136882E-15
   LPB:    5  -0.392439909538678E+00   0.953637209462242E-03   0.248110E-01   0.434894E+00   0.405565E+03  -0.137363E-15
   LPB:    6  -0.392439873868681E+00   0.616884292486905E-03   0.320479E-01   0.652531E+00   0.656349E+02  -0.135038E-15
   LPB:    7  -0.392439836698325E+00   0.405872190316616E-03   0.392666E-01   0.850491E+00   0.360781E+03  -0.130042E-15
  Finished solving LPB equations
  A_corr:   -0.311608727113273     
 End minimization
 Ecorr=   1504.91785754134     
 A_corr= -0.311608727113273     
 Ecorr_band=  -1505.22946626845     
 End Solvation calculations
RMM:  28    -0.136090436861E+03   -0.48634E-04   -0.11788E-05  2428   0.106E-02    0.670E-03
 Begin Solvation calculations
  rms_SCF =   5.344091208413580E-003 tol =   5.344091208413580E-004
 Begin minimization
 Creating dielectric and ionic cavities
  area:      153.953161963275     
  volume:    682.971162063955     
  Acav:     8.082541003071961E-002
  Solving linear dielectric/ionic screening model
        iter                  A_solv                     rms
   LPB:       -0.392156826880521E+00   0.111508251049698E+00
   LPB:    0  -0.392156800518144E+00   0.111261270856680E+00   0.401694E-04   0.000000E+00   0.326756E+02   0.131256E-02
   LPB:    1  -0.392076308289719E+00   0.235450434302083E-01   0.133080E-01   0.000000E+00   0.731136E+02   0.706501E-19
   LPB:    2  -0.392067047755176E+00   0.915062494492151E-02   0.127527E-01   0.120059E+00   0.256920E+03   0.101225E-15
   LPB:    3  -0.392065059522549E+00   0.295915203701976E-02   0.180705E-01   0.151517E+00   0.143800E+03   0.107863E-15
   LPB:    4  -0.392064412498432E+00   0.310959030819016E-02   0.240217E-01   0.244805E+00   0.319905E+03   0.102031E-15
   LPB:    5  -0.392064141125673E+00   0.215129714627423E-02   0.238095E-01   0.423154E+00   0.941364E+02   0.977648E-16
   LPB:    6  -0.392063972027362E+00   0.100400220645973E-02   0.277838E-01   0.533988E+00   0.169913E+03   0.627550E-16
   LPB:    7  -0.392063859229829E+00   0.450905064146797E-03   0.330823E-01   0.560217E+00   0.243716E+03   0.595338E-16
  Finished solving LPB equations
  A_corr:   -0.311238449199109     
 End minimization
 Ecorr=   1504.98458127470     
 A_corr= -0.311238449199109     
 Ecorr_band=  -1505.29581972390     
 End Solvation calculations
RMM:  29    -0.136090467347E+03   -0.30486E-04   -0.13461E-05  2468   0.921E-03    0.219E-03
 Begin Solvation calculations
  rms_SCF =   2.171449380516760E-003 tol =   2.171449380516760E-004
 Begin minimization
 Creating dielectric and ionic cavities
  area:      153.956587859254     
  volume:    682.974485694489     
  Acav:     8.082720862610834E-002
  Solving linear dielectric/ionic screening model
        iter                  A_solv                     rms
   LPB:       -0.392206079452051E+00   0.464592476349424E-01
   LPB:    0  -0.392204032823386E+00   0.337453301730078E-01  -0.353935E-03   0.000000E+00   0.326755E+02  -0.115650E-01
   LPB:    1  -0.392197851806131E+00   0.628853051156651E-02   0.105569E-01   0.000000E+00   0.723704E+02   0.301746E-18
   LPB:    2  -0.392197393482060E+00   0.150147394703256E-02   0.124201E-01   0.630271E-01   0.124538E+03   0.738992E-16
   LPB:    3  -0.392197296149170E+00   0.108947825195441E-02   0.205326E-01   0.128460E+00   0.217187E+03   0.918557E-16
   LPB:    4  -0.392197242917865E+00   0.992909507187260E-03   0.305197E-01   0.367935E+00   0.653849E+02   0.944750E-16
   LPB:    5  -0.392197191140911E+00   0.680570279624784E-03   0.316853E-01   0.936897E+00   0.200028E+03   0.100883E-15
   LPB:    6  -0.392197127541954E+00   0.547542989620196E-03   0.433684E-01   0.897425E+00   0.743635E+02   0.110570E-15
   LPB:    7  -0.392197074482852E+00   0.383555797714527E-03   0.402380E-01   0.899180E+00   0.300699E+03   0.125904E-15
   LPB:    8  -0.392197032545765E+00   0.298140211466637E-03   0.408162E-01   0.779188E+00   0.145070E+03   0.134572E-15
   LPB:    9  -0.392196997592917E+00   0.297036886162615E-03   0.408746E-01   0.832268E+00   0.259652E+03   0.140915E-15
   LPB:   10  -0.392196963096180E+00   0.271382938798541E-03   0.439186E-01   0.918547E+00   0.628247E+03   0.146432E-15
   LPB:   11  -0.392196925809757E+00   0.273957035676655E-03   0.449106E-01   0.105699E+01   0.881438E+03   0.151890E-15
   LPB:   12  -0.392196885763924E+00   0.252196729496363E-03   0.444674E-01   0.108471E+01   0.142134E+04   0.158074E-15
   LPB:   13  -0.392196844379586E+00   0.219875718864065E-03   0.446363E-01   0.102951E+01   0.134076E+04   0.164789E-15
   LPB:   14  -0.392196800505104E+00   0.198994610109655E-03   0.467684E-01   0.101184E+01   0.260405E+04   0.172651E-15
  Finished solving LPB equations
  A_corr:   -0.311369591878996     
 End minimization
 Ecorr=   1504.83751426193     
 A_corr= -0.311369591878996     
 Ecorr_band=  -1505.14888385381     
 End Solvation calculations
RMM:  30    -0.136090473241E+03   -0.58941E-05   -0.44104E-06  2370   0.823E-03
 Begin Solvation calculations
  rms_SCF =   2.171449380516760E-003 tol =   2.171449380516760E-004
 Begin minimization
 Creating dielectric and ionic cavities
  area:      153.966218358688     
  volume:    682.971859165926     
  Acav:     8.083226463831125E-002
  Solving linear dielectric/ionic screening model
        iter                  A_solv                     rms
   LPB:       -0.392550966135748E+00   0.829176381997593E-01
   LPB:    0  -0.392546608008121E+00   0.666070304160564E-01  -0.516480E-03   0.000000E+00   0.326756E+02  -0.168763E-01
   LPB:    1  -0.392526724428984E+00   0.100674274511551E-01   0.108365E-01   0.000000E+00   0.617731E+02   0.239425E-18
   LPB:    2  -0.392524794017595E+00   0.373258120430954E-02   0.131431E-01   0.800476E-01   0.175430E+03   0.110095E-15
   LPB:    3  -0.392524532785938E+00   0.167420545226913E-02   0.159400E-01   0.111579E+00   0.143371E+03   0.112326E-15
   LPB:    4  -0.392524458185358E+00   0.870057304554343E-03   0.222896E-01   0.204222E+00   0.855515E+02   0.112649E-15
   LPB:    5  -0.392524416356806E+00   0.489619258419372E-03   0.260369E-01   0.480002E+00   0.266783E+03   0.117633E-15
   LPB:    6  -0.392524381293892E+00   0.248821935020369E-03   0.384738E-01   0.567283E+00   0.105893E+03   0.120548E-15
   LPB:    7  -0.392524353188050E+00   0.141451426045827E-03   0.418692E-01   0.736578E+00   0.248349E+03   0.123592E-15
  Finished solving LPB equations
  A_corr:   -0.311692088549739     
 End minimization
 Ecorr=   1504.64000971708     
 A_corr= -0.311692088549739     
 Ecorr_band=  -1504.95170180563     
 End Solvation calculations
   1 F= -.13609047E+03 E0= -.13609759E+03  d E =-.136090E+03
quench:  g(F)=  0.000E+00 g(S)=  0.000E+00 dE (1.order)= 0.000E+00
 bond charge predicted
       N       E                     dE             d eps       ncg     rms          rms(c)
 Begin Solvation calculations
  rms_SCF =   2.171449380516760E-003 tol =   2.171449380516760E-004
 Begin minimization
 Creating dielectric and ionic cavities
  area:      154.160821370651     
  volume:    682.947584005256     
  Acav:     8.093443121959189E-002
  Solving linear dielectric/ionic screening model
        iter                  A_solv                     rms
   LPB:       -0.400642063797448E+00   0.861014511019341E-02
   LPB:    0  -0.400642063499989E+00   0.865797000139475E-02  -0.426687E-05   0.000000E+00   0.326767E+02  -0.139427E-03
   LPB:    1  -0.394900109549428E+00   0.391060339405648E-02   0.153266E-01   0.000000E+00   0.624407E+06   0.437315E-20
   LPB:    2  -0.394418924934380E+00   0.436640793109913E-02   0.263978E-01   0.486553E-01   0.799519E+05   0.320535E-16
   LPB:    3  -0.394269443090342E+00   0.923047323219561E-02   0.324300E-01   0.252870E+00   0.188680E+05   0.428036E-16
   LPB:    4  -0.394207314730790E+00   0.247314604892433E-01   0.340049E-01   0.396375E+00   0.168754E+04   0.586847E-16
   LPB:    5  -0.394182498832921E+00   0.340004846060887E-01   0.239434E-01   0.567279E+00   0.201744E+03   0.564650E-16
   LPB:    6  -0.394164590057353E+00   0.114260027534600E-01   0.207878E-01   0.831213E+00   0.276456E+03   0.566981E-16
   LPB:    7  -0.394151287260354E+00   0.726666121698931E-02   0.344292E-01   0.448496E+00   0.127482E+04   0.224391E-16
   LPB:    8  -0.394143893533624E+00   0.114153239809220E-01   0.328221E-01   0.583017E+00   0.291305E+03  -0.674221E-17
   LPB:    9  -0.394139731506586E+00   0.777766543277602E-02   0.241534E-01   0.764942E+00   0.201798E+03  -0.393266E-16
   LPB:   10  -0.394136354590923E+00   0.253381213080258E-02   0.316042E-01   0.620083E+00   0.370564E+03  -0.103920E-15
   LPB:   11  -0.394134071483038E+00   0.122586131575566E-02   0.385605E-01   0.554126E+00   0.338112E+04  -0.967916E-16
   LPB:   12  -0.394132585358570E+00   0.127110384477299E-02   0.393315E-01   0.638162E+00   0.178943E+04  -0.793123E-16
   LPB:   13  -0.394131648344808E+00   0.141107833808074E-02   0.364556E-01   0.680248E+00   0.167927E+04  -0.600408E-16
   LPB:   14  -0.394131018337754E+00   0.111966571518013E-02   0.346328E-01   0.707743E+00   0.103615E+04  -0.548349E-16
   LPB:   15  -0.394130549338788E+00   0.643519088392985E-03   0.360966E-01   0.714245E+00   0.178386E+04  -0.515288E-16
   LPB:   16  -0.394130212339903E+00   0.512412393350144E-03   0.399279E-01   0.649602E+00   0.189995E+04  -0.483145E-16
   LPB:   17  -0.394129978493698E+00   0.588049787145691E-03   0.389492E-01   0.711343E+00   0.230310E+04  -0.464256E-16
   LPB:   18  -0.394129819436410E+00   0.568011793167042E-03   0.362576E-01   0.730673E+00   0.128228E+04  -0.436272E-16
   LPB:   19  -0.394129701187394E+00   0.409162817600921E-03   0.365872E-01   0.736739E+00   0.161037E+04  -0.418909E-16
   LPB:   20  -0.394129604803355E+00   0.247157775370193E-03   0.401454E-01   0.742850E+00   0.240634E+04  -0.404426E-16
   LPB:   21  -0.394129526590678E+00   0.173269489582195E-03   0.429474E-01   0.758527E+00   0.372088E+04  -0.393188E-16
  Finished solving LPB equations
  A_corr:   -0.313195095371086     
 End minimization
 Ecorr=   1504.50572025137     
 A_corr= -0.313195095371086     
 Ecorr_band=  -1504.81891534675     
 End Solvation calculations
DAV:   1    -0.136092754632E+03   -0.22873E-02   -0.40623E-01  4272   0.119E+00    0.213E-01
 Begin Solvation calculations
  rms_SCF =   2.171449380516760E-003 tol =   2.171449380516760E-004
 Begin minimization
 Creating dielectric and ionic cavities
  area:      153.994842662408     
  volume:    682.857299174159     
  Acav:     8.084729239776414E-002
  Solving linear dielectric/ionic screening model
        iter                  A_solv                     rms
   LPB:       -0.396665526541073E+00   0.375249213244397E+00
   LPB:    0  -0.396572613636744E+00   0.319102184747660E+00  -0.238455E-02   0.000000E+00   0.326810E+02  -0.779292E-01
   LPB:    1  -0.395901458562493E+00   0.879138350256671E-01   0.116274E-01   0.000000E+00   0.903253E+02  -0.201103E-17
   LPB:    2  -0.395805128700240E+00   0.155388486210279E-01   0.134575E-01   0.124010E+00   0.231414E+03  -0.462028E-15
   LPB:    3  -0.395778479870547E+00   0.126060597956352E-01   0.243895E-01   0.152644E+00   0.622677E+03  -0.558372E-15
   LPB:    4  -0.395770344513581E+00   0.115673956396239E-01   0.230254E-01   0.323366E+00   0.161736E+03  -0.617213E-15
   LPB:    5  -0.395766051854042E+00   0.575014752502906E-02   0.233996E-01   0.519217E+00   0.263634E+03  -0.773559E-15
   LPB:    6  -0.395763624705096E+00   0.238228403017198E-02   0.311407E-01   0.424863E+00   0.260459E+03  -0.853085E-15
   LPB:    7  -0.395762330106349E+00   0.134319759915309E-02   0.328294E-01   0.505947E+00   0.927512E+03  -0.957525E-15
   LPB:    8  -0.395761583460717E+00   0.866315330033460E-03   0.337077E-01   0.561710E+00   0.740362E+03  -0.101839E-14
   LPB:    9  -0.395761121421580E+00   0.624878256703083E-03   0.357401E-01   0.583630E+00   0.901198E+03  -0.105588E-14
   LPB:   10  -0.395760842592061E+00   0.492618515884193E-03   0.360808E-01   0.597778E+00   0.101181E+04  -0.107913E-14
   LPB:   11  -0.395760667272308E+00   0.442251720043193E-03   0.369201E-01   0.614477E+00   0.975628E+03  -0.109244E-14
   LPB:   12  -0.395760555922103E+00   0.405967164940056E-03   0.355049E-01   0.660441E+00   0.978817E+03  -0.110021E-14
   LPB:   13  -0.395760482010115E+00   0.342295508413911E-03   0.355061E-01   0.663758E+00   0.103152E+04  -0.110511E-14
   LPB:   14  -0.395760430999714E+00   0.259344128396003E-03   0.359851E-01   0.680964E+00   0.955464E+03  -0.110834E-14
   LPB:   15  -0.395760395303917E+00   0.195940120172979E-03   0.372004E-01   0.676912E+00   0.133651E+04  -0.110995E-14
  Finished solving LPB equations
  A_corr:   -0.314913102906153     
 End minimization
 Ecorr=   1504.04762073633     
 A_corr= -0.314913102906153     
 Ecorr_band=  -1504.36253383924     
 End Solvation calculations
RMM:   2    -0.136095123189E+03   -0.23686E-02   -0.27576E-02  5286   0.332E-01    0.213E-01
 Begin Solvation calculations
  rms_SCF =   2.171449380516760E-003 tol =   2.171449380516760E-004
 Begin minimization
 Creating dielectric and ionic cavities
  area:      153.969668033783     
  volume:    682.861841357089     
  Acav:     8.083407571773581E-002
  Solving linear dielectric/ionic screening model
        iter                  A_solv                     rms
   LPB:       -0.396287218281684E+00   0.224241086298550E+00
   LPB:    0  -0.396283253751821E+00   0.221038933801194E+00  -0.492567E-03   0.000000E+00   0.326807E+02  -0.160974E-01
   LPB:    1  -0.396131396979859E+00   0.257560046994704E-01   0.916126E-02   0.000000E+00   0.737029E+02  -0.119212E-17
   LPB:    2  -0.396111451478602E+00   0.386534130518316E-02   0.177710E-01   0.677101E-01   0.126230E+03  -0.117428E-15
   LPB:    3  -0.396108969852597E+00   0.214287165104337E-02   0.248096E-01   0.891219E-01   0.290913E+03  -0.128385E-15
   LPB:    4  -0.396108121817132E+00   0.100753177071883E-02   0.275074E-01   0.308210E+00   0.379789E+03  -0.149051E-15
   LPB:    5  -0.396107731659215E+00   0.545629873485400E-03   0.320816E-01   0.394475E+00   0.451381E+03  -0.163971E-15
   LPB:    6  -0.396107527791801E+00   0.433739440124344E-03   0.344981E-01   0.485925E+00   0.493265E+03  -0.172202E-15
   LPB:    7  -0.396107409953882E+00   0.425220537298294E-03   0.360526E-01   0.553090E+00   0.548271E+03  -0.176402E-15
   LPB:    8  -0.396107338302212E+00   0.554606645693473E-03   0.369912E-01   0.592624E+00   0.376205E+03  -0.177119E-15
   LPB:    9  -0.396107293694033E+00   0.824146067471076E-03   0.342888E-01   0.671636E+00   0.308860E+03  -0.169522E-15
   LPB:   10  -0.396107264556294E+00   0.670901600116150E-03   0.273753E-01   0.818154E+00   0.154630E+03  -0.167432E-15
   LPB:   11  -0.396107239960935E+00   0.310268610764924E-03   0.310164E-01   0.745015E+00   0.363664E+03  -0.178262E-15
   LPB:   12  -0.396107220545378E+00   0.161017717695635E-03   0.373582E-01   0.655393E+00   0.636433E+03  -0.184495E-15
  Finished solving LPB equations
  A_corr:   -0.315273144827642     
 End minimization
 Ecorr=   1503.95075773986     
 A_corr= -0.315273144827642     
 Ecorr_band=  -1504.26603088469     
 End Solvation calculations
RMM:   3    -0.136094831013E+03    0.29218E-03   -0.20143E-03  5343   0.920E-02    0.222E-01
 Begin Solvation calculations
  rms_SCF =   2.171449380516760E-003 tol =   2.171449380516760E-004
 Begin minimization
 Creating dielectric and ionic cavities
  area:      153.978836736810     
  volume:    682.862943117080     
  Acav:     8.083888928682513E-002
  Solving linear dielectric/ionic screening model
        iter                  A_solv                     rms
   LPB:       -0.396873587616028E+00   0.208970577962044E+00
   LPB:    0  -0.396868817016931E+00   0.203478397852568E+00  -0.540326E-03   0.000000E+00   0.326807E+02  -0.176582E-01
   LPB:    1  -0.396725665882413E+00   0.212068306020052E-01   0.936758E-02   0.000000E+00   0.776758E+02   0.120001E-17
   LPB:    2  -0.396712162676494E+00   0.410289897947589E-02   0.145120E-01   0.608895E-01   0.231136E+03   0.377378E-16
   LPB:    3  -0.396709902741811E+00   0.351754686769332E-02   0.248317E-01   0.978090E-01   0.437582E+03   0.268952E-17
   LPB:    4  -0.396709241181550E+00   0.285979362428452E-02   0.240796E-01   0.301879E+00   0.150420E+03   0.171264E-16
   LPB:    5  -0.396708903734330E+00   0.173488037141810E-02   0.240244E-01   0.511250E+00   0.325314E+03   0.412930E-16
   LPB:    6  -0.396708703168061E+00   0.884651622328137E-03   0.294744E-01   0.484461E+00   0.193884E+03   0.394780E-16
   LPB:    7  -0.396708578771069E+00   0.497005955019205E-03   0.326263E-01   0.560311E+00   0.551018E+03   0.373269E-16
   LPB:    8  -0.396708498152615E+00   0.260613963221214E-03   0.357914E-01   0.590764E+00   0.471135E+03   0.388966E-16
   LPB:    9  -0.396708444876606E+00   0.198827364825447E-03   0.378132E-01   0.625506E+00   0.639141E+03   0.462273E-16
  Finished solving LPB equations
  A_corr:   -0.315869555589781     
 End minimization
 Ecorr=   1503.77403578380     
 A_corr= -0.315869555589781     
 Ecorr_band=  -1504.08990533939     
 End Solvation calculations
RMM:   4    -0.136094333852E+03    0.49716E-03   -0.63928E-04  4617   0.538E-02    0.104E-01
 Begin Solvation calculations
  rms_SCF =   2.171449380516760E-003 tol =   2.171449380516760E-004
 Begin minimization
 Creating dielectric and ionic cavities
  area:      153.959804249618     
  volume:    682.855213028891     
  Acav:     8.082889723104922E-002
  Solving linear dielectric/ionic screening model
        iter                  A_solv                     rms
   LPB:       -0.399105137147130E+00   0.242478366161637E+00
   LPB:    0  -0.399020816214980E+00   0.149669041833983E+00  -0.227161E-02   0.000000E+00   0.326811E+02  -0.742388E-01
   LPB:    1  -0.398607770768658E+00   0.575552547849727E-01   0.151349E-01   0.000000E+00   0.116889E+03  -0.435997E-17
   LPB:    2  -0.398569360059977E+00   0.224843424734173E-01   0.150678E-01   0.934083E-01   0.125864E+03   0.262835E-15
   LPB:    3  -0.398556456810397E+00   0.934687552866224E-02   0.188566E-01   0.268432E+00   0.268311E+03   0.297983E-15
   LPB:    4  -0.398551738663841E+00   0.100824744803949E-01   0.222353E-01   0.310093E+00   0.178118E+03   0.265879E-15
   LPB:    5  -0.398549431905406E+00   0.578172461141017E-02   0.209829E-01   0.518094E+00   0.217687E+03   0.274788E-15
   LPB:    6  -0.398547974840198E+00   0.189204312056744E-02   0.305671E-01   0.433599E+00   0.162371E+03   0.306074E-15
   LPB:    7  -0.398547169586594E+00   0.108210107786228E-02   0.339250E-01   0.497952E+00   0.665028E+03   0.280437E-15
   LPB:    8  -0.398546688551100E+00   0.720270370009695E-03   0.342523E-01   0.591662E+00   0.403554E+03   0.269319E-15
   LPB:    9  -0.398546382614928E+00   0.574262248305606E-03   0.359558E-01   0.605865E+00   0.522520E+03   0.250119E-15
   LPB:   10  -0.398546189304013E+00   0.490517076717929E-03   0.360167E-01   0.630797E+00   0.490533E+03   0.238769E-15
   LPB:   11  -0.398546064373932E+00   0.427097901707446E-03   0.361064E-01   0.644660E+00   0.564111E+03   0.230739E-15
   LPB:   12  -0.398545981147969E+00   0.338987002565533E-03   0.354235E-01   0.679023E+00   0.518008E+03   0.225676E-15
   LPB:   13  -0.398545924810092E+00   0.268529462401983E-03   0.361407E-01   0.663493E+00   0.716262E+03   0.222686E-15
   LPB:   14  -0.398545886323280E+00   0.196205112337010E-03   0.366234E-01   0.674140E+00   0.598741E+03   0.220406E-15
  Finished solving LPB equations
  A_corr:   -0.317716989092231     
 End minimization
 Ecorr=   1503.13448526544     
 A_corr= -0.317716989092231     
 Ecorr_band=  -1503.45220225453     
 End Solvation calculations
RMM:   5    -0.136094167293E+03    0.16656E-03   -0.17848E-04  3740   0.377E-02    0.320E-02
 Begin Solvation calculations
  rms_SCF =   2.171449380516760E-003 tol =   2.171449380516760E-004
 Begin minimization
 Creating dielectric and ionic cavities
  area:      153.977285111663     
  volume:    682.877004816629     
  Acav:     8.083807468362308E-002
  Solving linear dielectric/ionic screening model
        iter                  A_solv                     rms
   LPB:       -0.400217692961959E+00   0.175723248601042E+00
   LPB:    0  -0.400180472461728E+00   0.116604425435705E+00  -0.150926E-02   0.000000E+00   0.326800E+02  -0.493228E-01
   LPB:    1  -0.399992092201508E+00   0.500774626206637E-01   0.141849E-01   0.000000E+00   0.101907E+03   0.573019E-18
   LPB:    2  -0.399972636901354E+00   0.122826694172558E-01   0.132030E-01   0.110957E+00   0.109877E+03   0.329628E-15
   LPB:    3  -0.399966739708711E+00   0.650897666274172E-02   0.196566E-01   0.203598E+00   0.349164E+03   0.367171E-15
   LPB:    4  -0.399964806116183E+00   0.562787432990080E-02   0.223153E-01   0.288819E+00   0.123451E+03   0.375937E-15
   LPB:    5  -0.399963880162575E+00   0.319351789326411E-02   0.222045E-01   0.481266E+00   0.283476E+03   0.377046E-15
   LPB:    6  -0.399963345238118E+00   0.101788362163125E-02   0.303075E-01   0.423248E+00   0.149414E+03   0.369654E-15
   LPB:    7  -0.399963059682863E+00   0.651424186385355E-03   0.327303E-01   0.494308E+00   0.438699E+03   0.367789E-15
   LPB:    8  -0.399962887943501E+00   0.447685028857300E-03   0.345566E-01   0.569638E+00   0.297779E+03   0.361912E-15
   LPB:    9  -0.399962771149174E+00   0.380775381469715E-03   0.377356E-01   0.622776E+00   0.303726E+03   0.362878E-15
   LPB:   10  -0.399962690378559E+00   0.346180835125954E-03   0.373430E-01   0.698833E+00   0.262011E+03   0.363239E-15
   LPB:   11  -0.399962634174059E+00   0.310860124407886E-03   0.364842E-01   0.712235E+00   0.337630E+03   0.363024E-15
   LPB:   12  -0.399962594457132E+00   0.228053702419991E-03   0.359488E-01   0.717173E+00   0.275948E+03   0.363069E-15
   LPB:   13  -0.399962566908358E+00   0.173530439776081E-03   0.370356E-01   0.673275E+00   0.477213E+03   0.362783E-15
  Finished solving LPB equations
  A_corr:   -0.319124492224735     
 End minimization
 Ecorr=   1502.57039675926     
 A_corr= -0.319124492224735     
 Ecorr_band=  -1502.88952125148     
 End Solvation calculations
RMM:   6    -0.136094145147E+03    0.22146E-04   -0.13709E-04  4093   0.505E-02    0.291E-02
 Begin Solvation calculations
  rms_SCF =   2.171449380516760E-003 tol =   2.171449380516760E-004
 Begin minimization
 Creating dielectric and ionic cavities
  area:      153.995969023022     
  volume:    682.893868482461     
  Acav:     8.084788373708650E-002
  Solving linear dielectric/ionic screening model
        iter                  A_solv                     rms
   LPB:       -0.400634833647209E+00   0.844527433880458E-01
   LPB:    0  -0.400626903583393E+00   0.576093021914215E-01  -0.696654E-03   0.000000E+00   0.326792E+02  -0.227661E-01
   LPB:    1  -0.400590432472266E+00   0.240760658315500E-01   0.132284E-01   0.000000E+00   0.930991E+02  -0.140768E-17
   LPB:    2  -0.400586436750387E+00   0.438371847596052E-02   0.126620E-01   0.114459E+00   0.101339E+03   0.234491E-15
   LPB:    3  -0.400585459548532E+00   0.284472184364801E-02   0.197199E-01   0.157032E+00   0.317814E+03   0.259199E-15
   LPB:    4  -0.400585150855154E+00   0.211653964712531E-02   0.221955E-01   0.280662E+00   0.953127E+02   0.265459E-15
   LPB:    5  -0.400584999697404E+00   0.123075257400699E-02   0.230815E-01   0.470872E+00   0.326660E+03   0.281619E-15
   LPB:    6  -0.400584910146536E+00   0.396875273920778E-03   0.310098E-01   0.440965E+00   0.122155E+03   0.278127E-15
   LPB:    7  -0.400584857778196E+00   0.289499841961247E-03   0.337962E-01   0.536574E+00   0.249415E+03   0.278574E-15
   LPB:    8  -0.400584819584763E+00   0.219763379547268E-03   0.388498E-01   0.634453E+00   0.175919E+03   0.279525E-15
   LPB:    9  -0.400584788503830E+00   0.203641453895798E-03   0.411124E-01   0.768991E+00   0.167719E+03   0.279969E-15
  Finished solving LPB equations
  A_corr:   -0.319736904766743     
 End minimization
 Ecorr=   1502.29074189450     
 A_corr= -0.319736904766743     
 Ecorr_band=  -1502.61047879927     
 End Solvation calculations
RMM:   7    -0.136094138621E+03    0.65258E-05   -0.49584E-05  3307   0.350E-02
 Begin Solvation calculations
  rms_SCF =   2.171449380516760E-003 tol =   2.171449380516760E-004
 Begin minimization
 Creating dielectric and ionic cavities
  area:      154.014637336087     
  volume:    682.910921360830     
  Acav:     8.085768460144585E-002
  Solving linear dielectric/ionic screening model
        iter                  A_solv                     rms
   LPB:       -0.401135001019695E+00   0.654097900793630E-01
   LPB:    0  -0.401130098698440E+00   0.422842679838870E-01  -0.547754E-03   0.000000E+00   0.326784E+02  -0.178997E-01
   LPB:    1  -0.401107538338319E+00   0.168451925236715E-01   0.142276E-01   0.000000E+00   0.842649E+02  -0.430113E-18
   LPB:    2  -0.401105354128955E+00   0.413614735126323E-02   0.134293E-01   0.102572E+00   0.930301E+02   0.108998E-15
   LPB:    3  -0.401104809584434E+00   0.237665163616033E-02   0.182096E-01   0.183863E+00   0.277499E+03   0.112058E-15
   LPB:    4  -0.401104616656781E+00   0.173896271113993E-02   0.217182E-01   0.297055E+00   0.886600E+02   0.110165E-15
   LPB:    5  -0.401104521113477E+00   0.108184387806630E-02   0.228530E-01   0.470637E+00   0.287690E+03   0.115193E-15
   LPB:    6  -0.401104451096633E+00   0.379990758486014E-03   0.337872E-01   0.495672E+00   0.951973E+02   0.119043E-15
   LPB:    7  -0.401104395307215E+00   0.306007189733204E-03   0.390223E-01   0.689904E+00   0.143193E+03   0.123345E-15
   LPB:    8  -0.401104351658285E+00   0.233109488044569E-03   0.388234E-01   0.786395E+00   0.119877E+03   0.128652E-15
   LPB:    9  -0.401104320889663E+00   0.195814661205136E-03   0.379941E-01   0.720297E+00   0.165143E+03   0.131792E-15
  Finished solving LPB equations
  A_corr:   -0.320246636288217     
 End minimization
 Ecorr=   1502.01697050149     
 A_corr= -0.320246636288217     
 Ecorr_band=  -1502.33721713777     
 End Solvation calculations
   2 F= -.13609414E+03 E0= -.13610130E+03  d E =-.366538E-02
quench:  g(F)=  0.000E+00 g(S)=  0.000E+00 dE (1.order)= 0.000E+00
 bond charge predicted
       N       E                     dE             d eps       ncg     rms          rms(c)
 Begin Solvation calculations
  rms_SCF =   2.171449380516760E-003 tol =   2.171449380516760E-004
 Begin minimization
 Creating dielectric and ionic cavities
  area:      154.164322381529     
  volume:    682.838525373325     
  Acav:     8.093626925030273E-002
  Solving linear dielectric/ionic screening model
        iter                  A_solv                     rms
   LPB:       -0.405636930919825E+00   0.700849100512733E-02
   LPB:    0  -0.405636929703019E+00   0.723812096420343E-02  -0.862924E-05   0.000000E+00   0.326818E+02  -0.282019E-03
   LPB:    1  -0.403015206462483E+00   0.275063957916203E-02   0.153919E-01   0.000000E+00   0.323521E+06   0.631186E-20
   LPB:    2  -0.402801755375726E+00   0.356954788882906E-02   0.266947E-01   0.469437E-01   0.770501E+05  -0.565260E-16
   LPB:    3  -0.402733566546494E+00   0.833079818428508E-02   0.327609E-01   0.260306E+00   0.135063E+05  -0.603918E-16
   LPB:    4  -0.402704573177115E+00   0.208087300378693E-01   0.335669E-01   0.414983E+00   0.950517E+03  -0.696171E-16
   LPB:    5  -0.402692772088264E+00   0.227542531923239E-01   0.217308E-01   0.628722E+00   0.184415E+03  -0.813527E-16
   LPB:    6  -0.402683112755629E+00   0.701718681210752E-02   0.230339E-01   0.772205E+00   0.350050E+03  -0.836716E-16
   LPB:    7  -0.402676393405479E+00   0.608859363732610E-02   0.353915E-01   0.452740E+00   0.629174E+03  -0.917301E-16
   LPB:    8  -0.402672790102883E+00   0.894741386166206E-02   0.303734E-01   0.624855E+00   0.317291E+03  -0.952741E-16
   LPB:    9  -0.402670533717350E+00   0.454286168248097E-02   0.244207E-01   0.778840E+00   0.149186E+03  -0.705783E-16
   LPB:   10  -0.402668766900238E+00   0.143956171652229E-02   0.334579E-01   0.571528E+00   0.122173E+04  -0.122555E-15
   LPB:   11  -0.402667603121852E+00   0.635442102280335E-03   0.393522E-01   0.560026E+00   0.125471E+04  -0.241145E-15
   LPB:   12  -0.402666856076072E+00   0.845049557248846E-03   0.399782E-01   0.631863E+00   0.168106E+04  -0.317047E-15
   LPB:   13  -0.402666396673155E+00   0.972197716218077E-03   0.359848E-01   0.683204E+00   0.125541E+04  -0.365990E-15
   LPB:   14  -0.402666106859323E+00   0.798401882638067E-03   0.338596E-01   0.670444E+00   0.775671E+03  -0.396327E-15
   LPB:   15  -0.402665895505175E+00   0.453068532684317E-03   0.353366E-01   0.698794E+00   0.101615E+04  -0.415441E-15
   LPB:   16  -0.402665754007549E+00   0.326941881736756E-03   0.375220E-01   0.630489E+00   0.158771E+04  -0.429686E-15
   LPB:   17  -0.402665661021268E+00   0.354442814218417E-03   0.387738E-01   0.635941E+00   0.919536E+03  -0.439201E-15
   LPB:   18  -0.402665598212540E+00   0.363531355898684E-03   0.368616E-01   0.710502E+00   0.141399E+04  -0.446370E-15
   LPB:   19  -0.402665555343096E+00   0.260394444361277E-03   0.353406E-01   0.711915E+00   0.730831E+03  -0.453300E-15
   LPB:   20  -0.402665524801446E+00   0.149493389352611E-03   0.371979E-01   0.676862E+00   0.180273E+04  -0.455307E-15
  Finished solving LPB equations
  A_corr:   -0.321729255551143     
 End minimization
 Ecorr=   1501.86503908983     
 A_corr= -0.321729255551143     
 Ecorr_band=  -1502.18676834538     
 End Solvation calculations
DAV:   1    -0.136095435335E+03   -0.12902E-02   -0.18265E-01  4215   0.947E-01    0.115E-01
 Begin Solvation calculations
  rms_SCF =   2.171449380516760E-003 tol =   2.171449380516760E-004
 Begin minimization
 Creating dielectric and ionic cavities
  area:      154.102002803423     
  volume:    682.870329178000     
  Acav:     8.090355147179701E-002
  Solving linear dielectric/ionic screening model
        iter                  A_solv                     rms
   LPB:       -0.402967506208993E+00   0.320351447372246E-01
   LPB:    0  -0.402966928345793E+00   0.248191199012797E-01  -0.188055E-03   0.000000E+00   0.326803E+02  -0.614569E-02
   LPB:    1  -0.402938220630561E+00   0.148610224769754E-01   0.171967E-01   0.000000E+00   0.214933E+03   0.197315E-18
   LPB:    2  -0.402933254932412E+00   0.107793381723515E-01   0.177022E-01   0.168034E+00   0.158427E+03  -0.374911E-16
   LPB:    3  -0.402931498589290E+00   0.531601282198723E-02   0.186176E-01   0.336305E+00   0.200072E+03  -0.297866E-16
   LPB:    4  -0.402930539968532E+00   0.305649866757302E-02   0.242045E-01   0.419823E+00   0.245851E+03  -0.735080E-17
   LPB:    5  -0.402930090805640E+00   0.276411938868334E-02   0.251537E-01   0.450870E+00   0.276615E+03   0.574691E-17
   LPB:    6  -0.402929809213846E+00   0.118005983433357E-02   0.249641E-01   0.631688E+00   0.210736E+03   0.121041E-16
   LPB:    7  -0.402929621872858E+00   0.629581615944587E-03   0.332039E-01   0.500195E+00   0.825437E+03   0.253407E-16
   LPB:    8  -0.402929508093504E+00   0.373720692182706E-03   0.351277E-01   0.574076E+00   0.516254E+03   0.335585E-16
   LPB:    9  -0.402929435775191E+00   0.318474129280797E-03   0.357438E-01   0.624646E+00   0.871769E+03   0.379055E-16
   LPB:   10  -0.402929389533555E+00   0.282863285773555E-03   0.358135E-01   0.638173E+00   0.504750E+03   0.378715E-16
   LPB:   11  -0.402929359287745E+00   0.244012836470422E-03   0.356421E-01   0.657228E+00   0.715575E+03   0.364467E-16
   LPB:   12  -0.402929338885520E+00   0.168838175968298E-03   0.353779E-01   0.679584E+00   0.514099E+03   0.361513E-16
  Finished solving LPB equations
  A_corr:   -0.322025787413723     
 End minimization
 Ecorr=   1501.67147603351     
 A_corr= -0.322025787413723     
 Ecorr_band=  -1501.99350182092     
 End Solvation calculations
RMM:   2    -0.136096405412E+03   -0.97008E-03   -0.99956E-03  4873   0.253E-01    0.931E-02
 Begin Solvation calculations
  rms_SCF =   2.171449380516760E-003 tol =   2.171449380516760E-004
 Begin minimization
 Creating dielectric and ionic cavities
  area:      154.088118824552     
  volume:    682.869583725762     
  Acav:     8.089626238288997E-002
  Solving linear dielectric/ionic screening model
        iter                  A_solv                     rms
   LPB:       -0.403082967122727E+00   0.567616034961606E-01
   LPB:    0  -0.403081706078337E+00   0.516226105090638E-01  -0.277803E-03   0.000000E+00   0.326804E+02  -0.907870E-02
   LPB:    1  -0.403071403277077E+00   0.879305575418798E-02   0.107125E-01   0.000000E+00   0.635530E+02  -0.421614E-18
   LPB:    2  -0.403069516200524E+00   0.189478851702982E-02   0.152407E-01   0.128743E+00   0.174573E+03  -0.264748E-16
   LPB:    3  -0.403069191686039E+00   0.150128786836482E-02   0.221972E-01   0.118073E+00   0.316508E+03  -0.343874E-16
   LPB:    4  -0.403069068059506E+00   0.129381867007025E-02   0.250609E-01   0.337426E+00   0.147057E+03  -0.313918E-16
   LPB:    5  -0.403069008133287E+00   0.815717809916166E-03   0.245722E-01   0.494376E+00   0.216378E+03  -0.426165E-16
   LPB:    6  -0.403068969203663E+00   0.291678454797914E-03   0.291635E-01   0.547354E+00   0.199015E+03  -0.432383E-16
   LPB:    7  -0.403068943814956E+00   0.186266130881485E-03   0.352514E-01   0.539540E+00   0.406553E+03  -0.607985E-16
  Finished solving LPB equations
  A_corr:   -0.322172681432066     
 End minimization
 Ecorr=   1501.60411650304     
 A_corr= -0.322172681432066     
 Ecorr_band=  -1501.92628918448     
 End Solvation calculations
RMM:   3    -0.136096366659E+03    0.38753E-04   -0.84604E-04  5668   0.652E-02    0.109E-01
 Begin Solvation calculations
  rms_SCF =   2.171449380516760E-003 tol =   2.171449380516760E-004
 Begin minimization
 Creating dielectric and ionic cavities
  area:      154.097405077329     
  volume:    682.875117981965     
  Acav:     8.090113766559764E-002
  Solving linear dielectric/ionic screening model
        iter                  A_solv                     rms
   LPB:       -0.403278916383647E+00   0.898432887406125E-01
   LPB:    0  -0.403278674383426E+00   0.889077596185100E-01  -0.121697E-03   0.000000E+00   0.326801E+02  -0.397708E-02
   LPB:    1  -0.403254000287314E+00   0.732246659001644E-02   0.879721E-02   0.000000E+00   0.796889E+02  -0.202069E-18
   LPB:    2  -0.403252021731396E+00   0.259709200041167E-02   0.173682E-01   0.406160E-01   0.158190E+03  -0.162264E-16
   LPB:    3  -0.403251625941701E+00   0.204621087220714E-02   0.231572E-01   0.150032E+00   0.198983E+03  -0.722127E-17
   LPB:    4  -0.403251478020670E+00   0.129846618457459E-02   0.253425E-01   0.341508E+00   0.137104E+03  -0.492127E-17
   LPB:    5  -0.403251400635527E+00   0.680922382033053E-03   0.243590E-01   0.544275E+00   0.398776E+03  -0.192266E-16
   LPB:    6  -0.403251347755645E+00   0.334557067016530E-03   0.321975E-01   0.516975E+00   0.287427E+03  -0.180284E-16
   LPB:    7  -0.403251313092618E+00   0.285264575862657E-03   0.350233E-01   0.602616E+00   0.624661E+03  -0.177797E-16
   LPB:    8  -0.403251288176294E+00   0.159100717788464E-03   0.378558E-01   0.665031E+00   0.236969E+03  -0.161492E-16
  Finished solving LPB equations
  A_corr:   -0.322350150510696     
 End minimization
 Ecorr=   1501.51164953008     
 A_corr= -0.322350150510696     
 Ecorr_band=  -1501.83399968059     
 End Solvation calculations
RMM:   4    -0.136096289774E+03    0.76885E-04   -0.18277E-04  3763   0.289E-02    0.659E-02
 Begin Solvation calculations
  rms_SCF =   2.171449380516760E-003 tol =   2.171449380516760E-004
 Begin minimization
 Creating dielectric and ionic cavities
  area:      154.108494108304     
  volume:    682.888685706617     
  Acav:     8.090695940685971E-002
  Solving linear dielectric/ionic screening model
        iter                  A_solv                     rms
   LPB:       -0.403450226540570E+00   0.979312278213935E-01
   LPB:    0  -0.403449874999017E+00   0.967497403630668E-01  -0.146678E-03   0.000000E+00   0.326795E+02  -0.479337E-02
   LPB:    1  -0.403412419995960E+00   0.155762598307730E-01   0.105684E-01   0.000000E+00   0.704937E+02   0.324881E-18
   LPB:    2  -0.403405906672248E+00   0.282767798746677E-02   0.151609E-01   0.121221E+00   0.265994E+03  -0.279753E-17
   LPB:    3  -0.403404559975011E+00   0.150703032334198E-02   0.239921E-01   0.130654E+00   0.505634E+03  -0.140060E-18
   LPB:    4  -0.403404079615488E+00   0.175403773062083E-02   0.292155E-01   0.292922E+00   0.363246E+03   0.604518E-18
   LPB:    5  -0.403403867760561E+00   0.192718902597034E-02   0.275951E-01   0.466931E+00   0.213247E+03   0.195498E-17
   LPB:    6  -0.403403742219413E+00   0.111013206560004E-02   0.265365E-01   0.616221E+00   0.135501E+03   0.109681E-16
   LPB:    7  -0.403403656811249E+00   0.543188908882434E-03   0.292720E-01   0.616742E+00   0.417785E+03   0.546422E-17
   LPB:    8  -0.403403595697906E+00   0.262612702580344E-03   0.343776E-01   0.609276E+00   0.388565E+03  -0.266485E-17
   LPB:    9  -0.403403553923164E+00   0.191583708064708E-03   0.381691E-01   0.615660E+00   0.520423E+03  -0.399280E-17
  Finished solving LPB equations
  A_corr:   -0.322496594516304     
 End minimization
 Ecorr=   1501.38602692677     
 A_corr= -0.322496594516304     
 Ecorr_band=  -1501.70852352129     
 End Solvation calculations
RMM:   5    -0.136096272283E+03    0.17491E-04   -0.52445E-05  3289   0.307E-02    0.294E-02
 Begin Solvation calculations
  rms_SCF =   2.171449380516760E-003 tol =   2.171449380516760E-004
 Begin minimization
 Creating dielectric and ionic cavities
  area:      154.122634507594     
  volume:    682.892091151000     
  Acav:     8.091438311648699E-002
  Solving linear dielectric/ionic screening model
        iter                  A_solv                     rms
   LPB:       -0.403600872205137E+00   0.671772345406638E-01
   LPB:    0  -0.403600149137252E+00   0.639164367502825E-01  -0.210362E-03   0.000000E+00   0.326793E+02  -0.687450E-02
   LPB:    1  -0.403581135582168E+00   0.957691683496698E-02   0.947496E-02   0.000000E+00   0.986600E+02   0.109391E-18
   LPB:    2  -0.403578188852138E+00   0.380749098871729E-02   0.182381E-01   0.805146E-01   0.271977E+03  -0.408757E-16
   LPB:    3  -0.403577561197593E+00   0.281472563227950E-02   0.214539E-01   0.181073E+00   0.192873E+03  -0.171874E-16
   LPB:    4  -0.403577299777266E+00   0.155752823985515E-02   0.251368E-01   0.355481E+00   0.147436E+03  -0.370289E-16
   LPB:    5  -0.403577170383623E+00   0.868920540365645E-03   0.247349E-01   0.503005E+00   0.468866E+03  -0.723281E-16
   LPB:    6  -0.403577067533302E+00   0.371831930361227E-03   0.343162E-01   0.572932E+00   0.323641E+03  -0.903371E-16
   LPB:    7  -0.403576990917165E+00   0.324468699842825E-03   0.406925E-01   0.628203E+00   0.435823E+03  -0.108466E-15
   LPB:    8  -0.403576938872179E+00   0.260436463910933E-03   0.378433E-01   0.730439E+00   0.222172E+03  -0.121966E-15
   LPB:    9  -0.403576903547102E+00   0.234734056892211E-03   0.364062E-01   0.705534E+00   0.433988E+03  -0.131792E-15
   LPB:   10  -0.403576880071580E+00   0.190013962257899E-03   0.361243E-01   0.669742E+00   0.298463E+03  -0.139900E-15
  Finished solving LPB equations
  A_corr:   -0.322662496955093     
 End minimization
 Ecorr=   1501.25822271416     
 A_corr= -0.322662496955093     
 Ecorr_band=  -1501.58088521111     
 End Solvation calculations
RMM:   6    -0.136096293661E+03   -0.21378E-04   -0.67416E-05  3772   0.404E-02    0.225E-02
 Begin Solvation calculations
  rms_SCF =   2.171449380516760E-003 tol =   2.171449380516760E-004
 Begin minimization
 Creating dielectric and ionic cavities
  area:      154.125576526842     
  volume:    682.893559470505     
  Acav:     8.091592767659186E-002
  Solving linear dielectric/ionic screening model
        iter                  A_solv                     rms
   LPB:       -0.403837089828263E+00   0.577197348489715E-01
   LPB:    0  -0.403836061349875E+00   0.523960286829826E-01  -0.250886E-03   0.000000E+00   0.326793E+02  -0.819877E-02
   LPB:    1  -0.403822271689073E+00   0.112187224971703E-01   0.120076E-01   0.000000E+00   0.633813E+02   0.197492E-18
   LPB:    2  -0.403819902331083E+00   0.285085872612955E-02   0.139282E-01   0.148128E+00   0.256996E+03  -0.162008E-15
   LPB:    3  -0.403819417518120E+00   0.202101235120548E-02   0.207274E-01   0.137497E+00   0.281408E+03  -0.185950E-15
   LPB:    4  -0.403819246082869E+00   0.162574719593720E-02   0.238463E-01   0.307363E+00   0.137956E+03  -0.187182E-15
   LPB:    5  -0.403819165077618E+00   0.837827943558835E-03   0.236559E-01   0.476316E+00   0.213520E+03  -0.171837E-15
   LPB:    6  -0.403819113729868E+00   0.310132066421431E-03   0.305144E-01   0.491408E+00   0.225798E+03  -0.167625E-15
   LPB:    7  -0.403819077590506E+00   0.217614579216376E-03   0.370241E-01   0.580068E+00   0.272622E+03  -0.149557E-15
   LPB:    8  -0.403819049565739E+00   0.166525906235697E-03   0.394514E-01   0.727754E+00   0.250723E+03  -0.136851E-15
  Finished solving LPB equations
  A_corr:   -0.322903121889147     
 End minimization
 Ecorr=   1501.13095015319     
 A_corr= -0.322903121889147     
[...]
  A_corr:   -0.359088846923429     
 End minimization
 Ecorr=   1496.27224120539     
 A_corr= -0.359088846923429     
 Ecorr_band=  -1496.63133005232     
 End Solvation calculations
DAV:   1    -0.136112283104E+03    0.43205E-06   -0.30786E-03  4563   0.107E-01    0.138E-02
 Begin Solvation calculations
  rms_SCF =   1.108425488537274E-003 tol =   1.108425488537274E-004
 Begin minimization
 Creating dielectric and ionic cavities
  area:      154.698745106616     
  volume:    681.339559576065     
  Acav:     8.121684118097315E-002
  Solving linear dielectric/ionic screening model
        iter                  A_solv                     rms
   LPB:       -0.440260741243846E+00   0.807587163284118E-02
   LPB:    0  -0.440260682759604E+00   0.630740027296659E-02   0.597606E-04   0.000000E+00   0.327521E+02   0.195729E-02
   LPB:    1  -0.440260139428290E+00   0.319845379724280E-02   0.145114E-01   0.000000E+00   0.113075E+03   0.452681E-19
   LPB:    2  -0.440260010683521E+00   0.948714295171910E-03   0.142653E-01   0.241043E+00   0.229571E+03   0.320895E-18
   LPB:    3  -0.440259966143555E+00   0.651268677061053E-03   0.255749E-01   0.192968E+00   0.292929E+03  -0.592953E-18
   LPB:    4  -0.440259948964641E+00   0.541308912342886E-03   0.254157E-01   0.388113E+00   0.194091E+03   0.337863E-18
   LPB:    5  -0.440259938821285E+00   0.307870223073702E-03   0.245662E-01   0.610873E+00   0.258089E+03  -0.425450E-17
   LPB:    6  -0.440259931170952E+00   0.155027796595604E-03   0.335232E-01   0.552702E+00   0.312595E+03  -0.843082E-17
   LPB:    7  -0.440259925808163E+00   0.918435220419520E-04   0.400742E-01   0.586395E+00   0.821744E+03  -0.153731E-16
  Finished solving LPB equations
  A_corr:   -0.359043084627190     
 End minimization
 Ecorr=   1496.28464169185     
 A_corr= -0.359043084627190     
 Ecorr_band=  -1496.64368477648     
 End Solvation calculations
RMM:   2    -0.136112299369E+03   -0.16265E-04   -0.17639E-04  3526   0.266E-02    0.103E-02
 Begin Solvation calculations
  rms_SCF =   1.108425488537274E-003 tol =   1.108425488537274E-004
 Begin minimization
 Creating dielectric and ionic cavities
  area:      154.697683325678     
  volume:    681.339246023638     
  Acav:     8.121628374598111E-002
  Solving linear dielectric/ionic screening model
        iter                  A_solv                     rms
   LPB:       -0.440253034250636E+00   0.128038777205595E-01
   LPB:    0  -0.440253034247474E+00   0.128040759524172E-01  -0.439430E-06   0.000000E+00   0.327521E+02  -0.143923E-04
   LPB:    1  -0.440252532935468E+00   0.119298878481548E-02   0.904810E-02   0.000000E+00   0.747007E+02  -0.105143E-21
   LPB:    2  -0.440252482990957E+00   0.247358784040319E-03   0.164562E-01   0.547783E-01   0.176864E+03  -0.711237E-19
   LPB:    3  -0.440252474131863E+00   0.125908154610184E-03   0.247783E-01   0.117803E+00   0.318965E+03  -0.216564E-18
   LPB:    4  -0.440252470803439E+00   0.994880599726298E-04   0.320284E-01   0.290661E+00   0.488977E+03  -0.158486E-17
  Finished solving LPB equations
  A_corr:   -0.359036187057458     
 End minimization
 Ecorr=   1496.28612639286     
 A_corr= -0.359036187057458     
 Ecorr_band=  -1496.64516257992     
 End Solvation calculations
RMM:   3    -0.136112297112E+03    0.22567E-05   -0.10856E-05  2209   0.138E-02
 Begin Solvation calculations
  rms_SCF =   1.108425488537274E-003 tol =   1.108425488537274E-004
 Begin minimization
 Creating dielectric and ionic cavities
  area:      154.698051792167     
  volume:    681.339721133394     
  Acav:     8.121647719088791E-002
  Solving linear dielectric/ionic screening model
        iter                  A_solv                     rms
   LPB:       -0.440243407210989E+00   0.106796049946831E-01
   LPB:    0  -0.440243402175223E+00   0.106047140415391E-01   0.175359E-04   0.000000E+00   0.327521E+02   0.574338E-03
   LPB:    1  -0.440243060732708E+00   0.115308530151449E-02   0.907612E-02   0.000000E+00   0.735798E+02  -0.501552E-19
   LPB:    2  -0.440243017803649E+00   0.212135937635990E-03   0.180559E-01   0.631996E-01   0.130677E+03  -0.189443E-17
   LPB:    3  -0.440243011686787E+00   0.129690847554021E-03   0.243109E-01   0.105827E+00   0.308246E+03  -0.744337E-18
   LPB:    4  -0.440243008939524E+00   0.857710639202718E-04   0.312968E-01   0.348877E+00   0.445577E+03  -0.949243E-18
  Finished solving LPB equations
  A_corr:   -0.359026531748636     
 End minimization
 Ecorr=   1496.28698128699     
 A_corr= -0.359026531748636     
 Ecorr_band=  -1496.64600781874     
 End Solvation calculations
  71 F= -.13611230E+03 E0= -.13611952E+03  d E =-.144144E-04
quench:  g(F)=  0.000E+00 g(S)=  0.000E+00 dE (1.order)= 0.000E+00
 bond charge predicted
       N       E                     dE             d eps       ncg     rms          rms(c)
 Begin Solvation calculations
  rms_SCF =   1.108425488537274E-003 tol =   1.108425488537274E-004
 Begin minimization
 Creating dielectric and ionic cavities
  area:      154.702435404664     
  volume:    681.337433335944     
  Acav:     8.121877858744883E-002
  Solving linear dielectric/ionic screening model
        iter                  A_solv                     rms
   LPB:       -0.440309463534414E+00   0.587712900242444E-03
   LPB:    0  -0.440309463533611E+00   0.590052026577561E-03  -0.221446E-06   0.000000E+00   0.327522E+02  -0.725285E-05
   LPB:    1  -0.440275083577155E+00   0.234009174024447E-03   0.167269E-01   0.000000E+00   0.674814E+06   0.314081E-21
   LPB:    2  -0.440270361773497E+00   0.218539941670401E-03   0.280319E-01   0.819531E-01   0.204059E+06  -0.176225E-17
   LPB:    3  -0.440268845570185E+00   0.435121507678653E-03   0.325549E-01   0.276494E+00   0.681834E+05  -0.191975E-17
   LPB:    4  -0.440268188349457E+00   0.117010253199676E-02   0.356481E-01   0.395853E+00   0.722896E+04  -0.187923E-17
   LPB:    5  -0.440267878594014E+00   0.283491743857918E-02   0.330887E-01   0.507767E+00   0.579405E+03  -0.197799E-17
   LPB:    6  -0.440267738359926E+00   0.214980754490869E-02   0.194030E-01   0.772050E+00   0.172415E+03  -0.209179E-17
   LPB:    7  -0.440267608869603E+00   0.487461466107256E-03   0.272091E-01   0.658473E+00   0.560036E+03  -0.254845E-17
   LPB:    8  -0.440267521596242E+00   0.135397795281064E-03   0.384334E-01   0.477144E+00   0.647490E+04  -0.296273E-17
   LPB:    9  -0.440267468443977E+00   0.164193864660825E-03   0.393973E-01   0.594132E+00   0.773433E+04  -0.302932E-17
   LPB:   10  -0.440267436037540E+00   0.229998864851868E-03   0.380758E-01   0.630851E+00   0.278223E+04  -0.317388E-17
   LPB:   11  -0.440267415789731E+00   0.285428372721929E-03   0.348639E-01   0.682369E+00   0.129773E+04  -0.297684E-17
   LPB:   12  -0.440267402647400E+00   0.329009838224534E-03   0.322624E-01   0.701413E+00   0.538576E+03  -0.418483E-17
   LPB:   13  -0.440267394020566E+00   0.369617168035307E-03   0.305450E-01   0.693323E+00   0.299655E+03  -0.455328E-17
   LPB:   14  -0.440267388138650E+00   0.260206918862948E-03   0.279344E-01   0.745536E+00   0.210650E+03  -0.373525E-17
   LPB:   15  -0.440267383674990E+00   0.111869620118988E-03   0.311657E-01   0.680197E+00   0.510524E+03  -0.566128E-17
   LPB:   16  -0.440267380239011E+00   0.568884323192797E-04   0.390311E-01   0.614647E+00   0.157410E+04  -0.750680E-17
  Finished solving LPB equations
  A_corr:   -0.359048601651562     
 End minimization
 Ecorr=   1496.28485314885     
 A_corr= -0.359048601651562     
 Ecorr_band=  -1496.64390175050     
 End Solvation calculations
DAV:   1    -0.136112292661E+03    0.67076E-05   -0.39422E-03  4794   0.122E-01    0.160E-02
 Begin Solvation calculations
  rms_SCF =   1.108425488537274E-003 tol =   1.108425488537274E-004
 Begin minimization
 Creating dielectric and ionic cavities
  area:      154.695068366164     
  volume:    681.333897562162     
  Acav:     8.121491089223586E-002
  Solving linear dielectric/ionic screening model
        iter                  A_solv                     rms
   LPB:       -0.440314859024049E+00   0.190812040330110E-01
   LPB:    0  -0.440314762346111E+00   0.180929058042616E-01  -0.768347E-04   0.000000E+00   0.327524E+02  -0.251652E-02
   LPB:    1  -0.440313338823319E+00   0.345897730829841E-02   0.103625E-01   0.000000E+00   0.794084E+02   0.733667E-19
   LPB:    2  -0.440312987294959E+00   0.531593135440009E-03   0.179116E-01   0.142865E+00   0.213134E+03  -0.415011E-17
   LPB:    3  -0.440312917793437E+00   0.387729365705183E-03   0.285137E-01   0.124198E+00   0.664571E+03  -0.312681E-18
   LPB:    4  -0.440312894494468E+00   0.431532416429935E-03   0.259398E-01   0.368493E+00   0.466552E+03   0.910664E-18
   LPB:    5  -0.440312882850856E+00   0.405484709820800E-03   0.256023E-01   0.506337E+00   0.275327E+03   0.331241E-17
   LPB:    6  -0.440312876112167E+00   0.267881137922204E-03   0.266956E-01   0.555043E+00   0.161696E+03   0.479819E-17
   LPB:    7  -0.440312871668309E+00   0.133447520883143E-03   0.310661E-01   0.566680E+00   0.304202E+03   0.575188E-17
   LPB:    8  -0.440312868737323E+00   0.684182003055202E-04   0.356827E-01   0.574225E+00   0.630276E+03   0.179386E-17
  Finished solving LPB equations
  A_corr:   -0.359097957845088     
 End minimization
 Ecorr=   1496.27330081775     
 A_corr= -0.359097957845088     
 Ecorr_band=  -1496.63239877560     
 End Solvation calculations
RMM:   2    -0.136112320257E+03   -0.27596E-04   -0.24112E-04  3672   0.294E-02    0.244E-02
 Begin Solvation calculations
  rms_SCF =   1.108425488537274E-003 tol =   1.108425488537274E-004
 Begin minimization
 Creating dielectric and ionic cavities
  area:      154.695917510146     
  volume:    681.334453055775     
  Acav:     8.121535669282667E-002
  Solving linear dielectric/ionic screening model
        iter                  A_solv                     rms
   LPB:       -0.440335165364290E+00   0.246952854960197E-01
   LPB:    0  -0.440335165343487E+00   0.246938411019130E-01  -0.112709E-05   0.000000E+00   0.327523E+02  -0.369148E-04
   LPB:    1  -0.440333374546464E+00   0.233108773197905E-02   0.891465E-02   0.000000E+00   0.738848E+02  -0.122496E-20
   LPB:    2  -0.440333217333333E+00   0.479528862744606E-03   0.164318E-01   0.476280E-01   0.142241E+03  -0.597592E-18
   LPB:    3  -0.440333194197526E+00   0.293986353024317E-03   0.235363E-01   0.102740E+00   0.217975E+03   0.107443E-18
   LPB:    4  -0.440333186388032E+00   0.240951005276650E-03   0.286506E-01   0.277296E+00   0.231006E+03  -0.226565E-17
   LPB:    5  -0.440333182908548E+00   0.204977278274774E-03   0.251749E-01   0.507058E+00   0.264375E+03  -0.337170E-17
   LPB:    6  -0.440333180798754E+00   0.129848197159153E-03   0.268401E-01   0.568734E+00   0.210801E+03  -0.443431E-17
   LPB:    7  -0.440333179396771E+00   0.780036023122358E-04   0.308890E-01   0.577408E+00   0.374509E+03  -0.443232E-17
  Finished solving LPB equations
  A_corr:   -0.359117822703944     
 End minimization
 Ecorr=   1496.26846456485     
 A_corr= -0.359117822703944     
 Ecorr_band=  -1496.62758238756     
 End Solvation calculations
RMM:   3    -0.136112313055E+03    0.72019E-05   -0.14492E-05  2456   0.124E-02
 Begin Solvation calculations
  rms_SCF =   1.108425488537274E-003 tol =   1.108425488537274E-004
 Begin minimization
 Creating dielectric and ionic cavities
  area:      154.695840300510     
  volume:    681.334809841985     
  Acav:     8.121531615776774E-002
  Solving linear dielectric/ionic screening model
        iter                  A_solv                     rms
   LPB:       -0.440340291464003E+00   0.837155428114494E-02
   LPB:    0  -0.440340289376390E+00   0.832996557078764E-02  -0.112906E-04   0.000000E+00   0.327523E+02  -0.369795E-03
   LPB:    1  -0.440340064187435E+00   0.956901381947703E-03   0.929222E-02   0.000000E+00   0.750679E+02   0.268456E-19
   LPB:    2  -0.440340029423570E+00   0.203374518791010E-03   0.184334E-01   0.778206E-01   0.160658E+03  -0.215807E-18
   LPB:    3  -0.440340023115186E+00   0.151600545333665E-03   0.268043E-01   0.124793E+00   0.312397E+03   0.570137E-18
   LPB:    4  -0.440340020439198E+00   0.106903135822037E-03   0.284041E-01   0.400304E+00   0.386672E+03   0.128572E-17
  Finished solving LPB equations
  A_corr:   -0.359124704281430     
 End minimization
 Ecorr=   1496.26651701414     
 A_corr= -0.359124704281430     
 Ecorr_band=  -1496.62564171842     
 End Solvation calculations
  72 F= -.13611231E+03 E0= -.13611953E+03  d E =-.159429E-04
quench:  g(F)=  0.000E+00 g(S)=  0.000E+00 dE (1.order)= 0.000E+00
 bond charge predicted
       N       E                     dE             d eps       ncg     rms          rms(c)
 Begin Solvation calculations
  rms_SCF =   1.108425488537274E-003 tol =   1.108425488537274E-004
 Begin minimization
 Creating dielectric and ionic cavities
  area:      154.694952765681     
  volume:    681.330108125264     
  Acav:     8.121485020198269E-002
  Solving linear dielectric/ionic screening model
        iter                  A_solv                     rms
   LPB:       -0.440393949063820E+00   0.607516760140202E-03
   LPB:    0  -0.440393949060834E+00   0.610498979439708E-03  -0.427008E-06   0.000000E+00   0.327526E+02  -0.139856E-04
   LPB:    1  -0.440359841254682E+00   0.210091257181790E-03   0.161631E-01   0.000000E+00   0.673361E+06   0.804003E-21
   LPB:    2  -0.440355681255268E+00   0.141732270169180E-03   0.274215E-01   0.718909E-01   0.227233E+06  -0.259195E-18
   LPB:    3  -0.440354365668443E+00   0.229133452183737E-03   0.325498E-01   0.266422E+00   0.106586E+06  -0.427582E-19
   LPB:    4  -0.440353799816174E+00   0.490816938377495E-03   0.357277E-01   0.391856E+00   0.160239E+05   0.621169E-18
   LPB:    5  -0.440353519542579E+00   0.120699329734195E-02   0.365788E-01   0.483788E+00   0.208659E+04   0.241858E-18
   LPB:    6  -0.440353387784050E+00   0.209877398516246E-02   0.292827E-01   0.587239E+00   0.274040E+03  -0.452796E-17
   LPB:    7  -0.440353309469298E+00   0.121546427253843E-02   0.207848E-01   0.837394E+00   0.199515E+03  -0.378525E-17
   LPB:    8  -0.440353247952324E+00   0.980202140995189E-03   0.288404E-01   0.566103E+00   0.449255E+03  -0.867312E-17
   LPB:    9  -0.440353214391747E+00   0.935063678397180E-03   0.249055E-01   0.631744E+00   0.173290E+03  -0.125281E-16
   LPB:   10  -0.440353186900711E+00   0.330291750473745E-03   0.268905E-01   0.758679E+00   0.310235E+03  -0.155568E-16
   LPB:   11  -0.440353166917246E+00   0.106750109617019E-03   0.372394E-01   0.524899E+00   0.148331E+04  -0.263472E-16
  Finished solving LPB equations
  A_corr:   -0.359138316715263     
 End minimization
 Ecorr=   1496.26355974883     
 A_corr= -0.359138316715263     
 Ecorr_band=  -1496.62269806555     
 End Solvation calculations
DAV:   1    -0.136112306987E+03    0.13270E-04   -0.32755E-03  4431   0.996E-02    0.169E-02
 Begin Solvation calculations
  rms_SCF =   1.108425488537274E-003 tol =   1.108425488537274E-004
 Begin minimization
 Creating dielectric and ionic cavities
  area:      154.699548099184     
  volume:    681.335740993484     
  Acav:     8.121726275207182E-002
  Solving linear dielectric/ionic screening model
        iter                  A_solv                     rms
   LPB:       -0.440276336914225E+00   0.127501534171909E-01
   LPB:    0  -0.440276175246446E+00   0.972584559346059E-02   0.993587E-04   0.000000E+00   0.327523E+02   0.325422E-02
   LPB:    1  -0.440274951120937E+00   0.465829656727459E-02   0.141344E-01   0.000000E+00   0.112686E+03  -0.343612E-20
   LPB:    2  -0.440274730590895E+00   0.124961735506462E-02   0.144070E-01   0.176744E+00   0.176110E+03   0.448013E-17
   LPB:    3  -0.440274644333520E+00   0.727551294547166E-03   0.226548E-01   0.248738E+00   0.539966E+03   0.511714E-18
   LPB:    4  -0.440274612599886E+00   0.763917994357026E-03   0.244633E-01   0.340698E+00   0.213428E+03  -0.121863E-17
   LPB:    5  -0.440274594511475E+00   0.422954870036165E-03   0.236134E-01   0.590522E+00   0.220679E+03  -0.200623E-18
   LPB:    6  -0.440274582144590E+00   0.195969975430229E-03   0.333267E-01   0.484426E+00   0.309215E+03   0.190503E-17
   LPB:    7  -0.440274574488467E+00   0.109467254857309E-03   0.364147E-01   0.566583E+00   0.915868E+03   0.441193E-17
  Finished solving LPB equations
  A_corr:   -0.359057311736396     
 End minimization
 Ecorr=   1496.27888379447     
 A_corr= -0.359057311736396     
 Ecorr_band=  -1496.63794110621     
 End Solvation calculations
RMM:   2    -0.136112326759E+03   -0.19772E-04   -0.22682E-04  3593   0.271E-02    0.151E-02
 Begin Solvation calculations
  rms_SCF =   1.108425488537274E-003 tol =   1.108425488537274E-004
 Begin minimization
 Creating dielectric and ionic cavities
  area:      154.698936089151     
  volume:    681.334650357198     
  Acav:     8.121694144680437E-002
  Solving linear dielectric/ionic screening model
        iter                  A_solv                     rms
   LPB:       -0.440273739085328E+00   0.123726496683810E-01
   LPB:    0  -0.440273738903571E+00   0.123682326029515E-01  -0.333149E-05   0.000000E+00   0.327523E+02  -0.109114E-03
   LPB:    1  -0.440273274888654E+00   0.120518551665614E-02   0.900485E-02   0.000000E+00   0.747971E+02  -0.159499E-20
   LPB:    2  -0.440273223783860E+00   0.306262650698403E-03   0.177164E-01   0.559796E-01   0.151048E+03  -0.122568E-17
   LPB:    3  -0.440273214239090E+00   0.247175320375270E-03   0.245335E-01   0.134872E+00   0.232564E+03  -0.131179E-17
   LPB:    4  -0.440273209908729E+00   0.225349950293888E-03   0.297190E-01   0.374528E+00   0.231384E+03  -0.175175E-17
   LPB:    5  -0.440273207009355E+00   0.203223576385963E-03   0.301514E-01   0.659943E+00   0.233131E+03  -0.200621E-17
   LPB:    6  -0.440273204348188E+00   0.125001643992377E-03   0.317324E-01   0.872111E+00   0.336714E+03  -0.175319E-17
   LPB:    7  -0.440273202061843E+00   0.816748988610372E-04   0.366027E-01   0.744835E+00   0.556918E+03  -0.174718E-17
  Finished solving LPB equations
  A_corr:   -0.359056260615039     
 End minimization
 Ecorr=   1496.28138482330     
 A_corr= -0.359056260615039     
 Ecorr_band=  -1496.64044108391     
 End Solvation calculations
RMM:   3    -0.136112323939E+03    0.28205E-05   -0.10446E-05  2292   0.129E-02
 Begin Solvation calculations
  rms_SCF =   1.108425488537274E-003 tol =   1.108425488537274E-004
 Begin minimization
 Creating dielectric and ionic cavities
  area:      154.698144905758     
  volume:    681.334781156639     
  Acav:     8.121652607552303E-002
  Solving linear dielectric/ionic screening model
        iter                  A_solv                     rms
   LPB:       -0.440254324405141E+00   0.141485077850845E-01
   LPB:    0  -0.440254322125080E+00   0.141067076562406E-01   0.117996E-04   0.000000E+00   0.327523E+02   0.386464E-03
   LPB:    1  -0.440253716314064E+00   0.129518384822812E-02   0.900772E-02   0.000000E+00   0.749210E+02  -0.141521E-19
   LPB:    2  -0.440253662079481E+00   0.286338256843491E-03   0.159612E-01   0.505229E-01   0.172433E+03  -0.397784E-17
   LPB:    3  -0.440253652394390E+00   0.197154536198717E-03   0.251435E-01   0.113362E+00   0.253572E+03  -0.228945E-17
   LPB:    4  -0.440253648688573E+00   0.177298613114546E-03   0.292329E-01   0.329105E+00   0.235405E+03  -0.797639E-18
   LPB:    5  -0.440253646907662E+00   0.147001338236845E-03   0.251740E-01   0.558055E+00   0.283518E+03  -0.281691E-17
   LPB:    6  -0.440253645706605E+00   0.102219793384371E-03   0.289292E-01   0.586865E+00   0.210312E+03  -0.295047E-17
  Finished solving LPB equations
  A_corr:   -0.359037119631082     
 End minimization
 Ecorr=   1496.28554612715     
 A_corr= -0.359037119631082     
 Ecorr_band=  -1496.64458324678     
 End Solvation calculations
  73 F= -.13611232E+03 E0= -.13611954E+03  d E =-.108834E-04
quench:  g(F)=  0.000E+00 g(S)=  0.000E+00 dE (1.order)= 0.000E+00
 reached required accuracy - stopping structural energy minimisation
