 vasp.5.4.4.18Apr17-6-g9f103f2a35 (build Feb 06 2024 13:54:16) complex          
  
 POSCAR found type information on POSCAR  Ru N  O 
 04/POSCAR found :  3 types and      40 ions
 scaLAPACK will be used

 ----------------------------------------------------------------------------- 
|                                                                             |
|  ADVICE TO THIS USER RUNNING 'VASP/VAMP'   (HEAR YOUR MASTER'S VOICE ...):  |
|                                                                             |
|      You enforced a specific xc-type in the INCAR file,                     |
|      a different type was found on the POTCAR file                          |
|          I HOPE YOU KNOW, WHAT YOU ARE  DOING                               |
|                                                                             |
 ----------------------------------------------------------------------------- 

 LDA part: xc-table for Pade appr. of Perdew
 POSCAR found type information on POSCAR  Ru N  O 
 00/POSCAR found :  3 types and      40 ions
 POSCAR found type information on POSCAR  Ru N  O 
 06/POSCAR found :  3 types and      40 ions
 Jacobian:    20.4921819155783     
 POSCAR, INCAR and KPOINTS ok, starting setup
 FFT: planning ...
 WAVECAR not read
 entering main loop
       N       E                     dE             d eps       ncg     rms          rms(c)
  Solvation turned off during non-self-consistent phase (first NELMDL steps)
DAV:   1     0.590816144625E+04    0.59082E+04   -0.33068E+05 18783   0.163E+03
DAV:   2    -0.804076454397E+02   -0.59886E+04   -0.57758E+04 16341   0.480E+02
DAV:   3    -0.331059726902E+03   -0.25065E+03   -0.23536E+03 20493   0.887E+01
DAV:   4    -0.342471248060E+03   -0.11412E+02   -0.11101E+02 19062   0.145E+01
DAV:   5    -0.342902515138E+03   -0.43127E+00   -0.42509E+00 21510   0.255E+00    0.665E+01
 Begin Solvation calculations
  rms_SCF =    5.46810464023194      tol =   0.546810464023194     
 Begin minimization
 Creating dielectric and ionic cavities
  area:      159.567743853621     
  volume:    749.212087807239     
  Acav:     8.377306552315091E-002
  Solving linear dielectric/ionic screening model
        iter                  A_solv                     rms
   LPB:       -0.744584594487163E+03   0.375889858848835E+03
   LPB:    0  -0.200575647662689E+01   0.839439495526028E+01  -0.719816E+01   0.000000E+00   0.286635E+02  -0.206324E+03
   LPB:    1  -0.544886140006497E+00   0.456517691539473E+01   0.140568E-01   0.000000E+00   0.208667E+03  -0.126211E-13
   LPB:    2  -0.330990533953241E+00   0.170283029286765E+01   0.150968E-01   0.136330E+00   0.809265E+02  -0.164617E-13
   LPB:    3  -0.224813176038992E+00   0.886957203839766E+00   0.245359E-01   0.305432E+00   0.788422E+02  -0.195499E-13
   LPB:    4  -0.181202712733125E+00   0.101949995202805E+01   0.247086E-01   0.407861E+00   0.288947E+03  -0.168173E-13
   LPB:    5  -0.155956510820602E+00   0.339211499421658E+00   0.244644E-01   0.584682E+00   0.462607E+02  -0.117977E-13
  Finished solving LPB equations
  A_corr:   -7.218344529745067E-002
 End minimization
 Ecorr=   3672.76132184402     
 A_corr= -7.218344529745067E-002
 Ecorr_band=  -3672.83350528932     
 End Solvation calculations
RMM:   6    -0.326828447005E+03    0.16074E+02   -0.99670E+01 15276   0.194E+01    0.305E+01
 Begin Solvation calculations
  rms_SCF =    5.46810464023194      tol =   0.546810464023194     
 Begin minimization
 Creating dielectric and ionic cavities
  area:      155.786912160434     
  volume:    736.405304178593     
  Acav:     8.178812888422789E-002
  Solving linear dielectric/ionic screening model
        iter                  A_solv                     rms
   LPB:       -0.501160158942551E+01   0.402234080911535E+02
   LPB:    0  -0.174472642207975E+01   0.169226592915562E+02  -0.472515E+00   0.000000E+00   0.292639E+02  -0.138276E+02
   LPB:    1  -0.381573788956773E+00   0.183164378611150E+01   0.106860E-01   0.000000E+00   0.488940E+02  -0.686033E-15
   LPB:    2  -0.298539103047642E+00   0.850443409759867E+00   0.163264E-01   0.398695E-01   0.978073E+02   0.335381E-13
   LPB:    3  -0.264192644198308E+00   0.117053711508725E+01   0.264122E-01   0.255687E+00   0.846931E+02   0.395776E-13
   LPB:    4  -0.234032212356154E+00   0.772043381309605E+00   0.246699E-01   0.940142E+00   0.437109E+02   0.423204E-13
   LPB:    5  -0.215896318636918E+00   0.214985455186228E+00   0.264501E-01   0.560842E+00   0.871518E+02   0.517729E-13
  Finished solving LPB equations
  A_corr:   -0.134108189752691     
 End minimization
 Ecorr=   3688.22352730672     
 A_corr= -0.134108189752691     
 Ecorr_band=  -3688.35763549647     
 End Solvation calculations
RMM:   7    -0.411896611059E+03   -0.85068E+02   -0.15144E+02 15729   0.180E+01    0.850E+01
 Begin Solvation calculations
  rms_SCF =    5.46810464023194      tol =   0.546810464023194     
 Begin minimization
 Creating dielectric and ionic cavities
  area:      144.188313033987     
  volume:    754.161764503925     
  Acav:     7.569886434284336E-002
  Solving linear dielectric/ionic screening model
        iter                  A_solv                     rms
   LPB:       -0.611362555591480E+01   0.420583480921427E+02
   LPB:    0  -0.118069257954769E+01   0.147730130122344E+02   0.589072E+00   0.000000E+00   0.284314E+02   0.167482E+02
   LPB:    1  -0.214370651203974E+00   0.111640058908125E+01   0.977983E-02   0.000000E+00   0.638173E+02   0.279274E-15
   LPB:    2  -0.193627322986155E+00   0.570291548228319E+00   0.121785E-01   0.172383E-01   0.139991E+03   0.221742E-13
   LPB:    3  -0.189163150298363E+00   0.268180119746658E+00   0.195594E-01   0.133998E+00   0.897446E+02   0.231489E-13
   LPB:    4  -0.185453707599587E+00   0.128267832906484E+00   0.336896E-01   0.482422E+00   0.320754E+03   0.228546E-13
  Finished solving LPB equations
  A_corr:   -0.109754843256743     
 End minimization
 Ecorr=   3478.23684184914     
 A_corr= -0.109754843256743     
 Ecorr_band=  -3478.34659669240     
 End Solvation calculations
RMM:   8    -0.319501210189E+03    0.92395E+02   -0.41582E+01 15264   0.985E+00    0.125E+01
 Begin Solvation calculations
  rms_SCF =    5.46810464023194      tol =   0.546810464023194     
 Begin minimization
 Creating dielectric and ionic cavities
  area:      144.893543074323     
  volume:    750.569087535686     
  Acav:     7.606911011401944E-002
  Solving linear dielectric/ionic screening model
        iter                  A_solv                     rms
   LPB:       -0.506065497195039E+01   0.397176814943083E+02
   LPB:    0  -0.500969855488893E+01   0.395783612315860E+02   0.596942E-01   0.000000E+00   0.285999E+02   0.170725E+01
   LPB:    1  -0.691649952484281E+00   0.369570788529420E+01   0.917635E-02   0.000000E+00   0.654670E+02   0.249038E-16
   LPB:    2  -0.348631349211145E+00   0.647234164414958E+00   0.161865E-01   0.450347E-01   0.125038E+03   0.837729E-15
   LPB:    3  -0.297574453813739E+00   0.260924814848920E+00   0.227243E-01   0.106023E+00   0.228323E+03   0.141449E-14
   LPB:    4  -0.283508809905184E+00   0.125600663364013E+00   0.287289E-01   0.217910E+00   0.249401E+03   0.709558E-15
  Finished solving LPB equations
  A_corr:   -0.207439699791165     
 End minimization
 Ecorr=   3447.76780701229     
 A_corr= -0.207439699791165     
 Ecorr_band=  -3447.97524671208     
 End Solvation calculations
RMM:   9    -0.330958132452E+03   -0.11457E+02   -0.13926E+01 15943   0.452E+00    0.306E+01
 Begin Solvation calculations
  rms_SCF =    5.46810464023194      tol =   0.546810464023194     
 Begin minimization
 Creating dielectric and ionic cavities
  area:      142.215683271998     
  volume:    749.190677646987     
  Acav:     7.466323371779908E-002
  Solving linear dielectric/ionic screening model
        iter                  A_solv                     rms
   LPB:       -0.360081228261188E+01   0.336399689496600E+02
   LPB:    0  -0.359688363299329E+01   0.336003689325179E+02  -0.165563E-01   0.000000E+00   0.286645E+02  -0.474579E+00
   LPB:    1  -0.506011636916425E+00   0.319346527991910E+01   0.912500E-02   0.000000E+00   0.656778E+02  -0.427828E-16
   LPB:    2  -0.256853855231850E+00   0.556292296570390E+00   0.165836E-01   0.443556E-01   0.115193E+03  -0.551770E-14
   LPB:    3  -0.222592434916927E+00   0.177624930388464E+00   0.213787E-01   0.106666E+00   0.232411E+03  -0.351456E-14
   LPB:    4  -0.214340899116919E+00   0.965612978529391E-01   0.274831E-01   0.187346E+00   0.283737E+03  -0.299856E-14
  Finished solving LPB equations
  A_corr:   -0.139677665399120     
 End minimization
 Ecorr=   3431.10896172976     
 A_corr= -0.139677665399120     
 Ecorr_band=  -3431.24863939516     
 End Solvation calculations
RMM:  10    -0.318469973117E+03    0.12488E+02   -0.33644E+00 15416   0.238E+00    0.824E+00
 Begin Solvation calculations
  rms_SCF =    5.46810464023194      tol =   0.546810464023194     
 Begin minimization
 Creating dielectric and ionic cavities
  area:      138.576703363764     
  volume:    747.123656703073     
  Acav:     7.275276926597593E-002
  Solving linear dielectric/ionic screening model
        iter                  A_solv                     rms
   LPB:       -0.300755977264919E+00   0.478850673508443E+01
   LPB:    0  -0.298868715507497E+00   0.479770372239118E+01   0.114558E-01   0.000000E+00   0.287614E+02   0.329485E+00
   LPB:    1  -0.231165472432759E+00   0.404298245122859E+00   0.925671E-02   0.000000E+00   0.683156E+02  -0.461136E-18
   LPB:    2  -0.225120601101932E+00   0.106568598408695E+00   0.167861E-01   0.492361E-01   0.169960E+03  -0.101391E-14
   LPB:    3  -0.222752910567061E+00   0.155579527513212E+00   0.323944E-01   0.202963E+00   0.330292E+03  -0.137294E-14
   LPB:    4  -0.219827115073102E+00   0.145073739875915E+00   0.562804E-01   0.711266E+00   0.387855E+02  -0.160319E-14
  Finished solving LPB equations
  A_corr:   -0.147074345807127     
 End minimization
 Ecorr=   3408.53318698228     
 A_corr= -0.147074345807127     
 Ecorr_band=  -3408.68026132809     
 End Solvation calculations
RMM:  11    -0.317763232278E+03    0.70674E+00   -0.12194E+00 15468   0.160E+00    0.405E+00
 Begin Solvation calculations
  rms_SCF =    1.39726151092011      tol =   0.139726151092011     
 Begin minimization
 Creating dielectric and ionic cavities
  area:      138.380061388656     
  volume:    740.013524411061     
  Acav:     7.264953222904463E-002
  Solving linear dielectric/ionic screening model
        iter                  A_solv                     rms
   LPB:       -0.318003153456567E+00   0.264911607532686E+01
   LPB:    0  -0.317888221952977E+00   0.274340843094905E+01   0.281078E-02   0.000000E+00   0.290947E+02   0.817790E-01
   LPB:    1  -0.259460476499534E+00   0.810173682676890E+00   0.120573E-01   0.000000E+00   0.779448E+02   0.505491E-17
   LPB:    2  -0.252795343420802E+00   0.197805835385721E+00   0.141238E-01   0.973846E-01   0.137555E+03  -0.498625E-14
   LPB:    3  -0.249946281985077E+00   0.249707068552358E+00   0.274365E-01   0.220047E+00   0.223956E+03  -0.540927E-14
   LPB:    4  -0.247329697567060E+00   0.273639049636027E+00   0.316483E-01   0.796180E+00   0.444486E+02  -0.560362E-14
   LPB:    5  -0.243883711048119E+00   0.152925641566305E+00   0.381242E-01   0.109327E+01   0.915470E+02  -0.266846E-14
   LPB:    6  -0.241685285941773E+00   0.511157107133042E-01   0.324366E-01   0.749831E+00   0.518767E+02   0.282175E-14
  Finished solving LPB equations
  A_corr:   -0.169035753712728     
 End minimization
 Ecorr=   3363.01431738165     
 A_corr= -0.169035753712728     
 Ecorr_band=  -3363.18335313536     
 End Solvation calculations
RMM:  12    -0.317739931538E+03    0.23301E-01   -0.31572E-01 15452   0.865E-01    0.349E+00
 Begin Solvation calculations
  rms_SCF =    1.39726151092011      tol =   0.139726151092011     
 Begin minimization
 Creating dielectric and ionic cavities
  area:      138.448424784883     
  volume:    736.491556382930     
  Acav:     7.268542301206346E-002
  Solving linear dielectric/ionic screening model
        iter                  A_solv                     rms
   LPB:       -0.270473471647001E+00   0.652194609157236E+00
   LPB:    0  -0.269116153736318E+00   0.937714380762188E+00   0.963207E-02   0.000000E+00   0.292598E+02   0.281833E+00
   LPB:    1  -0.257120751878408E+00   0.383016107205605E+00   0.135045E-01   0.000000E+00   0.103442E+03  -0.229381E-16
   LPB:    2  -0.255362873608758E+00   0.135392193528966E+00   0.162951E-01   0.121450E+00   0.125267E+03  -0.229346E-14
   LPB:    3  -0.254662010368898E+00   0.105956784030144E+00   0.226410E-01   0.286950E+00   0.301813E+03  -0.275476E-14
   LPB:    4  -0.254045917123650E+00   0.143637506720122E+00   0.326284E-01   0.609975E+00   0.802138E+02  -0.321337E-14
   LPB:    5  -0.253235991616736E+00   0.115722661261946E+00   0.344703E-01   0.124437E+01   0.152122E+03  -0.280107E-14
  Finished solving LPB equations
  A_corr:   -0.180550568604672     
 End minimization
 Ecorr=   3345.14639979965     
 A_corr= -0.180550568604672     
 Ecorr_band=  -3345.32695036826     
 End Solvation calculations
RMM:  13    -0.317656899058E+03    0.83032E-01   -0.23244E-01 15307   0.761E-01    0.224E+00
 Begin Solvation calculations
  rms_SCF =    1.39726151092011      tol =   0.139726151092011     
 Begin minimization
 Creating dielectric and ionic cavities
  area:      139.262258040810     
  volume:    730.550444527470     
  Acav:     7.311268547142501E-002
  Solving linear dielectric/ionic screening model
        iter                  A_solv                     rms
   LPB:       -0.321260955031603E+00   0.105057172926485E+01
   LPB:    0  -0.317524816269230E+00   0.159876865437545E+01   0.159050E-01   0.000000E+00   0.295384E+02   0.469807E+00
   LPB:    1  -0.281515757266256E+00   0.569374103939114E+00   0.137016E-01   0.000000E+00   0.101380E+03  -0.403998E-16
   LPB:    2  -0.276853244320641E+00   0.153229595006076E+00   0.162273E-01   0.109329E+00   0.120988E+03  -0.172768E-13
   LPB:    3  -0.275157109327503E+00   0.115761515407276E+00   0.283409E-01   0.208291E+00   0.163749E+03  -0.168387E-13
   LPB:    4  -0.274090329727549E+00   0.225380382078119E+00   0.285649E-01   0.624017E+00   0.115374E+03  -0.169517E-13
   LPB:    5  -0.273182965504251E+00   0.155958588410153E+00   0.237945E-01   0.102109E+01   0.140420E+03  -0.170461E-13
   LPB:    6  -0.272227977818911E+00   0.635195105693685E-01   0.361585E-01   0.692599E+00   0.625951E+02  -0.169713E-13
  Finished solving LPB equations
  A_corr:   -0.199115292347486     
 End minimization
 Ecorr=   3314.56915463402     
 A_corr= -0.199115292347486     
 Ecorr_band=  -3314.76826992637     
 End Solvation calculations
RMM:  14    -0.317649374391E+03    0.75247E-02   -0.94835E-02 15359   0.496E-01    0.177E+00
 Begin Solvation calculations
  rms_SCF =    1.11323816614230      tol =   0.111323816614230     
 Begin minimization
 Creating dielectric and ionic cavities
  area:      139.738421135485     
  volume:    728.351508017594     
  Acav:     7.336267109612968E-002
  Solving linear dielectric/ionic screening model
        iter                  A_solv                     rms
   LPB:       -0.290094434896091E+00   0.438205463680651E+00
   LPB:    0  -0.289295429743514E+00   0.640888469931805E+00   0.734243E-02   0.000000E+00   0.296415E+02   0.217640E+00
   LPB:    1  -0.282513287797101E+00   0.311395177348755E+00   0.135226E-01   0.000000E+00   0.130346E+03  -0.360083E-17
   LPB:    2  -0.281497726236336E+00   0.102839958774459E+00   0.159920E-01   0.126618E+00   0.977170E+02  -0.229892E-15
   LPB:    3  -0.281129690864919E+00   0.818178038503740E-01   0.225401E-01   0.257116E+00   0.269540E+03   0.506417E-15
   LPB:    4  -0.280732012211992E+00   0.124138269578679E+00   0.359398E-01   0.677677E+00   0.691972E+02   0.791626E-15
   LPB:    5  -0.280082949862882E+00   0.100095645767873E+00   0.377830E-01   0.155251E+01   0.130075E+03   0.116025E-14
  Finished solving LPB equations
  A_corr:   -0.206720278766752     
 End minimization
 Ecorr=   3301.35824589563     
 A_corr= -0.206720278766752     
 Ecorr_band=  -3301.56496617439     
 End Solvation calculations
RMM:  15    -0.317621200721E+03    0.28174E-01   -0.52228E-02 15394   0.367E-01    0.931E-01
 Begin Solvation calculations
  rms_SCF =    1.11323816614230      tol =   0.111323816614230     
 Begin minimization
 Creating dielectric and ionic cavities
  area:      140.458546932386     
  volume:    725.289688720013     
  Acav:     7.374073713950240E-002
  Solving linear dielectric/ionic screening model
        iter                  A_solv                     rms
   LPB:       -0.313274757456542E+00   0.759419366173221E+00
   LPB:    0  -0.312027214559948E+00   0.103543779050910E+01   0.915259E-02   0.000000E+00   0.297850E+02   0.272610E+00
   LPB:    1  -0.295650775364001E+00   0.454615735355268E+00   0.136193E-01   0.000000E+00   0.121465E+03  -0.153148E-16
   LPB:    2  -0.293501864746498E+00   0.114651894370884E+00   0.153058E-01   0.116761E+00   0.893346E+02  -0.184195E-14
   LPB:    3  -0.292851680631295E+00   0.121963352237898E+00   0.254969E-01   0.181630E+00   0.214905E+03  -0.232996E-14
   LPB:    4  -0.292414106692362E+00   0.122508390336081E+00   0.239810E-01   0.715542E+00   0.863147E+02  -0.213004E-14
   LPB:    5  -0.291985643147073E+00   0.722477011043504E-01   0.289979E-01   0.809771E+00   0.230851E+03  -0.214421E-14
  Finished solving LPB equations
  A_corr:   -0.218244906007570     
 End minimization
 Ecorr=   3286.93226257317     
 A_corr= -0.218244906007570     
 Ecorr_band=  -3287.15050747918     
 End Solvation calculations
RMM:  16    -0.317625345075E+03   -0.41444E-02   -0.22570E-02 15515   0.214E-01    0.993E-01
 Begin Solvation calculations
  rms_SCF =    1.11323816614230      tol =   0.111323816614230     
 Begin minimization
 Creating dielectric and ionic cavities
  area:      140.835363931647     
  volume:    723.881113603015     
  Acav:     7.393856606411446E-002
  Solving linear dielectric/ionic screening model
        iter                  A_solv                     rms
   LPB:       -0.304238987748727E+00   0.531855504489783E+00
   LPB:    0  -0.304068478933870E+00   0.628317260426984E+00   0.337994E-02   0.000000E+00   0.298510E+02   0.100895E+00
   LPB:    1  -0.298925089897274E+00   0.212407468871732E+00   0.141842E-01   0.000000E+00   0.101573E+03  -0.890419E-18
   LPB:    2  -0.298232935750625E+00   0.604454283748835E-01   0.157877E-01   0.120903E+00   0.111348E+03  -0.120913E-14
   LPB:    3  -0.297874482849557E+00   0.389649821867235E-01   0.411926E-01   0.198485E+00   0.965587E+02  -0.128434E-14
   LPB:    4  -0.297356363084544E+00   0.625261086568840E-01   0.520817E-01   0.114323E+01   0.117286E+03  -0.993624E-15
  Finished solving LPB equations
  A_corr:   -0.223417797020429     
 End minimization
 Ecorr=   3278.93490676245     
 A_corr= -0.223417797020429     
 Ecorr_band=  -3279.15832455947     
 End Solvation calculations
RMM:  17    -0.317621272911E+03    0.40722E-02   -0.96566E-03 15544   0.150E-01    0.780E-01
 Begin Solvation calculations
  rms_SCF =    1.11323816614230      tol =   0.111323816614230     
 Begin minimization
 Creating dielectric and ionic cavities
  area:      141.344583579730     
  volume:    722.201702383592     
  Acav:     7.420590637935834E-002
  Solving linear dielectric/ionic screening model
        iter                  A_solv                     rms
   LPB:       -0.319425572238768E+00   0.960724496550069E+00
   LPB:    0  -0.319361121255275E+00   0.101149092666268E+01   0.207529E-02   0.000000E+00   0.299298E+02   0.621129E-01
   LPB:    1  -0.307242716044117E+00   0.280519026898742E+00   0.144105E-01   0.000000E+00   0.983692E+02   0.360069E-17
   LPB:    2  -0.305894861159861E+00   0.938012066844951E-01   0.148912E-01   0.107633E+00   0.129633E+03  -0.296816E-14
   LPB:    3  -0.305433612579884E+00   0.802685076042032E-01   0.295437E-01   0.172487E+00   0.913707E+02  -0.364805E-14
   LPB:    4  -0.305089336980681E+00   0.126551856206417E+00   0.313888E-01   0.702525E+00   0.184196E+03  -0.354051E-14
   LPB:    5  -0.304779075037210E+00   0.976083189805225E-01   0.246855E-01   0.114592E+01   0.859755E+02  -0.288210E-14
  Finished solving LPB equations
  A_corr:   -0.230573168657852     
 End minimization
 Ecorr=   3271.37985563287     
 A_corr= -0.230573168657852     
 Ecorr_band=  -3271.61042880153     
 End Solvation calculations
RMM:  18    -0.317621371342E+03   -0.98431E-04   -0.48042E-03 13208   0.886E-02    0.765E-01
 Begin Solvation calculations
  rms_SCF =    1.11323816614230      tol =   0.111323816614230     
 Begin minimization
 Creating dielectric and ionic cavities
  area:      141.738157887963     
  volume:    721.076074687448     
  Acav:     7.441253289118056E-002
  Solving linear dielectric/ionic screening model
        iter                  A_solv                     rms
   LPB:       -0.320942902595317E+00   0.868085384446535E+00
   LPB:    0  -0.320936537554435E+00   0.883588817790137E+00   0.651600E-03   0.000000E+00   0.299826E+02   0.195366E-01
   LPB:    1  -0.312494762187643E+00   0.229845516014737E+00   0.144182E-01   0.000000E+00   0.916845E+02   0.496560E-18
   LPB:    2  -0.311526750882706E+00   0.817973791574258E-01   0.147984E-01   0.111723E+00   0.140927E+03   0.155689E-14
   LPB:    3  -0.311211375474690E+00   0.811282511468474E-01   0.284646E-01   0.169378E+00   0.894625E+02   0.188634E-14
   LPB:    4  -0.310921730336308E+00   0.125124858517698E+00   0.317854E-01   0.822462E+00   0.147364E+03   0.131215E-14
   LPB:    5  -0.310589184316171E+00   0.883644738111433E-01   0.276172E-01   0.132140E+01   0.758182E+02   0.828298E-15
  Finished solving LPB equations
  A_corr:   -0.236176651424991     
 End minimization
 Ecorr=   3265.64648509849     
 A_corr= -0.236176651424991     
 Ecorr_band=  -3265.88266174991     
 End Solvation calculations
RMM:  19    -0.317620125348E+03    0.12460E-02   -0.28059E-03 13022   0.684E-02    0.689E-01
 Begin Solvation calculations
  rms_SCF =    1.11323816614230      tol =   0.111323816614230     
 Begin minimization
 Creating dielectric and ionic cavities
  area:      142.175226453300     
  volume:    720.148659303176     
  Acav:     7.464199388798268E-002
  Solving linear dielectric/ionic screening model
        iter                  A_solv                     rms
   LPB:       -0.335190162144262E+00   0.133433617998448E+01
   LPB:    0  -0.335174489342008E+00   0.131424332228654E+01  -0.102174E-02   0.000000E+00   0.300260E+02  -0.306787E-01
   LPB:    1  -0.320459132668179E+00   0.293737693069543E+00   0.142448E-01   0.000000E+00   0.780417E+02  -0.279814E-17
   LPB:    2  -0.318870554120374E+00   0.127440596029036E+00   0.137115E-01   0.112153E+00   0.195412E+03   0.267649E-14
   LPB:    3  -0.318474030940159E+00   0.949774879083041E-01   0.209758E-01   0.163165E+00   0.100647E+03   0.353043E-14
   LPB:    4  -0.318193771122560E+00   0.971054059964532E-01   0.263009E-01   0.563690E+00   0.130270E+03   0.321694E-14
  Finished solving LPB equations
  A_corr:   -0.243551777234578     
 End minimization
 Ecorr=   3260.44809200129     
 A_corr= -0.243551777234578     
 Ecorr_band=  -3260.69164377853     
 End Solvation calculations
RMM:  20    -0.317618385174E+03    0.17402E-02   -0.41160E-03 12678   0.770E-02    0.495E-01
 Begin Solvation calculations
  rms_SCF =    1.04737220960181      tol =   0.104737220960181     
 Begin minimization
 Creating dielectric and ionic cavities
  area:      142.635515214538     
  volume:    719.391507463437     
  Acav:     7.488364548763249E-002
  Solving linear dielectric/ionic screening model
        iter                  A_solv                     rms
   LPB:       -0.347972566414668E+00   0.150517666338422E+01
   LPB:    0  -0.347944023247413E+00   0.148491730136537E+01  -0.137804E-02   0.000000E+00   0.300615E+02  -0.414259E-01
   LPB:    1  -0.330723878556217E+00   0.319006989366973E+00   0.141472E-01   0.000000E+00   0.754387E+02   0.165278E-17
   LPB:    2  -0.328816566717219E+00   0.172853192668856E+00   0.138917E-01   0.112798E+00   0.217914E+03   0.293770E-14
   LPB:    3  -0.328061420425187E+00   0.119095569682201E+00   0.232316E-01   0.236748E+00   0.894951E+02   0.394542E-14
   LPB:    4  -0.327464774536568E+00   0.122898412805359E+00   0.290014E-01   0.632916E+00   0.134037E+03   0.423076E-14
   LPB:    5  -0.326958005749136E+00   0.982441306426207E-01   0.293260E-01   0.839959E+00   0.984673E+02   0.414706E-14
  Finished solving LPB equations
  A_corr:   -0.252074360261503     
 End minimization
 Ecorr=   3256.62108093901     
 A_corr= -0.252074360261503     
 Ecorr_band=  -3256.87315529927     
 End Solvation calculations
RMM:  21    -0.317620291704E+03   -0.19065E-02   -0.30998E-03 12688   0.717E-02    0.541E-01
 Begin Solvation calculations
  rms_SCF =    1.04737220960181      tol =   0.104737220960181     
 Begin minimization
 Creating dielectric and ionic cavities
  area:      142.922314219160     
  volume:    719.131540478573     
  Acav:     7.503421496505874E-002
  Solving linear dielectric/ionic screening model
        iter                  A_solv                     rms
   LPB:       -0.346897221553835E+00   0.129840083065702E+01
   LPB:    0  -0.346843207985993E+00   0.126460159559038E+01  -0.189528E-02   0.000000E+00   0.300737E+02  -0.569980E-01
   LPB:    1  -0.335973400166176E+00   0.270994164636862E+00   0.138684E-01   0.000000E+00   0.667671E+02  -0.455804E-18
   LPB:    2  -0.334756969249917E+00   0.112829969466352E+00   0.131021E-01   0.118454E+00   0.233906E+03  -0.381871E-17
   LPB:    3  -0.334394467045645E+00   0.876931145525975E-01   0.227436E-01   0.171674E+00   0.105756E+03   0.301224E-15
   LPB:    4  -0.333986083892303E+00   0.117774455374870E+00   0.357913E-01   0.715879E+00   0.889401E+02   0.131096E-15
   LPB:    5  -0.333464298436267E+00   0.916317551252225E-01   0.349792E-01   0.130735E+01   0.759018E+02   0.392127E-15
  Finished solving LPB equations
  A_corr:   -0.258430083471208     
 End minimization
 Ecorr=   3252.23356394393     
 A_corr= -0.258430083471208     
 Ecorr_band=  -3252.49199402740     
 End Solvation calculations
RMM:  22    -0.317621554227E+03   -0.12625E-02   -0.16158E-03 12523   0.503E-02    0.586E-01
 Begin Solvation calculations
  rms_SCF =    1.04737220960181      tol =   0.104737220960181     
 Begin minimization
 Creating dielectric and ionic cavities
  area:      143.227157165713     
  volume:    719.024423204207     
  Acav:     7.519425751199936E-002
  Solving linear dielectric/ionic screening model
        iter                  A_solv                     rms
   LPB:       -0.363099287906218E+00   0.180169562648802E+01
   LPB:    0  -0.362905191577757E+00   0.174605929568082E+01  -0.359248E-02   0.000000E+00   0.300787E+02  -0.108057E+00
   LPB:    1  -0.345405160262326E+00   0.370810853745363E+00   0.133325E-01   0.000000E+00   0.622111E+02   0.338009E-17
   LPB:    2  -0.343421379366228E+00   0.125939816754310E+00   0.123759E-01   0.122120E+00   0.251487E+03  -0.145530E-14
   LPB:    3  -0.342992323161160E+00   0.689504736897391E-01   0.201163E-01   0.133060E+00   0.130777E+03  -0.225645E-14
   LPB:    4  -0.342685625845241E+00   0.913739815229831E-01   0.317990E-01   0.452201E+00   0.102339E+03  -0.271659E-14
  Finished solving LPB equations
  A_corr:   -0.267491368333242     
 End minimization
 Ecorr=   3248.11013673602     
 A_corr= -0.267491368333242     
 Ecorr_band=  -3248.37762810436     
 End Solvation calculations
RMM:  23    -0.317619447275E+03    0.21070E-02   -0.36512E-03 12631   0.708E-02    0.292E-01
 Begin Solvation calculations
  rms_SCF =   0.621625578807295      tol =   6.216255788072950E-002
 Begin minimization
 Creating dielectric and ionic cavities
  area:      143.412046806456     
  volume:    719.102018715809     
  Acav:     7.529132457338958E-002
  Solving linear dielectric/ionic screening model
        iter                  A_solv                     rms
   LPB:       -0.359728043475019E+00   0.129978183175574E+01
   LPB:    0  -0.359588992532486E+00   0.126829360533999E+01  -0.304087E-02   0.000000E+00   0.300751E+02  -0.914546E-01
   LPB:    1  -0.351177028177967E+00   0.264739115940360E+00   0.131007E-01   0.000000E+00   0.602952E+02  -0.261071E-17
   LPB:    2  -0.350195234035382E+00   0.102601244611962E+00   0.126841E-01   0.120547E+00   0.232951E+03  -0.664537E-15
   LPB:    3  -0.349755309123655E+00   0.553739990192332E-01   0.281466E-01   0.201925E+00   0.933052E+02  -0.730211E-15
   LPB:    4  -0.349258481321342E+00   0.800366163811727E-01   0.417933E-01   0.760584E+00   0.100661E+03  -0.801636E-15
   LPB:    5  -0.348863744752812E+00   0.969476107889435E-01   0.313436E-01   0.105940E+01   0.112378E+03  -0.873596E-15
   LPB:    6  -0.348564614861274E+00   0.509160892611136E-01   0.285535E-01   0.831845E+00   0.876931E+02  -0.165022E-14
  Finished solving LPB equations
  A_corr:   -0.273273290287885     
 End minimization
 Ecorr=   3244.52298544426     
 A_corr= -0.273273290287885     
 Ecorr_band=  -3244.79625873455     
 End Solvation calculations
RMM:  24    -0.317620598838E+03   -0.11516E-02   -0.16728E-03 12421   0.624E-02    0.431E-01
 Begin Solvation calculations
  rms_SCF =   0.621625578807295      tol =   6.216255788072950E-002
 Begin minimization
 Creating dielectric and ionic cavities
  area:      143.650054002055     
  volume:    719.317653863527     
  Acav:     7.541627835107902E-002
  Solving linear dielectric/ionic screening model
        iter                  A_solv                     rms
   LPB:       -0.384160186728338E+00   0.216281327924935E+01
   LPB:    0  -0.383609868327082E+00   0.209024120376397E+01  -0.605050E-02   0.000000E+00   0.300650E+02  -0.181908E+00
   LPB:    1  -0.362595736736431E+00   0.420856286978735E+00   0.126896E-01   0.000000E+00   0.588013E+02  -0.852555E-17
   LPB:    2  -0.360048193231034E+00   0.128978763264625E+00   0.124068E-01   0.123993E+00   0.247056E+03  -0.471262E-15
   LPB:    3  -0.359549850604264E+00   0.415548877105342E-01   0.187292E-01   0.129582E+00   0.156750E+03  -0.513393E-15
   LPB:    4  -0.359349154277252E+00   0.553655834906571E-01   0.298068E-01   0.253055E+00   0.163398E+03  -0.671505E-15
  Finished solving LPB equations
  A_corr:   -0.283932875926173     
 End minimization
 Ecorr=   3242.49165503519     
 A_corr= -0.283932875926173     
 Ecorr_band=  -3242.77558791112     
 End Solvation calculations
RMM:  25    -0.317619001203E+03    0.15976E-02   -0.45651E-03 12685   0.771E-02    0.111E-01
 Begin Solvation calculations
  rms_SCF =   0.200799005512098      tol =   2.007990055120982E-002
 Begin minimization
 Creating dielectric and ionic cavities
  area:      143.724382080415     
  volume:    719.413922255784     
  Acav:     7.545530059221763E-002
  Solving linear dielectric/ionic screening model
        iter                  A_solv                     rms
   LPB:       -0.366126799156640E+00   0.743765375282240E+00
   LPB:    0  -0.366059584046404E+00   0.722232214898309E+00  -0.211471E-02   0.000000E+00   0.300605E+02  -0.635691E-01
   LPB:    1  -0.363684372522245E+00   0.147774649852256E+00   0.125573E-01   0.000000E+00   0.571704E+02   0.231381E-17
   LPB:    2  -0.363366027819083E+00   0.531555064134857E-01   0.131315E-01   0.128167E+00   0.212564E+03   0.440726E-15
   LPB:    3  -0.363156977471722E+00   0.370573907764387E-01   0.373386E-01   0.230946E+00   0.794001E+02   0.480179E-15
   LPB:    4  -0.362850226939745E+00   0.442935848102986E-01   0.471996E-01   0.116079E+01   0.846609E+02   0.475567E-15
   LPB:    5  -0.362633166275392E+00   0.607316335817214E-01   0.333257E-01   0.100220E+01   0.154055E+03   0.490404E-15
   LPB:    6  -0.362485368571267E+00   0.482187889341085E-01   0.284937E-01   0.796373E+00   0.967076E+02   0.488331E-15
   LPB:    7  -0.362389103361821E+00   0.199698709459132E-01   0.272413E-01   0.681277E+00   0.269672E+03   0.105538E-14
  Finished solving LPB equations
  A_corr:   -0.286933802769603     
 End minimization
 Ecorr=   3239.99049864854     
 A_corr= -0.286933802769603     
 Ecorr_band=  -3240.27743245131     
 End Solvation calculations
RMM:  26    -0.317621075094E+03   -0.20739E-02   -0.27406E-03 12579   0.738E-02    0.453E-01
 Begin Solvation calculations
  rms_SCF =   0.200799005512098      tol =   2.007990055120982E-002
 Begin minimization
 Creating dielectric and ionic cavities
  area:      143.798442283546     
  volume:    719.525317191319     
  Acav:     7.549418219886156E-002
  Solving linear dielectric/ionic screening model
        iter                  A_solv                     rms
   LPB:       -0.374018915654123E+00   0.129812067065289E+01
   LPB:    0  -0.373803378073778E+00   0.125261549571539E+01  -0.378718E-02   0.000000E+00   0.300553E+02  -0.113825E+00
   LPB:    1  -0.368058315828853E+00   0.210908718817419E+00   0.112828E-01   0.000000E+00   0.564612E+02  -0.444598E-17
   LPB:    2  -0.367278651409589E+00   0.499457425903235E-01   0.130059E-01   0.117731E+00   0.212625E+03  -0.214022E-15
   LPB:    3  -0.367147919074498E+00   0.182580779225780E-01   0.200751E-01   0.108632E+00   0.197122E+03  -0.255076E-15
   LPB:    4  -0.367113197061753E+00   0.197153124515491E-01   0.244239E-01   0.218305E+00   0.214012E+03  -0.393541E-15
  Finished solving LPB equations
  A_corr:   -0.291619014862892     
 End minimization
 Ecorr=   3239.02640345876     
 A_corr= -0.291619014862892     
 Ecorr_band=  -3239.31802247363     
 End Solvation calculations
RMM:  27    -0.317617779337E+03    0.32958E-02   -0.11595E-03 12361   0.346E-02    0.581E-02
 Begin Solvation calculations
  rms_SCF =   4.578358095989497E-002 tol =   4.578358095989497E-003
 Begin minimization
 Creating dielectric and ionic cavities
  area:      143.811197021153     
  volume:    719.663021327782     
  Acav:     7.550087843610545E-002
  Solving linear dielectric/ionic screening model
        iter                  A_solv                     rms
   LPB:       -0.371846420381731E+00   0.779223092532563E+00
   LPB:    0  -0.371713943289677E+00   0.744024691062310E+00  -0.296942E-02   0.000000E+00   0.300488E+02  -0.892275E-01
   LPB:    1  -0.369712090140352E+00   0.117085182463000E+00   0.108887E-01   0.000000E+00   0.600236E+02  -0.605055E-17
   LPB:    2  -0.369491218074584E+00   0.323384041222916E-01   0.125350E-01   0.958430E-01   0.194807E+03   0.241705E-15
   LPB:    3  -0.369446514915718E+00   0.951232202578963E-02   0.232174E-01   0.109272E+00   0.103987E+03   0.270883E-15
   LPB:    4  -0.369416838837110E+00   0.891683556773952E-02   0.400491E-01   0.384847E+00   0.130087E+03   0.228747E-15
   LPB:    5  -0.369389772856337E+00   0.141719179227777E-01   0.443431E-01   0.823729E+00   0.150292E+03   0.184987E-15
   LPB:    6  -0.369360005686157E+00   0.234399239422034E-01   0.429828E-01   0.113461E+01   0.747087E+02   0.102770E-15
   LPB:    7  -0.369335143509486E+00   0.189972100720411E-01   0.301418E-01   0.119104E+01   0.121707E+03  -0.142553E-15
   LPB:    8  -0.369316872915433E+00   0.785989198956834E-02   0.279774E-01   0.791728E+00   0.121889E+03  -0.566091E-15
   LPB:    9  -0.369306655552624E+00   0.282032900427803E-02   0.321642E-01   0.486431E+00   0.465518E+03  -0.902578E-15
  Finished solving LPB equations
  A_corr:   -0.293805777116518     
 End minimization
 Ecorr=   3237.80237529456     
 A_corr= -0.293805777116518     
 Ecorr_band=  -3238.09618107168     
 End Solvation calculations
RMM:  28    -0.317618056991E+03   -0.27765E-03   -0.33042E-04 10189   0.263E-02    0.732E-02
 Begin Solvation calculations
  rms_SCF =   4.578358095989497E-002 tol =   4.578358095989497E-003
 Begin minimization
 Creating dielectric and ionic cavities
  area:      143.771972345716     
  volume:    719.731295986668     
  Acav:     7.548028548150074E-002
  Solving linear dielectric/ionic screening model
        iter                  A_solv                     rms
   LPB:       -0.368573698299512E+00   0.113233141412724E+00
   LPB:    0  -0.368553490361374E+00   0.911487662885925E-01  -0.115981E-02   0.000000E+00   0.300456E+02  -0.348471E-01
   LPB:    1  -0.368441348443632E+00   0.417067253378617E-01   0.111960E-01   0.000000E+00   0.207990E+03   0.212065E-17
   LPB:    2  -0.368429766777083E+00   0.930664380624784E-02   0.137090E-01   0.843449E-01   0.877926E+02   0.454874E-16
   LPB:    3  -0.368423210007456E+00   0.635179738719398E-02   0.285789E-01   0.271569E+00   0.170422E+03   0.438730E-16
   LPB:    4  -0.368418640138534E+00   0.967791418290386E-02   0.361081E-01   0.551638E+00   0.161843E+03   0.433464E-16
   LPB:    5  -0.368415514550121E+00   0.701021721066906E-02   0.254265E-01   0.971286E+00   0.167710E+03   0.861238E-16
   LPB:    6  -0.368413641417306E+00   0.230381352126223E-02   0.281865E-01   0.540606E+00   0.138355E+03   0.109033E-15
  Finished solving LPB equations
  A_corr:   -0.292933355935806     
 End minimization
 Ecorr=   3238.16752913639     
 A_corr= -0.292933355935806     
 Ecorr_band=  -3238.46046249232     
 End Solvation calculations
RMM:  29    -0.317618445594E+03   -0.38860E-03   -0.11680E-04  9308   0.157E-02    0.987E-02
 Begin Solvation calculations
  rms_SCF =   4.578358095989497E-002 tol =   4.578358095989497E-003
 Begin minimization
 Creating dielectric and ionic cavities
  area:      143.716802683946     
  volume:    719.791858196051     
  Acav:     7.545132140907165E-002
  Solving linear dielectric/ionic screening model
        iter                  A_solv                     rms
   LPB:       -0.367001025195614E+00   0.123481339560808E+00
   LPB:    0  -0.366965415598248E+00   0.874207490664025E-01  -0.153967E-02   0.000000E+00   0.300428E+02  -0.462560E-01
   LPB:    1  -0.366737105692781E+00   0.675253424204724E-01   0.122601E-01   0.000000E+00   0.374074E+03   0.298223E-17
   LPB:    2  -0.366710825158479E+00   0.178222704179854E-01   0.141861E-01   0.994817E-01   0.611784E+02   0.717764E-17
   LPB:    3  -0.366699800489201E+00   0.734181395408059E-02   0.219359E-01   0.271293E+00   0.225495E+03   0.592373E-16
   LPB:    4  -0.366691246012045E+00   0.135329472467490E-01   0.381436E-01   0.446232E+00   0.176710E+03   0.805195E-16
   LPB:    5  -0.366683591359690E+00   0.143762885370409E-01   0.305732E-01   0.111638E+01   0.113926E+03   0.251825E-16
   LPB:    6  -0.366676201046591E+00   0.576602789009096E-02   0.327954E-01   0.900046E+00   0.101660E+03   0.110058E-15
   LPB:    7  -0.366671751141331E+00   0.219330685548376E-02   0.336351E-01   0.587094E+00   0.635279E+03   0.268737E-15
  Finished solving LPB equations
  A_corr:   -0.291220429732259     
 End minimization
 Ecorr=   3238.78935748362     
 A_corr= -0.291220429732259     
 Ecorr_band=  -3239.08057791335     
 End Solvation calculations
RMM:  30    -0.317618796801E+03   -0.35121E-03   -0.17249E-04  9004   0.171E-02    0.770E-02
 Begin Solvation calculations
  rms_SCF =   4.578358095989497E-002 tol =   4.578358095989497E-003
 Begin minimization
 Creating dielectric and ionic cavities
  area:      143.706661544175     
  volume:    719.807887869105     
  Acav:     7.544599731069201E-002
  Solving linear dielectric/ionic screening model
        iter                  A_solv                     rms
   LPB:       -0.366410794470139E+00   0.173206270492834E+00
   LPB:    0  -0.366389981303131E+00   0.147682723732097E+00  -0.117712E-02   0.000000E+00   0.300420E+02  -0.353630E-01
   LPB:    1  -0.366282299037248E+00   0.262671897421503E-01   0.994576E-02   0.000000E+00   0.926866E+02  -0.168609E-17
   LPB:    2  -0.366274424849321E+00   0.410961167063901E-02   0.122520E-01   0.593596E-01   0.150491E+03  -0.369048E-16
   LPB:    3  -0.366271362001840E+00   0.466098428646382E-02   0.353775E-01   0.134710E+00   0.176730E+03  -0.792847E-16
   LPB:    4  -0.366267382759907E+00   0.452278186864542E-02   0.595392E-01   0.771967E+00   0.264794E+03  -0.100558E-15
  Finished solving LPB equations
  A_corr:   -0.290821385449215     
 End minimization
 Ecorr=   3238.77313635341     
 A_corr= -0.290821385449215     
 Ecorr_band=  -3239.06395773886     
 End Solvation calculations
RMM:  31    -0.317619012888E+03   -0.21609E-03   -0.11119E-04  7765   0.120E-02    0.882E-02
 Begin Solvation calculations
  rms_SCF =   4.578358095989497E-002 tol =   4.578358095989497E-003
 Begin minimization
 Creating dielectric and ionic cavities
  area:      143.714497975865     
  volume:    719.809181078621     
  Acav:     7.545011143732928E-002
  Solving linear dielectric/ionic screening model
        iter                  A_solv                     rms
   LPB:       -0.366436084818958E+00   0.164362539420544E+00
   LPB:    0  -0.366426221024185E+00   0.146413387958168E+00  -0.810351E-03   0.000000E+00   0.300419E+02  -0.243445E-01
   LPB:    1  -0.366344479041262E+00   0.213278549531274E-01   0.102138E-01   0.000000E+00   0.667725E+02   0.139486E-17
   LPB:    2  -0.366336860507336E+00   0.498521266954999E-02   0.127860E-01   0.744526E-01   0.178353E+03   0.793997E-16
   LPB:    3  -0.366334287002421E+00   0.533658970478774E-02   0.319530E-01   0.135169E+00   0.215348E+03   0.780201E-16
   LPB:    4  -0.366328934167730E+00   0.962846528552422E-02   0.695892E-01   0.955055E+00   0.305702E+03   0.835410E-16
   LPB:    5  -0.366323455611343E+00   0.102580377890085E-01   0.334513E-01   0.212917E+01   0.107349E+03   0.104919E-15
   LPB:    6  -0.366320179142717E+00   0.391087007389237E-02   0.235554E-01   0.849305E+00   0.171264E+03   0.782471E-16
  Finished solving LPB equations
  A_corr:   -0.290870067705388     
 End minimization
 Ecorr=   3238.63759213108     
 A_corr= -0.290870067705388     
 Ecorr_band=  -3238.92846219878     
 End Solvation calculations
RMM:  32    -0.317619200690E+03   -0.18780E-03   -0.53017E-05  6852   0.102E-02    0.121E-01
 Begin Solvation calculations
  rms_SCF =   4.578358095989497E-002 tol =   4.578358095989497E-003
 Begin minimization
 Creating dielectric and ionic cavities
  area:      143.709902610216     
  volume:    719.829065666833     
  Acav:     7.544769887036322E-002
  Solving linear dielectric/ionic screening model
        iter                  A_solv                     rms
   LPB:       -0.365973696535694E+00   0.456770668120047E-01
   LPB:    0  -0.365971150279571E+00   0.309408777591757E-01  -0.411726E-03   0.000000E+00   0.300410E+02  -0.123687E-01
   LPB:    1  -0.365941860747691E+00   0.131046848043702E-01   0.138373E-01   0.000000E+00   0.229502E+03  -0.537844E-18
   LPB:    2  -0.365938628327221E+00   0.971661771582683E-02   0.212136E-01   0.719869E-01   0.704124E+02   0.563649E-16
   LPB:    3  -0.365937586618697E+00   0.407763493730296E-02   0.171418E-01   0.398818E+00   0.175286E+03   0.631085E-16
   LPB:    4  -0.365936904268385E+00   0.208074231914013E-02   0.255981E-01   0.438643E+00   0.317545E+03   0.548480E-16
  Finished solving LPB equations
  A_corr:   -0.290489205398022     
 End minimization
 Ecorr=   3238.59974892802     
 A_corr= -0.290489205398022     
 Ecorr_band=  -3238.89023813342     
 End Solvation calculations
RMM:  33    -0.317619194790E+03    0.58997E-05   -0.58336E-05  7565   0.978E-03
 Begin Solvation calculations
  rms_SCF =   4.578358095989497E-002 tol =   4.578358095989497E-003
 Begin minimization
 Creating dielectric and ionic cavities
  area:      143.701775772346     
  volume:    719.845148713337     
  Acav:     7.544343228048167E-002
  Solving linear dielectric/ionic screening model
        iter                  A_solv                     rms
   LPB:       -0.365488631453373E+00   0.769858407645109E-01
   LPB:    0  -0.365487671621199E+00   0.737517435765141E-01  -0.252791E-03   0.000000E+00   0.300403E+02  -0.759389E-02
   LPB:    1  -0.365442446124928E+00   0.158606558629291E-01   0.142856E-01   0.000000E+00   0.779822E+02   0.657893E-18
   LPB:    2  -0.365437864229442E+00   0.104497050235413E-01   0.140883E-01   0.102731E+00   0.243691E+03   0.536379E-16
   LPB:    3  -0.365435774797351E+00   0.453755972743939E-02   0.212794E-01   0.301914E+00   0.913213E+02   0.628139E-16
   LPB:    4  -0.365434168068625E+00   0.237342236033619E-02   0.361983E-01   0.452048E+00   0.267235E+03   0.407783E-16
  Finished solving LPB equations
  A_corr:   -0.289990735788144     
 End minimization
 Ecorr=   3238.53872277718     
 A_corr= -0.289990735788144     
 Ecorr_band=  -3238.82871351297     
 End Solvation calculations
   1 F= -.31761919E+03 E0= -.31760958E+03  d E =-.317619E+03
quench:  g(F)=  0.000E+00 g(S)=  0.000E+00 dE (1.order)= 0.000E+00
 bond charge predicted
       N       E                     dE             d eps       ncg     rms          rms(c)
 Begin Solvation calculations
  rms_SCF =   4.578358095989497E-002 tol =   4.578358095989497E-003
 Begin minimization
 Creating dielectric and ionic cavities
  area:      143.699669994426     
  volume:    719.843289546034     
  Acav:     7.544232674707346E-002
  Solving linear dielectric/ionic screening model
        iter                  A_solv                     rms
   LPB:       -0.365512436671896E+00   0.255572768652191E-02
   LPB:    0  -0.365512436670490E+00   0.255303422369309E-02  -0.305952E-06   0.000000E+00   0.300403E+02  -0.919091E-05
   LPB:    1  -0.365459089198928E+00   0.146464678390648E-02   0.156853E-01   0.000000E+00   0.661456E+05   0.547421E-21
   LPB:    2  -0.365452532265840E+00   0.266422730846633E-02   0.287591E-01   0.670354E-01   0.831495E+04   0.918376E-18
   LPB:    3  -0.365450009037593E+00   0.564850352364650E-02   0.330984E-01   0.334368E+00   0.802772E+03   0.297292E-17
   LPB:    4  -0.365448810563164E+00   0.779951177097181E-02   0.241493E-01   0.650990E+00   0.202541E+03  -0.141409E-16
   LPB:    5  -0.365447752227438E+00   0.360550466459895E-02   0.243926E-01   0.874261E+00   0.169200E+03  -0.341614E-16
  Finished solving LPB equations
  A_corr:   -0.290005425480365     
 End minimization
 Ecorr=   3238.54812311377     
 A_corr= -0.290005425480365     
 Ecorr_band=  -3238.83812853925     
 End Solvation calculations
DAV:   1    -0.317619183678E+03    0.17012E-04   -0.28350E-03 13323   0.880E-02    0.641E-02
 Begin Solvation calculations
  rms_SCF =   4.578358095989497E-002 tol =   4.578358095989497E-003
 Begin minimization
 Creating dielectric and ionic cavities
  area:      143.729287679343     
  volume:    719.846875450573     
  Acav:     7.545787603165499E-002
  Solving linear dielectric/ionic screening model
        iter                  A_solv                     rms
   LPB:       -0.366635567251159E+00   0.820232074621348E+00
   LPB:    0  -0.366631471569023E+00   0.819691483949711E+00   0.522188E-03   0.000000E+00   0.300402E+02   0.156866E-01
   LPB:    1  -0.364871852838660E+00   0.802708448042701E-01   0.892211E-02   0.000000E+00   0.657961E+02   0.775931E-18
   LPB:    2  -0.364714485379261E+00   0.144095865838098E-01   0.159500E-01   0.500268E-01   0.124712E+03   0.121077E-16
   LPB:    3  -0.364695505484774E+00   0.708613162279223E-02   0.224832E-01   0.855623E-01   0.185900E+03   0.211105E-16
   LPB:    4  -0.364690014903510E+00   0.428112244983157E-02   0.275668E-01   0.235937E+00   0.227176E+03   0.692940E-16
  Finished solving LPB equations
  A_corr:   -0.289232138871855     
 End minimization
 Ecorr=   3238.39846065271     
 A_corr= -0.289232138871855     
 Ecorr_band=  -3238.68769279158     
 End Solvation calculations
RMM:   2    -0.317626313356E+03   -0.71297E-02   -0.15685E-03 12930   0.518E-02    0.718E-01
 Begin Solvation calculations
  rms_SCF =   4.578358095989497E-002 tol =   4.578358095989497E-003
 Begin minimization
 Creating dielectric and ionic cavities
  area:      143.713032380123     
  volume:    719.835019008201     
  Acav:     7.544934199956448E-002
  Solving linear dielectric/ionic screening model
        iter                  A_solv                     rms
   LPB:       -0.367191592078033E+00   0.761238569407374E+00
   LPB:    0  -0.367185019615074E+00   0.759270826568181E+00  -0.661491E-03   0.000000E+00   0.300407E+02  -0.198717E-01
   LPB:    1  -0.365676692137627E+00   0.731488007741138E-01   0.888129E-02   0.000000E+00   0.662560E+02  -0.110596E-17
   LPB:    2  -0.365547174986584E+00   0.114890643658566E-01   0.159572E-01   0.477915E-01   0.123358E+03   0.761437E-17
   LPB:    3  -0.365533546655917E+00   0.364206856422177E-02   0.206686E-01   0.812383E-01   0.253358E+03  -0.392958E-16
   LPB:    4  -0.365530730409550E+00   0.154931109771418E-02   0.246951E-01   0.172953E+00   0.589578E+03  -0.685330E-16
  Finished solving LPB equations
  A_corr:   -0.290081388409986     
 End minimization
 Ecorr=   3238.28397387079     
 A_corr= -0.290081388409986     
 Ecorr_band=  -3238.57405525920     
 End Solvation calculations
RMM:   3    -0.317619173570E+03    0.71398E-02   -0.88838E-04 12407   0.443E-02    0.202E-02
 Begin Solvation calculations
  rms_SCF =   8.685025455366546E-003 tol =   8.685025455366545E-004
 Begin minimization
 Creating dielectric and ionic cavities
  area:      143.716582518925     
  volume:    719.825007000240     
  Acav:     7.545120582243577E-002
  Solving linear dielectric/ionic screening model
        iter                  A_solv                     rms
   LPB:       -0.365623383289809E+00   0.334331519225417E-01
   LPB:    0  -0.365622195344878E+00   0.202806760621925E-01  -0.281225E-03   0.000000E+00   0.300412E+02  -0.844835E-02
   LPB:    1  -0.365619827950938E+00   0.315177132344905E-02   0.111994E-01   0.000000E+00   0.568580E+02   0.496400E-18
   LPB:    2  -0.365619394384970E+00   0.348704597509719E-02   0.215072E-01   0.953659E-01   0.216421E+03   0.198502E-16
   LPB:    3  -0.365618975998240E+00   0.355276847473777E-02   0.304470E-01   0.681652E+00   0.169670E+03   0.209618E-16
   LPB:    4  -0.365618655586845E+00   0.218996437978043E-02   0.250037E-01   0.932546E+00   0.203914E+03   0.214095E-16
   LPB:    5  -0.365618371545667E+00   0.115828656034006E-02   0.331296E-01   0.669054E+00   0.285919E+03   0.170578E-16
   LPB:    6  -0.365618033768138E+00   0.167971084244965E-02   0.460094E-01   0.856287E+00   0.318435E+03   0.966900E-17
   LPB:    7  -0.365617680639343E+00   0.461011814604945E-03   0.454516E-01   0.105828E+01   0.181688E+03  -0.191466E-18
  Finished solving LPB equations
  A_corr:   -0.290166474816907     
 End minimization
 Ecorr=   3238.16639067212     
 A_corr= -0.290166474816907     
 Ecorr_band=  -3238.45655714693     
 End Solvation calculations
RMM:   4    -0.317619163491E+03    0.10079E-04   -0.40897E-05  8455   0.109E-02
 Begin Solvation calculations
  rms_SCF =   8.685025455366546E-003 tol =   8.685025455366545E-004
 Begin minimization
 Creating dielectric and ionic cavities
  area:      143.720054368264     
  volume:    719.822317724488     
  Acav:     7.545302854333841E-002
  Solving linear dielectric/ionic screening model
        iter                  A_solv                     rms
   LPB:       -0.365685054254917E+00   0.238597785161614E-01
   LPB:    0  -0.365685034109583E+00   0.227193112937517E-01  -0.366221E-04   0.000000E+00   0.300413E+02  -0.110018E-02
   LPB:    1  -0.365682723022024E+00   0.381917778204038E-02   0.995803E-02   0.000000E+00   0.689803E+02   0.587310E-19
   LPB:    2  -0.365682518651899E+00   0.120599283097717E-02   0.139959E-01   0.629178E-01   0.115631E+03  -0.157547E-16
   LPB:    3  -0.365682416772709E+00   0.119765822893402E-02   0.299297E-01   0.233113E+00   0.450018E+03  -0.232080E-16
   LPB:    4  -0.365682362947764E+00   0.893489687947106E-03   0.253998E-01   0.622543E+00   0.138203E+03  -0.240707E-16
   LPB:    5  -0.365682311349695E+00   0.715485937113608E-03   0.355255E-01   0.685395E+00   0.175601E+03  -0.248758E-16
  Finished solving LPB equations
  A_corr:   -0.290229282806357     
 End minimization
 Ecorr=   3238.02182891779     
 A_corr= -0.290229282806357     
 Ecorr_band=  -3238.31205820060     
 End Solvation calculations
   2 F= -.31761916E+03 E0= -.31760958E+03  d E =0.312993E-04
quench:  g(F)=  0.000E+00 g(S)=  0.000E+00 dE (1.order)= 0.000E+00
 reached required accuracy - stopping structural energy minimisation
