 vasp.5.4.4.18Apr17-6-g9f103f2a35 (build Feb 06 2024 13:54:16) complex          
  
 POSCAR found type information on POSCAR  Ni N  O 
 05/POSCAR found :  3 types and      40 ions
 scaLAPACK will be used

 ----------------------------------------------------------------------------- 
|                                                                             |
|  ADVICE TO THIS USER RUNNING 'VASP/VAMP'   (HEAR YOUR MASTER'S VOICE ...):  |
|                                                                             |
|      You enforced a specific xc-type in the INCAR file,                     |
|      a different type was found on the POTCAR file                          |
|          I HOPE YOU KNOW, WHAT YOU ARE  DOING                               |
|                                                                             |
 ----------------------------------------------------------------------------- 

 LDA part: xc-table for Pade appr. of Perdew
 POSCAR found type information on POSCAR  Ni N  O 
 00/POSCAR found :  3 types and      40 ions
 POSCAR found type information on POSCAR  Ni N  O 
 06/POSCAR found :  3 types and      40 ions
 Jacobian:    19.9387148800365     
 POSCAR, INCAR and KPOINTS ok, starting setup
 FFT: planning ...
 WAVECAR not read
 entering main loop
       N       E                     dE             d eps       ncg     rms          rms(c)
DAV:   1     0.245009977545E+04    0.24501E+04   -0.12448E+05  1992   0.109E+03
DAV:   2     0.787087340727E+02   -0.23714E+04   -0.22418E+04  1992   0.306E+02
DAV:   3    -0.197651736500E+03   -0.27636E+03   -0.24056E+03  2445   0.123E+02
DAV:   4    -0.220811388547E+03   -0.23160E+02   -0.22245E+02  2256   0.323E+01
DAV:   5    -0.221572268182E+03   -0.76088E+00   -0.70954E+00  2202   0.508E+00    0.570E+01
RMM:   6    -0.232046526114E+03   -0.10474E+02   -0.40745E+02  2000   0.692E+01    0.803E+01
RMM:   7    -0.270499199960E+03   -0.38453E+02   -0.10011E+02  1997   0.304E+01    0.114E+02
RMM:   8    -0.205787766177E+03    0.64711E+02   -0.31387E+01  2009   0.174E+01    0.704E+01
RMM:   9    -0.213017414633E+03   -0.72296E+01   -0.45750E+01  2003   0.197E+01    0.671E+01
RMM:  10    -0.212953550416E+03    0.63864E-01   -0.36139E+01  2005   0.178E+01    0.845E+01
RMM:  11    -0.190988482211E+03    0.21965E+02   -0.29062E+01  2005   0.163E+01    0.507E+01
RMM:  12    -0.183204819937E+03    0.77837E+01   -0.25527E+01  2014   0.155E+01    0.385E+01
RMM:  13    -0.184111087573E+03   -0.90627E+00   -0.12505E+01  2008   0.110E+01    0.524E+01
RMM:  14    -0.183875442660E+03    0.23564E+00   -0.69099E+00  2011   0.827E+00    0.570E+01
RMM:  15    -0.180496415245E+03    0.33790E+01   -0.30278E+00  2014   0.524E+00    0.444E+01
RMM:  16    -0.178706677743E+03    0.17897E+01   -0.15705E+00  2013   0.374E+00    0.344E+01
RMM:  17    -0.178692177556E+03    0.14500E-01   -0.18064E+00  2009   0.393E+00    0.291E+01
RMM:  18    -0.178936573824E+03   -0.24440E+00   -0.15812E+00  2005   0.363E+00    0.242E+01
RMM:  19    -0.179155781494E+03   -0.21921E+00   -0.12565E+00  2016   0.329E+00    0.181E+01
RMM:  20    -0.180028974098E+03   -0.87319E+00   -0.10414E+00  2012   0.299E+00    0.171E+01
RMM:  21    -0.180772371215E+03   -0.74340E+00   -0.70398E-01  2006   0.244E+00    0.173E+01
RMM:  22    -0.181331584730E+03   -0.55921E+00   -0.53762E-01  2004   0.220E+00    0.189E+01
RMM:  23    -0.181633432940E+03   -0.30185E+00   -0.27265E-01  2010   0.155E+00    0.187E+01
RMM:  24    -0.181893708174E+03   -0.26028E+00   -0.47261E-01  2005   0.177E+00    0.169E+01
RMM:  25    -0.182322620362E+03   -0.42891E+00   -0.53828E-01  2010   0.208E+00    0.170E+01
RMM:  26    -0.183008418188E+03   -0.68580E+00   -0.54796E-01  2007   0.201E+00    0.145E+01
RMM:  27    -0.183981007400E+03   -0.97259E+00   -0.64092E-01  2001   0.211E+00    0.106E+01
RMM:  28    -0.184400302642E+03   -0.41930E+00   -0.17469E-01  2006   0.118E+00    0.957E+00
RMM:  29    -0.185208049513E+03   -0.80775E+00   -0.26112E-01  2001   0.117E+00    0.987E+00
RMM:  30    -0.185637428930E+03   -0.42938E+00   -0.15843E-01  2009   0.101E+00    0.943E+00
RMM:  31    -0.186447734359E+03   -0.81031E+00   -0.37440E-01  1999   0.130E+00    0.950E+00
RMM:  32    -0.186957709888E+03   -0.50998E+00   -0.31774E-01  2001   0.125E+00    0.793E+00
RMM:  33    -0.187259049023E+03   -0.30134E+00   -0.97728E-02  2006   0.764E-01    0.754E+00
RMM:  34    -0.187557235182E+03   -0.29819E+00   -0.91600E-02  1997   0.672E-01    0.583E+00
RMM:  35    -0.187768215551E+03   -0.21098E+00   -0.58766E-02  2002   0.646E-01    0.546E+00
RMM:  36    -0.188194714367E+03   -0.42650E+00   -0.11955E-01  1997   0.747E-01    0.368E+00
RMM:  37    -0.188384605540E+03   -0.18989E+00   -0.48241E-02  2014   0.545E-01    0.397E+00
RMM:  38    -0.188651547571E+03   -0.26694E+00   -0.11098E-01  1996   0.641E-01    0.361E+00
RMM:  39    -0.188692674328E+03   -0.41127E-01   -0.19562E-02  2005   0.303E-01    0.345E+00
RMM:  40    -0.188747421982E+03   -0.54748E-01   -0.16932E-02  1998   0.246E-01    0.320E+00
RMM:  41    -0.188768199369E+03   -0.20777E-01   -0.27302E-03  1982   0.144E-01    0.301E+00
RMM:  42    -0.188804608136E+03   -0.36409E-01   -0.21671E-03  1975   0.116E-01    0.268E+00
RMM:  43    -0.188875740821E+03   -0.71133E-01   -0.86973E-03  1988   0.250E-01    0.287E+00
RMM:  44    -0.189201472401E+03   -0.32573E+00   -0.89982E-02  1996   0.629E-01    0.230E+00
RMM:  45    -0.189291802187E+03   -0.90330E-01   -0.20207E-02  2005   0.360E-01    0.224E+00
RMM:  46    -0.189387649560E+03   -0.95847E-01   -0.22715E-02  1996   0.328E-01    0.179E+00
RMM:  47    -0.189425080482E+03   -0.37431E-01   -0.74339E-03  2001   0.231E-01    0.176E+00
RMM:  48    -0.189568503636E+03   -0.14342E+00   -0.30095E-02  1996   0.362E-01    0.174E+00
RMM:  49    -0.189650129954E+03   -0.81626E-01   -0.97769E-03  2001   0.242E-01    0.175E+00
RMM:  50    -0.189781026275E+03   -0.13090E+00   -0.16399E-02  1996   0.282E-01    0.159E+00
RMM:  51    -0.189810848068E+03   -0.29822E-01   -0.10166E-02  1998   0.236E-01    0.172E+00
RMM:  52    -0.189910186607E+03   -0.99339E-01   -0.10037E-02  1996   0.228E-01    0.182E+00
RMM:  53    -0.189968895645E+03   -0.58709E-01   -0.87074E-03  2000   0.224E-01    0.145E+00
RMM:  54    -0.190032706005E+03   -0.63810E-01   -0.96434E-03  2002   0.235E-01    0.233E+00
RMM:  55    -0.190083016760E+03   -0.50311E-01   -0.71267E-03  2000   0.192E-01    0.208E+00
RMM:  56    -0.189977019361E+03    0.10600E+00   -0.20948E-02  1998   0.342E-01    0.109E+00
RMM:  57    -0.190034833108E+03   -0.57814E-01   -0.12604E-02  1999   0.257E-01    0.146E+00
RMM:  58    -0.190051166652E+03   -0.16334E-01   -0.16898E-03  1981   0.111E-01    0.157E+00
RMM:  59    -0.190113829776E+03   -0.62663E-01   -0.76739E-03  1996   0.200E-01    0.161E+00
RMM:  60    -0.190137161502E+03   -0.23332E-01   -0.35898E-03  1993   0.142E-01    0.102E+00
RMM:  61    -0.190133604017E+03    0.35575E-02   -0.29464E-03  1974   0.156E-01    0.529E-01
RMM:  62    -0.190155444573E+03   -0.21841E-01   -0.19387E-03  1979   0.103E-01    0.415E-01
RMM:  63    -0.190158843897E+03   -0.33993E-02   -0.43763E-04  1620   0.606E-02    0.337E-01
RMM:  64    -0.190167744422E+03   -0.89005E-02   -0.62000E-04  1713   0.609E-02    0.388E-01
RMM:  65    -0.190173371373E+03   -0.56270E-02   -0.38436E-04  1499   0.541E-02    0.381E-01
RMM:  66    -0.190176232403E+03   -0.28610E-02   -0.35917E-04  1497   0.596E-02    0.305E-01
RMM:  67    -0.190183333252E+03   -0.71008E-02   -0.31857E-04  1369   0.424E-02    0.369E-01
RMM:  68    -0.190185310561E+03   -0.19773E-02   -0.10770E-04  1173   0.298E-02    0.225E-01
RMM:  69    -0.190188024121E+03   -0.27136E-02   -0.11563E-04  1193   0.237E-02    0.140E-01
RMM:  70    -0.190189111186E+03   -0.10871E-02   -0.46263E-05  1147   0.193E-02    0.114E-01
RMM:  71    -0.190191510043E+03   -0.23989E-02   -0.94180E-05  1197   0.195E-02    0.107E-01
RMM:  72    -0.190192020117E+03   -0.51007E-03   -0.23009E-05  1126   0.135E-02    0.112E-01
RMM:  73    -0.190193910710E+03   -0.18906E-02   -0.93665E-05  1206   0.156E-02    0.973E-02
RMM:  74    -0.190194491255E+03   -0.58055E-03   -0.31143E-05  1153   0.106E-02    0.748E-02
RMM:  75    -0.190194878723E+03   -0.38747E-03   -0.18406E-05  1130   0.103E-02    0.491E-02
RMM:  76    -0.190195160199E+03   -0.28148E-03   -0.10933E-05  1088   0.786E-03    0.595E-02
RMM:  77    -0.190195359188E+03   -0.19899E-03   -0.10639E-05  1080   0.756E-03    0.299E-02
RMM:  78    -0.190195448177E+03   -0.88989E-04   -0.74574E-06   957   0.613E-03
   1 F= -.19019545E+03 E0= -.19020693E+03  d E =-.190195E+03  mag=    26.1614
quench:  g(F)=  0.000E+00 g(S)=  0.000E+00 dE (1.order)= 0.000E+00
 bond charge predicted
       N       E                     dE             d eps       ncg     rms          rms(c)
DAV:   1    -0.190224946446E+03   -0.29587E-01   -0.45065E-01  2076   0.114E+00    0.215E-01
RMM:   2    -0.190230337328E+03   -0.53909E-02   -0.18147E-02  2757   0.223E-01    0.129E+00
RMM:   3    -0.190226174542E+03    0.41628E-02   -0.15285E-03  2000   0.102E-01    0.309E-01
RMM:   4    -0.190227332035E+03   -0.11575E-02   -0.13993E-03  1989   0.110E-01    0.640E-01
RMM:   5    -0.190226368957E+03    0.96308E-03   -0.81550E-04  1855   0.882E-02    0.270E-01
RMM:   6    -0.190226318521E+03    0.50437E-04   -0.33185E-04  1437   0.581E-02
   2 F= -.19022632E+03 E0= -.19023768E+03  d E =-.308703E-01  mag=    26.1616
quench:  g(F)=  0.000E+00 g(S)=  0.000E+00 dE (1.order)= 0.000E+00
 bond charge predicted
       N       E                     dE             d eps       ncg     rms          rms(c)
DAV:   1    -0.190264363109E+03   -0.37994E-01   -0.14453E+00  2070   0.215E+00    0.522E-01
RMM:   2    -0.190303011489E+03   -0.38648E-01   -0.76000E-02  2127   0.634E-01    0.388E+00
RMM:   3    -0.190268219862E+03    0.34792E-01   -0.21051E-02  2023   0.446E-01    0.946E-01
RMM:   4    -0.190272488666E+03   -0.42688E-02   -0.36062E-03  2020   0.171E-01    0.149E+00
RMM:   5    -0.190271219639E+03    0.12690E-02   -0.33258E-03  1991   0.169E-01    0.121E+00
RMM:   6    -0.190268566571E+03    0.26531E-02   -0.27346E-03  1989   0.161E-01    0.622E-01
RMM:   7    -0.190267789404E+03    0.77717E-03   -0.15452E-03  1987   0.120E-01    0.267E-01
RMM:   8    -0.190268631047E+03   -0.84164E-03   -0.93396E-04  1915   0.901E-02    0.602E-01
RMM:   9    -0.190267773584E+03    0.85746E-03   -0.62644E-04  1759   0.807E-02    0.178E-01
RMM:  10    -0.190267867604E+03   -0.94021E-04   -0.22143E-04  1172   0.459E-02
   3 F= -.19026787E+03 E0= -.19027907E+03  d E =-.415491E-01  mag=    26.1564
quench:  g(F)=  0.000E+00 g(S)=  0.000E+00 dE (1.order)= 0.000E+00
 bond charge predicted
       N       E                     dE             d eps       ncg     rms          rms(c)
DAV:   1    -0.190300707568E+03   -0.32934E-01   -0.21639E+00  2016   0.279E+00    0.461E-01
RMM:   2    -0.190314953253E+03   -0.14246E-01   -0.81966E-02  2461   0.568E-01    0.162E+00
RMM:   3    -0.190313147388E+03    0.18059E-02   -0.10091E-02  2023   0.292E-01    0.174E+00
RMM:   4    -0.190310043220E+03    0.31042E-02   -0.41379E-03  2021   0.185E-01    0.129E+00
RMM:   5    -0.190309145215E+03    0.89800E-03   -0.37796E-03  1995   0.182E-01    0.105E+00
RMM:   6    -0.190306678265E+03    0.24670E-02   -0.21660E-03  1993   0.146E-01    0.339E-01
RMM:   7    -0.190307149664E+03   -0.47140E-03   -0.10257E-03  1934   0.936E-02    0.467E-01
RMM:   8    -0.190306939531E+03    0.21013E-03   -0.61219E-04  1798   0.750E-02    0.323E-01
RMM:   9    -0.190306777018E+03    0.16251E-03   -0.33161E-04  1443   0.588E-02    0.188E-01
RMM:  10    -0.190306937420E+03   -0.16040E-03   -0.26985E-04  1271   0.513E-02    0.276E-01
RMM:  11    -0.190306767699E+03    0.16972E-03   -0.17170E-04  1117   0.477E-02    0.110E-01
RMM:  12    -0.190306760433E+03    0.72658E-05   -0.37640E-05  1069   0.196E-02
   4 F= -.19030676E+03 E0= -.19031779E+03  d E =-.388928E-01  mag=    26.1443
quench:  g(F)=  0.000E+00 g(S)=  0.000E+00 dE (1.order)= 0.000E+00
 bond charge predicted
       N       E                     dE             d eps       ncg     rms          rms(c)
DAV:   1    -0.190336663039E+03   -0.29895E-01   -0.26097E+00  2016   0.320E+00    0.488E-01
RMM:   2    -0.190351265058E+03   -0.14602E-01   -0.10154E-01  2338   0.640E-01    0.137E+00
RMM:   3    -0.190348492484E+03    0.27726E-02   -0.12418E-02  2011   0.323E-01    0.135E+00
RMM:   4    -0.190354499808E+03   -0.60073E-02   -0.45821E-03  2028   0.192E-01    0.214E+00
RMM:   5    -0.190345781320E+03    0.87185E-02   -0.42461E-03  1998   0.195E-01    0.894E-01
RMM:   6    -0.190344262851E+03    0.15185E-02   -0.23972E-03  1988   0.150E-01    0.381E-01
RMM:   7    -0.190345132572E+03   -0.86972E-03   -0.11677E-03  1946   0.100E-01    0.633E-01
RMM:   8    -0.190344401190E+03    0.73138E-03   -0.78810E-04  1886   0.856E-02    0.295E-01
RMM:   9    -0.190344386294E+03    0.14896E-04   -0.43000E-04  1613   0.649E-02
   5 F= -.19034439E+03 E0= -.19035535E+03  d E =-.376259E-01  mag=    26.1299
quench:  g(F)=  0.000E+00 g(S)=  0.000E+00 dE (1.order)= 0.000E+00
 bond charge predicted
       N       E                     dE             d eps       ncg     rms          rms(c)
DAV:   1    -0.190373947238E+03   -0.29546E-01   -0.32922E+00  2004   0.364E+00    0.604E-01
RMM:   2    -0.190408499455E+03   -0.34552E-01   -0.13318E-01  2078   0.819E-01    0.310E+00
RMM:   3    -0.190385456659E+03    0.23043E-01   -0.22680E-02  2012   0.457E-01    0.137E+00
RMM:   4    -0.190395550218E+03   -0.10094E-01   -0.74360E-03  2033   0.248E-01    0.235E+00
RMM:   5    -0.190387463729E+03    0.80865E-02   -0.58137E-03  2006   0.224E-01    0.148E+00
RMM:   6    -0.190383138602E+03    0.43251E-02   -0.43271E-03  2008   0.207E-01    0.626E-01
RMM:   7    -0.190382807188E+03    0.33141E-03   -0.14378E-03  1968   0.114E-01    0.373E-01
RMM:   8    -0.190383910068E+03   -0.11029E-02   -0.11232E-03  1977   0.100E-01    0.667E-01
RMM:   9    -0.190382813497E+03    0.10966E-02   -0.84608E-04  1873   0.917E-02    0.198E-01
RMM:  10    -0.190383116329E+03   -0.30283E-03   -0.53110E-04  1762   0.690E-02    0.330E-01
RMM:  11    -0.190382909185E+03    0.20714E-03   -0.29449E-04  1335   0.578E-02    0.177E-01
RMM:  12    -0.190382891450E+03    0.17735E-04   -0.77795E-05  1080   0.292E-02
   6 F= -.19038289E+03 E0= -.19039396E+03  d E =-.385052E-01  mag=    26.1041
quench:  g(F)=  0.000E+00 g(S)=  0.000E+00 dE (1.order)= 0.000E+00
 bond charge predicted
       N       E                     dE             d eps       ncg     rms          rms(c)
DAV:   1    -0.190410557978E+03   -0.27649E-01   -0.41457E+00  2004   0.406E+00    0.600E-01
RMM:   2    -0.190432924377E+03   -0.22366E-01   -0.15512E-01  2153   0.809E-01    0.166E+00
RMM:   3    -0.190425007407E+03    0.79170E-02   -0.18717E-02  2012   0.396E-01    0.123E+00
RMM:   4    -0.190445662974E+03   -0.20656E-01   -0.81824E-03  2031   0.261E-01    0.312E+00
RMM:   5    -0.190425239356E+03    0.20424E-01   -0.57370E-03  2004   0.230E-01    0.134E+00
RMM:   6    -0.190422329576E+03    0.29098E-02   -0.31885E-03  1990   0.175E-01    0.378E-01
RMM:   7    -0.190423870895E+03   -0.15413E-02   -0.17269E-03  1979   0.122E-01    0.761E-01
RMM:   8    -0.190422708725E+03    0.11622E-02   -0.11237E-03  1963   0.103E-01    0.315E-01
RMM:   9    -0.190422827451E+03   -0.11873E-03   -0.74591E-04  1841   0.832E-02    0.345E-01
RMM:  10    -0.190423000711E+03   -0.17326E-03   -0.52268E-04  1684   0.698E-02    0.404E-01
RMM:  11    -0.190422676201E+03    0.32451E-03   -0.30385E-04  1391   0.583E-02    0.160E-01
RMM:  12    -0.190422697646E+03   -0.21446E-04   -0.10093E-04  1079   0.319E-02
   7 F= -.19042270E+03 E0= -.19043388E+03  d E =-.398062E-01  mag=    26.0735
quench:  g(F)=  0.000E+00 g(S)=  0.000E+00 dE (1.order)= 0.000E+00
 bond charge predicted
       N       E                     dE             d eps       ncg     rms          rms(c)
DAV:   1    -0.190446862560E+03   -0.24186E-01   -0.51249E+00  1992   0.450E+00    0.665E-01
RMM:   2    -0.190473994302E+03   -0.27132E-01   -0.19457E-01  2231   0.884E-01    0.174E+00
RMM:   3    -0.190474151109E+03   -0.15681E-03   -0.22630E-02  2010   0.428E-01    0.224E+00
RMM:   4    -0.190474938023E+03   -0.78691E-03   -0.82031E-03  2033   0.261E-01    0.240E+00
RMM:   5    -0.190465894182E+03    0.90438E-02   -0.74584E-03  2003   0.264E-01    0.135E+00
RMM:   6    -0.190462144937E+03    0.37492E-02   -0.37500E-03  1987   0.192E-01    0.473E-01
RMM:   7    -0.190463634322E+03   -0.14894E-02   -0.19471E-03  1982   0.131E-01    0.770E-01
RMM:   8    -0.190462540704E+03    0.10936E-02   -0.11449E-03  1975   0.103E-01    0.360E-01
RMM:   9    -0.190462604355E+03   -0.63651E-04   -0.75086E-04  1831   0.838E-02
   8 F= -.19046260E+03 E0= -.19047397E+03  d E =-.399067E-01  mag=    26.0434
quench:  g(F)=  0.000E+00 g(S)=  0.000E+00 dE (1.order)= 0.000E+00
 bond charge predicted
       N       E                     dE             d eps       ncg     rms          rms(c)
DAV:   1    -0.190482339139E+03   -0.19798E-01   -0.60193E+00  1992   0.487E+00    0.829E-01
RMM:   2    -0.190558710587E+03   -0.76371E-01   -0.26985E-01  2031   0.114E+00    0.487E+00
RMM:   3    -0.190510129348E+03    0.48581E-01   -0.43367E-02  2018   0.622E-01    0.233E+00
RMM:   4    -0.190517317028E+03   -0.71877E-02   -0.13314E-02  2029   0.333E-01    0.279E+00
RMM:   5    -0.190508476307E+03    0.88407E-02   -0.12125E-02  2002   0.325E-01    0.187E+00
RMM:   6    -0.190501104145E+03    0.73722E-02   -0.80342E-03  2019   0.284E-01    0.824E-01
RMM:   7    -0.190500493449E+03    0.61070E-03   -0.27494E-03  1975   0.159E-01    0.524E-01
RMM:   8    -0.190502787212E+03   -0.22938E-02   -0.23180E-03  1989   0.143E-01    0.992E-01
RMM:   9    -0.190500497889E+03    0.22893E-02   -0.17313E-03  1972   0.130E-01    0.296E-01
RMM:  10    -0.190501024776E+03   -0.52689E-03   -0.99191E-04  1956   0.943E-02    0.450E-01
RMM:  11    -0.190500809780E+03    0.21500E-03   -0.53910E-04  1725   0.730E-02    0.332E-01
RMM:  12    -0.190500645161E+03    0.16462E-03   -0.19355E-04  1168   0.454E-02    0.141E-01
RMM:  13    -0.190500712035E+03   -0.66874E-04   -0.76724E-05  1077   0.280E-02
   9 F= -.19050071E+03 E0= -.19051220E+03  d E =-.381077E-01  mag=    25.9980
quench:  g(F)=  0.000E+00 g(S)=  0.000E+00 dE (1.order)= 0.000E+00
 bond charge predicted
       N       E                     dE             d eps       ncg     rms          rms(c)
DAV:   1    -0.190512144452E+03   -0.11499E-01   -0.66065E+00  1992   0.505E+00    0.750E-01
RMM:   2    -0.190547133517E+03   -0.34989E-01   -0.27160E-01  2331   0.979E-01    0.187E+00
RMM:   3    -0.190556560206E+03   -0.94267E-02   -0.26472E-02  2015   0.447E-01    0.314E+00
RMM:   4    -0.190546114870E+03    0.10445E-01   -0.12630E-02  2026   0.329E-01    0.235E+00
RMM:   5    -0.190537029240E+03    0.90856E-02   -0.10398E-02  2007   0.313E-01    0.133E+00
RMM:   6    -0.190533235794E+03    0.37934E-02   -0.43176E-03  1994   0.204E-01    0.434E-01
RMM:   7    -0.190536194612E+03   -0.29588E-02   -0.28868E-03  2000   0.159E-01    0.106E+00
RMM:   8    -0.190533716942E+03    0.24777E-02   -0.18679E-03  1988   0.135E-01    0.402E-01
RMM:   9    -0.190533844236E+03   -0.12729E-03   -0.93693E-04  1892   0.925E-02    0.410E-01
RMM:  10    -0.190534068570E+03   -0.22433E-03   -0.74463E-04  1903   0.824E-02    0.404E-01
RMM:  11    -0.190533641717E+03    0.42685E-03   -0.41542E-04  1600   0.676E-02    0.129E-01
RMM:  12    -0.190533712493E+03   -0.70776E-04   -0.96564E-05  1076   0.302E-02
  10 F= -.19053371E+03 E0= -.19054529E+03  d E =-.330005E-01  mag=    25.9525
quench:  g(F)=  0.000E+00 g(S)=  0.000E+00 dE (1.order)= 0.000E+00
 bond charge predicted
       N       E                     dE             d eps       ncg     rms          rms(c)
DAV:   1    -0.190536262201E+03   -0.26205E-02   -0.42182E+00  2004   0.382E+00    0.634E-01
RMM:   2    -0.190561683953E+03   -0.25422E-01   -0.20831E-01  2049   0.810E-01    0.161E+00
RMM:   3    -0.190556366273E+03    0.53177E-02   -0.19970E-02  2002   0.380E-01    0.156E+00
RMM:   4    -0.190568735382E+03   -0.12369E-01   -0.84115E-03  2030   0.254E-01    0.280E+00
RMM:   5    -0.190555218400E+03    0.13517E-01   -0.72915E-03  2005   0.253E-01    0.147E+00
RMM:   6    -0.190551130725E+03    0.40877E-02   -0.43714E-03  2001   0.201E-01    0.520E-01
RMM:   7    -0.190553490988E+03   -0.23603E-02   -0.30514E-03  1991   0.164E-01    0.102E+00
RMM:   8    -0.190551088877E+03    0.24021E-02   -0.20669E-03  1991   0.140E-01    0.380E-01
RMM:   9    -0.190551447399E+03   -0.35852E-03   -0.10762E-03  1945   0.987E-02    0.500E-01
RMM:  10    -0.190551321221E+03    0.12618E-03   -0.74268E-04  1859   0.826E-02    0.392E-01
RMM:  11    -0.190551023688E+03    0.29753E-03   -0.29651E-04  1383   0.574E-02    0.165E-01
RMM:  12    -0.190551120375E+03   -0.96686E-04   -0.13937E-04  1090   0.369E-02
  11 F= -.19055112E+03 E0= -.19056281E+03  d E =-.174079E-01  mag=    25.9145
quench:  g(F)=  0.000E+00 g(S)=  0.000E+00 dE (1.order)= 0.000E+00
 bond charge predicted
       N       E                     dE             d eps       ncg     rms          rms(c)
DAV:   1    -0.190558331613E+03   -0.73079E-02   -0.22337E-01  2040   0.826E-01    0.182E-01
RMM:   2    -0.190562026588E+03   -0.36950E-02   -0.13215E-02  2084   0.215E-01    0.104E+00
RMM:   3    -0.190560088683E+03    0.19379E-02   -0.16061E-03  2010   0.111E-01    0.630E-01
RMM:   4    -0.190559750821E+03    0.33786E-03   -0.74595E-04  1874   0.795E-02    0.484E-01
RMM:   5    -0.190559603526E+03    0.14730E-03   -0.63177E-04  1787   0.714E-02    0.344E-01
RMM:   6    -0.190559400176E+03    0.20335E-03   -0.38817E-04  1539   0.632E-02    0.157E-01
RMM:   7    -0.190559634601E+03   -0.23443E-03   -0.28877E-04  1316   0.525E-02    0.283E-01
RMM:   8    -0.190559611066E+03    0.23535E-04   -0.19763E-04  1138   0.500E-02
  12 F= -.19055961E+03 E0= -.19057128E+03  d E =-.849069E-02  mag=    25.9003
quench:  g(F)=  0.000E+00 g(S)=  0.000E+00 dE (1.order)= 0.000E+00
 bond charge predicted
       N       E                     dE             d eps       ncg     rms          rms(c)
DAV:   1    -0.190565448540E+03   -0.58139E-02   -0.39370E-01  2037   0.119E+00    0.206E-01
RMM:   2    -0.190568201285E+03   -0.27527E-02   -0.18958E-02  2262   0.249E-01    0.684E-01
RMM:   3    -0.190567217011E+03    0.98427E-03   -0.21059E-03  2009   0.127E-01    0.484E-01
RMM:   4    -0.190569081869E+03   -0.18649E-02   -0.95470E-04  1957   0.891E-02    0.101E+00
RMM:   5    -0.190567166523E+03    0.19153E-02   -0.73592E-04  1867   0.807E-02    0.437E-01
RMM:   6    -0.190566823280E+03    0.34324E-03   -0.41782E-04  1587   0.637E-02    0.167E-01
RMM:   7    -0.190567099843E+03   -0.27656E-03   -0.32361E-04  1418   0.556E-02    0.319E-01
RMM:   8    -0.190566918765E+03    0.18108E-03   -0.22694E-04  1185   0.518E-02    0.165E-01
RMM:   9    -0.190566887739E+03    0.31026E-04   -0.93588E-05  1077   0.325E-02
  13 F= -.19056689E+03 E0= -.19057856E+03  d E =-.727667E-02  mag=    25.8849
quench:  g(F)=  0.000E+00 g(S)=  0.000E+00 dE (1.order)= 0.000E+00
 bond charge predicted
       N       E                     dE             d eps       ncg     rms          rms(c)
DAV:   1    -0.190572916601E+03   -0.59978E-02   -0.51453E-01  2028   0.140E+00    0.251E-01
RMM:   2    -0.190580193663E+03   -0.72771E-02   -0.24771E-02  2024   0.340E-01    0.147E+00
RMM:   3    -0.190574360325E+03    0.58333E-02   -0.45499E-03  2017   0.202E-01    0.317E-01
RMM:   4    -0.190575225754E+03   -0.86543E-03   -0.15468E-03  1996   0.116E-01    0.540E-01
RMM:   5    -0.190575225476E+03    0.27877E-06   -0.73290E-04  1847   0.853E-02
  14 F= -.19057523E+03 E0= -.19058741E+03  d E =-.833774E-02  mag=    25.8788
quench:  g(F)=  0.000E+00 g(S)=  0.000E+00 dE (1.order)= 0.000E+00
 bond charge predicted
       N       E                     dE             d eps       ncg     rms          rms(c)
DAV:   1    -0.190580965949E+03   -0.57402E-02   -0.76293E-01  2004   0.176E+00    0.399E-01
RMM:   2    -0.190666431004E+03   -0.85465E-01   -0.45978E-02  2014   0.529E-01    0.581E+00
RMM:   3    -0.190582387525E+03    0.84043E-01   -0.14951E-02  2019   0.370E-01    0.111E+00
RMM:   4    -0.190583410373E+03   -0.10228E-02   -0.38333E-03  2012   0.190E-01    0.556E-01
RMM:   5    -0.190584892332E+03   -0.14820E-02   -0.20896E-03  1991   0.135E-01    0.833E-01
RMM:   6    -0.190583245266E+03    0.16471E-02   -0.14326E-03  1945   0.119E-01    0.319E-01
RMM:   7    -0.190583277155E+03   -0.31889E-04   -0.51151E-04  1676   0.690E-02
  15 F= -.19058328E+03 E0= -.19059511E+03  d E =-.805168E-02  mag=    25.8668
quench:  g(F)=  0.000E+00 g(S)=  0.000E+00 dE (1.order)= 0.000E+00
 bond charge predicted
       N       E                     dE             d eps       ncg     rms          rms(c)
DAV:   1    -0.190590079544E+03   -0.68343E-02   -0.10347E+00  1992   0.201E+00    0.452E-01
RMM:   2    -0.190625324847E+03   -0.35245E-01   -0.60587E-02  2013   0.614E-01    0.364E+00
RMM:   3    -0.190594481171E+03    0.30844E-01   -0.18147E-02  2021   0.421E-01    0.114E+00
RMM:   4    -0.190595267602E+03   -0.78643E-03   -0.27982E-03  2006   0.152E-01    0.110E+00
RMM:   5    -0.190594677713E+03    0.58989E-03   -0.23725E-03  1972   0.143E-01    0.915E-01
RMM:   6    -0.190593110252E+03    0.15675E-02   -0.16097E-03  1981   0.124E-01    0.373E-01
RMM:   7    -0.190592930305E+03    0.17995E-03   -0.51638E-04  1707   0.707E-02    0.208E-01
RMM:   8    -0.190593358062E+03   -0.42776E-03   -0.47228E-04  1659   0.645E-02    0.407E-01
RMM:   9    -0.190593046778E+03    0.31128E-03   -0.36756E-04  1504   0.645E-02    0.150E-01
RMM:  10    -0.190593086056E+03   -0.39278E-04   -0.14520E-04  1090   0.387E-02
  16 F= -.19059309E+03 E0= -.19060480E+03  d E =-.980890E-02  mag=    25.8500
quench:  g(F)=  0.000E+00 g(S)=  0.000E+00 dE (1.order)= 0.000E+00
 bond charge predicted
       N       E                     dE             d eps       ncg     rms          rms(c)
DAV:   1    -0.190599525900E+03   -0.64791E-02   -0.13392E+00  1992   0.225E+00    0.373E-01
RMM:   2    -0.190613794219E+03   -0.14268E-01   -0.58247E-02  2051   0.497E-01    0.201E+00
RMM:   3    -0.190603421315E+03    0.10373E-01   -0.83117E-03  2017   0.269E-01    0.508E-01
RMM:   4    -0.190606034067E+03   -0.26128E-02   -0.36169E-03  2013   0.178E-01    0.963E-01
RMM:   5    -0.190603997559E+03    0.20365E-02   -0.19097E-03  1982   0.140E-01    0.497E-01
RMM:   6    -0.190603957225E+03    0.40334E-04   -0.39777E-04  1605   0.609E-02
  17 F= -.19060396E+03 E0= -.19061542E+03  d E =-.108712E-01  mag=    25.8425
quench:  g(F)=  0.000E+00 g(S)=  0.000E+00 dE (1.order)= 0.000E+00
 bond charge predicted
       N       E                     dE             d eps       ncg     rms          rms(c)
DAV:   1    -0.190609879138E+03   -0.58816E-02   -0.16435E+00  1992   0.252E+00    0.502E-01
RMM:   2    -0.190667513271E+03   -0.57634E-01   -0.82824E-02  2012   0.664E-01    0.478E+00
RMM:   3    -0.190619905062E+03    0.47608E-01   -0.16822E-02  2020   0.389E-01    0.184E+00
RMM:   4    -0.190615503264E+03    0.44018E-02   -0.57210E-03  2010   0.225E-01    0.837E-01
RMM:   5    -0.190618030438E+03   -0.25272E-02   -0.42923E-03  1990   0.192E-01    0.117E+00
RMM:   6    -0.190614997195E+03    0.30332E-02   -0.27549E-03  1996   0.166E-01    0.473E-01
RMM:   7    -0.190614803864E+03    0.19333E-03   -0.80514E-04  1886   0.856E-02    0.283E-01
RMM:   8    -0.190615627308E+03   -0.82344E-03   -0.80463E-04  1920   0.842E-02    0.544E-01
RMM:   9    -0.190614909645E+03    0.71766E-03   -0.63982E-04  1778   0.814E-02    0.193E-01
RMM:  10    -0.190615062282E+03   -0.15264E-03   -0.29493E-04  1366   0.526E-02    0.260E-01
RMM:  11    -0.190614979434E+03    0.82849E-04   -0.16284E-04  1107   0.451E-02
  18 F= -.19061498E+03 E0= -.19062680E+03  d E =-.110222E-01  mag=    25.8236
quench:  g(F)=  0.000E+00 g(S)=  0.000E+00 dE (1.order)= 0.000E+00
 bond charge predicted
       N       E                     dE             d eps       ncg     rms          rms(c)
DAV:   1    -0.190620518865E+03   -0.54566E-02   -0.19236E+00  1992   0.268E+00    0.405E-01
RMM:   2    -0.190632089096E+03   -0.11570E-01   -0.77354E-02  2133   0.538E-01    0.134E+00
RMM:   3    -0.190627042016E+03    0.50471E-02   -0.80782E-03  2014   0.250E-01    0.762E-01
RMM:   4    -0.190638234171E+03   -0.11192E-01   -0.41213E-03  2015   0.185E-01    0.221E+00
RMM:   5    -0.190628017897E+03    0.10216E-01   -0.28973E-03  1988   0.163E-01    0.974E-01
RMM:   6    -0.190626322444E+03    0.16955E-02   -0.18787E-03  1971   0.135E-01    0.274E-01
RMM:   7    -0.190626791869E+03   -0.46942E-03   -0.69283E-04  1794   0.782E-02    0.417E-01
RMM:   8    -0.190626815835E+03   -0.23967E-04   -0.50684E-04  1645   0.697E-02
  19 F= -.19062682E+03 E0= -.19063876E+03  d E =-.118364E-01  mag=    25.8113
quench:  g(F)=  0.000E+00 g(S)=  0.000E+00 dE (1.order)= 0.000E+00
 bond charge predicted
       N       E                     dE             d eps       ncg     rms          rms(c)
DAV:   1    -0.190630789716E+03   -0.39978E-02   -0.20216E+00  1992   0.275E+00    0.428E-01
RMM:   2    -0.190645981078E+03   -0.15191E-01   -0.81916E-02  2245   0.548E-01    0.187E+00
RMM:   3    -0.190640936311E+03    0.50448E-02   -0.79899E-03  2019   0.241E-01    0.143E+00
RMM:   4    -0.190640496256E+03    0.44006E-03   -0.43603E-03  2016   0.193E-01    0.130E+00
RMM:   5    -0.190638029206E+03    0.24671E-02   -0.33935E-03  1998   0.174E-01    0.704E-01
RMM:   6    -0.190636902109E+03    0.11271E-02   -0.18312E-03  1977   0.132E-01    0.265E-01
RMM:   7    -0.190638003953E+03   -0.11018E-02   -0.96760E-04  1915   0.926E-02    0.650E-01
RMM:   8    -0.190637052943E+03    0.95101E-03   -0.71696E-04  1828   0.854E-02    0.219E-01
RMM:   9    -0.190637195974E+03   -0.14303E-03   -0.36840E-04  1524   0.595E-02    0.256E-01
RMM:  10    -0.190637288381E+03   -0.92407E-04   -0.25664E-04  1261   0.521E-02
  20 F= -.19063729E+03 E0= -.19064911E+03  d E =-.104725E-01  mag=    25.7946
quench:  g(F)=  0.000E+00 g(S)=  0.000E+00 dE (1.order)= 0.000E+00
 bond charge predicted
       N       E                     dE             d eps       ncg     rms          rms(c)
DAV:   1    -0.190639207517E+03   -0.20115E-02   -0.11995E+00  2004   0.201E+00    0.333E-01
RMM:   2    -0.190646929095E+03   -0.77216E-02   -0.57530E-02  2023   0.433E-01    0.102E+00
RMM:   3    -0.190643901736E+03    0.30274E-02   -0.53448E-03  2003   0.196E-01    0.675E-01
RMM:   4    -0.190649398161E+03   -0.54964E-02   -0.26065E-03  2025   0.142E-01    0.163E+00
RMM:   5    -0.190644081037E+03    0.53171E-02   -0.19594E-03  1987   0.128E-01    0.712E-01
RMM:   6    -0.190643289374E+03    0.79166E-03   -0.14207E-03  1975   0.115E-01    0.284E-01
RMM:   7    -0.190643953907E+03   -0.66453E-03   -0.89071E-04  1881   0.881E-02    0.552E-01
RMM:   8    -0.190643437656E+03    0.51625E-03   -0.64309E-04  1764   0.785E-02    0.304E-01
RMM:   9    -0.190643303461E+03    0.13419E-03   -0.37501E-04  1530   0.614E-02    0.169E-01
RMM:  10    -0.190643484477E+03   -0.18102E-03   -0.21928E-04  1198   0.470E-02    0.296E-01
RMM:  11    -0.190643294682E+03    0.18979E-03   -0.14040E-04  1088   0.430E-02    0.595E-02
RMM:  12    -0.190643326304E+03   -0.31622E-04   -0.35626E-05  1064   0.190E-02
  21 F= -.19064333E+03 E0= -.19065524E+03  d E =-.603792E-02  mag=    25.7803
quench:  g(F)=  0.000E+00 g(S)=  0.000E+00 dE (1.order)= 0.000E+00
 bond charge predicted
       N       E                     dE             d eps       ncg     rms          rms(c)
DAV:   1    -0.190645724922E+03   -0.24302E-02   -0.76739E-02  2058   0.483E-01    0.113E-01
RMM:   2    -0.190647505785E+03   -0.17809E-02   -0.47556E-03  2036   0.139E-01    0.780E-01
RMM:   3    -0.190646235904E+03    0.12699E-02   -0.78565E-04  1845   0.822E-02    0.344E-01
RMM:   4    -0.190646239734E+03   -0.38304E-05   -0.21292E-04  1159   0.449E-02
  22 F= -.19064624E+03 E0= -.19065833E+03  d E =-.291343E-02  mag=    25.7780
quench:  g(F)=  0.000E+00 g(S)=  0.000E+00 dE (1.order)= 0.000E+00
 bond charge predicted
       N       E                     dE             d eps       ncg     rms          rms(c)
DAV:   1    -0.190648390898E+03   -0.21550E-02   -0.12682E-01  2058   0.730E-01    0.236E-01
RMM:   2    -0.190661416338E+03   -0.13025E-01   -0.12825E-02  2002   0.316E-01    0.216E+00
RMM:   3    -0.190651751344E+03    0.96650E-02   -0.51111E-03  1996   0.223E-01    0.123E+00
RMM:   4    -0.190648734690E+03    0.30167E-02   -0.14345E-03  1977   0.114E-01    0.359E-01
RMM:   5    -0.190648788273E+03   -0.53583E-04   -0.48709E-04  1710   0.654E-02
  23 F= -.19064879E+03 E0= -.19066060E+03  d E =-.254854E-02  mag=    25.7751
quench:  g(F)=  0.000E+00 g(S)=  0.000E+00 dE (1.order)= 0.000E+00
 bond charge predicted
       N       E                     dE             d eps       ncg     rms          rms(c)
DAV:   1    -0.190651224720E+03   -0.24900E-02   -0.16100E-01  2016   0.820E-01    0.263E-01
RMM:   2    -0.190664853796E+03   -0.13629E-01   -0.15204E-02  2004   0.351E-01    0.230E+00
RMM:   3    -0.190651693668E+03    0.13160E-01   -0.77792E-03  2006   0.279E-01    0.513E-01
RMM:   4    -0.190651985953E+03   -0.29229E-03   -0.61483E-04  1815   0.705E-02    0.448E-01
RMM:   5    -0.190651995979E+03   -0.10025E-04   -0.39976E-04  1589   0.597E-02
  24 F= -.19065200E+03 E0= -.19066362E+03  d E =-.320771E-02  mag=    25.7721
quench:  g(F)=  0.000E+00 g(S)=  0.000E+00 dE (1.order)= 0.000E+00
 bond charge predicted
       N       E                     dE             d eps       ncg     rms          rms(c)
DAV:   1    -0.190654494989E+03   -0.25090E-02   -0.23509E-01  2001   0.996E-01    0.302E-01
RMM:   2    -0.190672402542E+03   -0.17908E-01   -0.21253E-02  2002   0.409E-01    0.259E+00
RMM:   3    -0.190655293718E+03    0.17109E-01   -0.98099E-03  2004   0.315E-01    0.654E-01
RMM:   4    -0.190655642731E+03   -0.34901E-03   -0.11613E-03  1977   0.986E-02    0.577E-01
RMM:   5    -0.190655272047E+03    0.37068E-03   -0.47823E-04  1703   0.640E-02    0.388E-01
RMM:   6    -0.190655395198E+03   -0.12315E-03   -0.42042E-04  1602   0.648E-02    0.398E-01
RMM:   7    -0.190655038488E+03    0.35671E-03   -0.26902E-04  1310   0.556E-02    0.784E-02
RMM:   8    -0.190655231735E+03   -0.19325E-03   -0.16162E-04  1086   0.391E-02    0.234E-01
RMM:   9    -0.190655093463E+03    0.13827E-03   -0.14066E-04  1088   0.428E-02    0.751E-02
RMM:  10    -0.190655118892E+03   -0.25429E-04   -0.42652E-05  1065   0.211E-02
  25 F= -.19065512E+03 E0= -.19066703E+03  d E =-.312291E-02  mag=    25.7647
quench:  g(F)=  0.000E+00 g(S)=  0.000E+00 dE (1.order)= 0.000E+00
 bond charge predicted
       N       E                     dE             d eps       ncg     rms          rms(c)
DAV:   1    -0.190658073435E+03   -0.29800E-02   -0.31983E-01  2004   0.109E+00    0.175E-01
RMM:   2    -0.190660934014E+03   -0.28606E-02   -0.12890E-02  2064   0.239E-01    0.853E-01
RMM:   3    -0.190658961790E+03    0.19722E-02   -0.18781E-03  2007   0.126E-01    0.256E-01
RMM:   4    -0.190659969080E+03   -0.10073E-02   -0.76141E-04  1869   0.810E-02    0.653E-01
RMM:   5    -0.190659914954E+03    0.54126E-04   -0.44364E-04  1636   0.651E-02
  26 F= -.19065991E+03 E0= -.19067142E+03  d E =-.479606E-02  mag=    25.7622
quench:  g(F)=  0.000E+00 g(S)=  0.000E+00 dE (1.order)= 0.000E+00
 bond charge predicted
       N       E                     dE             d eps       ncg     rms          rms(c)
DAV:   1    -0.190661964890E+03   -0.19958E-02   -0.41287E-01  1992   0.130E+00    0.221E-01
RMM:   2    -0.190666396363E+03   -0.44315E-02   -0.17527E-02  2035   0.286E-01    0.110E+00
RMM:   3    -0.190664300778E+03    0.20956E-02   -0.25415E-03  2014   0.145E-01    0.755E-01
RMM:   4    -0.190663908970E+03    0.39181E-03   -0.95667E-04  1937   0.903E-02    0.609E-01
RMM:   5    -0.190663953409E+03   -0.44439E-04   -0.90496E-04  1892   0.891E-02
  27 F= -.19066395E+03 E0= -.19067592E+03  d E =-.403845E-02  mag=    25.7591
quench:  g(F)=  0.000E+00 g(S)=  0.000E+00 dE (1.order)= 0.000E+00
 bond charge predicted
       N       E                     dE             d eps       ncg     rms          rms(c)
DAV:   1    -0.190666329422E+03   -0.24205E-02   -0.50722E-01  1992   0.144E+00    0.295E-01
RMM:   2    -0.190677194796E+03   -0.10865E-01   -0.25637E-02  2008   0.391E-01    0.189E+00
RMM:   3    -0.190667501376E+03    0.96934E-02   -0.66606E-03  2019   0.252E-01    0.373E-01
RMM:   4    -0.190669102712E+03   -0.16013E-02   -0.15522E-03  1983   0.115E-01    0.786E-01
RMM:   5    -0.190670004826E+03   -0.90211E-03   -0.91379E-04  1894   0.888E-02    0.998E-01
RMM:   6    -0.190667936247E+03    0.20686E-02   -0.77856E-04  1849   0.867E-02    0.332E-01
RMM:   7    -0.190667882869E+03    0.53378E-04   -0.43139E-04  1641   0.640E-02
  28 F= -.19066788E+03 E0= -.19067985E+03  d E =-.392946E-02  mag=    25.7539
quench:  g(F)=  0.000E+00 g(S)=  0.000E+00 dE (1.order)= 0.000E+00
 bond charge predicted
       N       E                     dE             d eps       ncg     rms          rms(c)
DAV:   1    -0.190671274540E+03   -0.33383E-02   -0.59778E-01  1992   0.152E+00    0.418E-01
RMM:   2    -0.190702298507E+03   -0.31024E-01   -0.42775E-02  2004   0.566E-01    0.346E+00
RMM:   3    -0.190672487853E+03    0.29811E-01   -0.19276E-02  2011   0.435E-01    0.731E-01
RMM:   4    -0.190674023853E+03   -0.15360E-02   -0.16532E-03  1986   0.114E-01    0.836E-01
RMM:   5    -0.190673947495E+03    0.76358E-04   -0.13308E-03  1964   0.107E-01    0.769E-01
RMM:   6    -0.190672917314E+03    0.10302E-02   -0.93108E-04  1903   0.945E-02    0.365E-01
RMM:   7    -0.190672698098E+03    0.21922E-03   -0.42483E-04  1613   0.648E-02    0.162E-01
RMM:   8    -0.190672977782E+03   -0.27968E-03   -0.30433E-04  1385   0.526E-02    0.316E-01
RMM:   9    -0.190672756661E+03    0.22112E-03   -0.24037E-04  1208   0.540E-02    0.109E-01
RMM:  10    -0.190672804480E+03   -0.47819E-04   -0.96670E-05  1074   0.316E-02
  29 F= -.19067280E+03 E0= -.19068478E+03  d E =-.492161E-02  mag=    25.7463
quench:  g(F)=  0.000E+00 g(S)=  0.000E+00 dE (1.order)= 0.000E+00
 bond charge predicted
       N       E                     dE             d eps       ncg     rms          rms(c)
DAV:   1    -0.190675712680E+03   -0.29560E-02   -0.68818E-01  1992   0.159E+00    0.262E-01
RMM:   2    -0.190682872323E+03   -0.71596E-02   -0.27239E-02  2053   0.353E-01    0.142E+00
RMM:   3    -0.190677570939E+03    0.53014E-02   -0.43932E-03  2015   0.196E-01    0.378E-01
RMM:   4    -0.190681006661E+03   -0.34357E-02   -0.14943E-03  1986   0.111E-01    0.120E+00
RMM:   5    -0.190678594595E+03    0.24121E-02   -0.10034E-03  1912   0.947E-02    0.684E-01
RMM:   6    -0.190677696556E+03    0.89804E-03   -0.77489E-04  1813   0.870E-02    0.230E-01
RMM:   7    -0.190677741355E+03   -0.44798E-04   -0.24138E-04  1233   0.482E-02
  30 F= -.19067774E+03 E0= -.19068973E+03  d E =-.493687E-02  mag=    25.7419
quench:  g(F)=  0.000E+00 g(S)=  0.000E+00 dE (1.order)= 0.000E+00
 bond charge predicted
       N       E                     dE             d eps       ncg     rms          rms(c)
DAV:   1    -0.190680193941E+03   -0.24974E-02   -0.68295E-01  1992   0.159E+00    0.349E-01
RMM:   2    -0.190698207115E+03   -0.18013E-01   -0.37753E-02  2008   0.474E-01    0.250E+00
RMM:   3    -0.190683680741E+03    0.14526E-01   -0.10554E-02  2010   0.316E-01    0.103E+00
RMM:   4    -0.190683085648E+03    0.59509E-03   -0.16715E-03  2000   0.116E-01    0.763E-01
RMM:   5    -0.190683286216E+03   -0.20057E-03   -0.15237E-03  1984   0.115E-01    0.753E-01
RMM:   6    -0.190682132504E+03    0.11537E-02   -0.10303E-03  1933   0.982E-02    0.272E-01
RMM:   7    -0.190682153620E+03   -0.21116E-04   -0.44173E-04  1630   0.644E-02
  31 F= -.19068215E+03 E0= -.19069410E+03  d E =-.441227E-02  mag=    25.7378
quench:  g(F)=  0.000E+00 g(S)=  0.000E+00 dE (1.order)= 0.000E+00
 bond charge predicted
       N       E                     dE             d eps       ncg     rms          rms(c)
DAV:   1    -0.190683819644E+03   -0.16871E-02   -0.33567E-01  2016   0.110E+00    0.419E-01
RMM:   2    -0.190722045397E+03   -0.38226E-01   -0.41328E-02  2004   0.570E-01    0.390E+00
RMM:   3    -0.190684022454E+03    0.38023E-01   -0.21230E-02  2001   0.459E-01    0.615E-01
RMM:   4    -0.190684491675E+03   -0.46922E-03   -0.20217E-03  1994   0.128E-01    0.276E-01
RMM:   5    -0.190685989722E+03   -0.14980E-02   -0.82378E-04  1874   0.828E-02    0.778E-01
RMM:   6    -0.190685241817E+03    0.74791E-03   -0.48993E-04  1674   0.669E-02    0.565E-01
RMM:   7    -0.190684606896E+03    0.63492E-03   -0.39830E-04  1599   0.631E-02    0.163E-01
RMM:   8    -0.190684778675E+03   -0.17178E-03   -0.25285E-04  1272   0.487E-02    0.268E-01
RMM:   9    -0.190684667739E+03    0.11094E-03   -0.17812E-04  1117   0.463E-02    0.140E-01
RMM:  10    -0.190684658223E+03    0.95162E-05   -0.76982E-05  1068   0.299E-02
  32 F= -.19068466E+03 E0= -.19069661E+03  d E =-.250460E-02  mag=    25.7319
quench:  g(F)=  0.000E+00 g(S)=  0.000E+00 dE (1.order)= 0.000E+00
 bond charge predicted
       N       E                     dE             d eps       ncg     rms          rms(c)
DAV:   1    -0.190685526171E+03   -0.85843E-03   -0.23069E-02  2040   0.293E-01    0.111E-01
RMM:   2    -0.190687827416E+03   -0.23012E-02   -0.31494E-03  2004   0.154E-01    0.903E-01
RMM:   3    -0.190685640946E+03    0.21865E-02   -0.14081E-03  1963   0.119E-01    0.226E-01
RMM:   4    -0.190685681612E+03   -0.40665E-04   -0.12870E-04  1122   0.339E-02
  33 F= -.19068568E+03 E0= -.19069755E+03  d E =-.102339E-02  mag=    25.7308
quench:  g(F)=  0.000E+00 g(S)=  0.000E+00 dE (1.order)= 0.000E+00
 bond charge predicted
       N       E                     dE             d eps       ncg     rms          rms(c)
DAV:   1    -0.190686619595E+03   -0.97865E-03   -0.37284E-02  1992   0.411E-01    0.177E-01
RMM:   2    -0.190712219614E+03   -0.25600E-01   -0.65351E-03  2004   0.235E-01    0.333E+00
RMM:   3    -0.190686029398E+03    0.26190E-01   -0.42508E-03  1980   0.202E-01    0.555E-01
RMM:   4    -0.190686655971E+03   -0.62657E-03   -0.80855E-04  1854   0.873E-02    0.174E-01
RMM:   5    -0.190686822632E+03   -0.16666E-03   -0.25181E-04  1231   0.491E-02    0.227E-01
RMM:   6    -0.190686737102E+03    0.85530E-04   -0.14746E-04  1097   0.446E-02
  34 F= -.19068674E+03 E0= -.19069878E+03  d E =-.105549E-02  mag=    25.7287
quench:  g(F)=  0.000E+00 g(S)=  0.000E+00 dE (1.order)= 0.000E+00
 bond charge predicted
       N       E                     dE             d eps       ncg     rms          rms(c)
DAV:   1    -0.190687825517E+03   -0.10029E-02   -0.49729E-02  2004   0.443E-01    0.933E-02
RMM:   2    -0.190689317729E+03   -0.14922E-02   -0.24203E-03  2009   0.122E-01    0.747E-01
RMM:   3    -0.190688070189E+03    0.12475E-02   -0.65819E-04  1775   0.792E-02    0.292E-01
RMM:   4    -0.190688040143E+03    0.30046E-04   -0.12600E-04  1129   0.347E-02
  35 F= -.19068804E+03 E0= -.19069990E+03  d E =-.130304E-02  mag=    25.7275
quench:  g(F)=  0.000E+00 g(S)=  0.000E+00 dE (1.order)= 0.000E+00
 bond charge predicted
       N       E                     dE             d eps       ncg     rms          rms(c)
DAV:   1    -0.190689371421E+03   -0.13012E-02   -0.72275E-02  2004   0.555E-01    0.217E-01
RMM:   2    -0.190700566774E+03   -0.11195E-01   -0.10220E-02  1999   0.296E-01    0.206E+00
RMM:   3    -0.190690279164E+03    0.10288E-01   -0.55687E-03  1990   0.235E-01    0.739E-01
RMM:   4    -0.190689615902E+03    0.66326E-03   -0.62981E-04  1784   0.736E-02    0.343E-01
RMM:   5    -0.190689472162E+03    0.14374E-03   -0.20499E-04  1170   0.442E-02    0.145E-01
RMM:   6    -0.190689590685E+03   -0.11852E-03   -0.15856E-04  1099   0.415E-02    0.214E-01
RMM:   7    -0.190689476536E+03    0.11415E-03   -0.99825E-05  1065   0.367E-02    0.706E-02
RMM:   8    -0.190689506313E+03   -0.29777E-04   -0.45610E-05  1049   0.214E-02
  36 F= -.19068951E+03 E0= -.19070152E+03  d E =-.146617E-02  mag=    25.7247
quench:  g(F)=  0.000E+00 g(S)=  0.000E+00 dE (1.order)= 0.000E+00
 bond charge predicted
       N       E                     dE             d eps       ncg     rms          rms(c)
DAV:   1    -0.190690912902E+03   -0.14364E-02   -0.96596E-02  1992   0.601E-01    0.116E-01
RMM:   2    -0.190693220344E+03   -0.23074E-02   -0.43355E-03  2013   0.160E-01    0.938E-01
RMM:   3    -0.190691559819E+03    0.16605E-02   -0.10363E-03  1960   0.979E-02    0.459E-01
RMM:   4    -0.190691201020E+03    0.35880E-03   -0.22536E-04  1184   0.461E-02    0.205E-01
RMM:   5    -0.190691314181E+03   -0.11316E-03   -0.21274E-04  1156   0.460E-02    0.252E-01
RMM:   6    -0.190691165849E+03    0.14833E-03   -0.13624E-04  1073   0.421E-02    0.696E-02
RMM:   7    -0.190691186626E+03   -0.20777E-04   -0.40962E-05  1052   0.207E-02
  37 F= -.19069119E+03 E0= -.19070321E+03  d E =-.168031E-02  mag=    25.7226
quench:  g(F)=  0.000E+00 g(S)=  0.000E+00 dE (1.order)= 0.000E+00
 bond charge predicted
       N       E                     dE             d eps       ncg     rms          rms(c)
DAV:   1    -0.190692723409E+03   -0.15576E-02   -0.12468E-01  1992   0.679E-01    0.146E-01
RMM:   2    -0.190696009216E+03   -0.32858E-02   -0.62396E-03  2008   0.199E-01    0.109E+00
RMM:   3    -0.190693123821E+03    0.28854E-02   -0.19246E-03  2002   0.136E-01    0.327E-01
RMM:   4    -0.190693293237E+03   -0.16942E-03   -0.29186E-04  1329   0.507E-02    0.367E-01
RMM:   5    -0.190693209696E+03    0.83540E-04   -0.23425E-04  1173   0.474E-02
  38 F= -.19069321E+03 E0= -.19070508E+03  d E =-.202307E-02  mag=    25.7213
quench:  g(F)=  0.000E+00 g(S)=  0.000E+00 dE (1.order)= 0.000E+00
 bond charge predicted
       N       E                     dE             d eps       ncg     rms          rms(c)
DAV:   1    -0.190694617859E+03   -0.13246E-02   -0.15533E-01  1992   0.788E-01    0.189E-01
RMM:   2    -0.190700260556E+03   -0.56427E-02   -0.90181E-03  2004   0.250E-01    0.148E+00
RMM:   3    -0.190694928514E+03    0.53320E-02   -0.33166E-03  2005   0.179E-01    0.311E-01
RMM:   4    -0.190695104506E+03   -0.17599E-03   -0.58204E-04  1745   0.711E-02    0.237E-01
RMM:   5    -0.190695385526E+03   -0.28102E-03   -0.27144E-04  1303   0.522E-02    0.386E-01
RMM:   6    -0.190695199031E+03    0.18649E-03   -0.15025E-04  1129   0.426E-02    0.293E-01
RMM:   7    -0.190695034840E+03    0.16419E-03   -0.10440E-04  1103   0.335E-02    0.972E-02
RMM:   8    -0.190695160622E+03   -0.12578E-03   -0.10833E-04  1080   0.323E-02    0.219E-01
RMM:   9    -0.190695055102E+03    0.10552E-03   -0.90682E-05  1062   0.345E-02    0.523E-02
RMM:  10    -0.190695071412E+03   -0.16309E-04   -0.34110E-05  1073   0.187E-02
  39 F= -.19069507E+03 E0= -.19070708E+03  d E =-.186172E-02  mag=    25.7178
quench:  g(F)=  0.000E+00 g(S)=  0.000E+00 dE (1.order)= 0.000E+00
 bond charge predicted
       N       E                     dE             d eps       ncg     rms          rms(c)
DAV:   1    -0.190696641290E+03   -0.15862E-02   -0.18459E-01  1998   0.820E-01    0.132E-01
RMM:   2    -0.190698585791E+03   -0.19445E-02   -0.69498E-03  2057   0.182E-01    0.711E-01
RMM:   3    -0.190697318224E+03    0.12676E-02   -0.11089E-03  1963   0.986E-02    0.363E-01
RMM:   4    -0.190697486137E+03   -0.16791E-03   -0.28431E-04  1294   0.502E-02    0.419E-01
RMM:   5    -0.190697337983E+03    0.14815E-03   -0.30185E-04  1379   0.557E-02    0.302E-01
RMM:   6    -0.190697131410E+03    0.20657E-03   -0.18771E-04  1114   0.484E-02    0.969E-02
RMM:   7    -0.190697162676E+03   -0.31265E-04   -0.62486E-05  1063   0.250E-02
  40 F= -.19069716E+03 E0= -.19070916E+03  d E =-.209126E-02  mag=    25.7159
quench:  g(F)=  0.000E+00 g(S)=  0.000E+00 dE (1.order)= 0.000E+00
 bond charge predicted
       N       E                     dE             d eps       ncg     rms          rms(c)
DAV:   1    -0.190698780178E+03   -0.16488E-02   -0.20903E-01  1992   0.880E-01    0.170E-01
RMM:   2    -0.190701989883E+03   -0.32097E-02   -0.90830E-03  2009   0.231E-01    0.997E-01
RMM:   3    -0.190699332927E+03    0.26570E-02   -0.23002E-03  2006   0.146E-01    0.332E-01
RMM:   4    -0.190699754246E+03   -0.42132E-03   -0.53112E-04  1746   0.671E-02    0.466E-01
RMM:   5    -0.190699884993E+03   -0.13075E-03   -0.30360E-04  1366   0.529E-02    0.521E-01
RMM:   6    -0.190699288514E+03    0.59648E-03   -0.28976E-04  1335   0.573E-02    0.142E-01
RMM:   7    -0.190699304223E+03   -0.15709E-04   -0.11525E-04  1089   0.353E-02
  41 F= -.19069930E+03 E0= -.19071132E+03  d E =-.214155E-02  mag=    25.7139
quench:  g(F)=  0.000E+00 g(S)=  0.000E+00 dE (1.order)= 0.000E+00
 bond charge predicted
       N       E                     dE             d eps       ncg     rms          rms(c)
DAV:   1    -0.190700913639E+03   -0.16251E-02   -0.23477E-01  1992   0.934E-01    0.245E-01
RMM:   2    -0.190712780516E+03   -0.11867E-01   -0.15390E-02  2003   0.337E-01    0.209E+00
RMM:   3    -0.190701183597E+03    0.11597E-01   -0.66371E-03  2008   0.257E-01    0.366E-01
RMM:   4    -0.190701742909E+03   -0.55931E-03   -0.78471E-04  1874   0.795E-02    0.429E-01
RMM:   5    -0.190702063724E+03   -0.32082E-03   -0.36568E-04  1533   0.563E-02    0.551E-01
RMM:   6    -0.190701537809E+03    0.52592E-03   -0.33205E-04  1452   0.597E-02    0.281E-01
RMM:   7    -0.190701408477E+03    0.12933E-03   -0.15698E-04  1105   0.425E-02    0.994E-02
RMM:   8    -0.190701497459E+03   -0.88982E-04   -0.12776E-04  1072   0.352E-02
  42 F= -.19070150E+03 E0= -.19071355E+03  d E =-.219324E-02  mag=    25.7113
quench:  g(F)=  0.000E+00 g(S)=  0.000E+00 dE (1.order)= 0.000E+00
 bond charge predicted
       N       E                     dE             d eps       ncg     rms          rms(c)
DAV:   1    -0.190702430472E+03   -0.10220E-02   -0.18871E-01  1992   0.821E-01    0.140E-01
RMM:   2    -0.190703711649E+03   -0.12812E-02   -0.86458E-03  2091   0.179E-01    0.519E-01
RMM:   3    -0.190703107039E+03    0.60461E-03   -0.10508E-03  1934   0.904E-02    0.299E-01
RMM:   4    -0.190703416307E+03   -0.30927E-03   -0.43374E-04  1605   0.613E-02    0.429E-01
RMM:   5    -0.190703181225E+03    0.23508E-03   -0.20261E-04  1150   0.480E-02    0.338E-01
RMM:   6    -0.190702960481E+03    0.22074E-03   -0.13740E-04  1117   0.377E-02    0.106E-01
RMM:   7    -0.190703100911E+03   -0.14043E-03   -0.14259E-04  1088   0.373E-02    0.231E-01
RMM:   8    -0.190702986167E+03    0.11474E-03   -0.11564E-04  1073   0.390E-02    0.793E-02
RMM:   9    -0.190703007085E+03   -0.20918E-04   -0.58629E-05  1060   0.249E-02
  43 F= -.19070301E+03 E0= -.19071501E+03  d E =-.150963E-02  mag=    25.7083
quench:  g(F)=  0.000E+00 g(S)=  0.000E+00 dE (1.order)= 0.000E+00
 bond charge predicted
       N       E                     dE             d eps       ncg     rms          rms(c)
DAV:   1    -0.190703526246E+03   -0.54008E-03   -0.21942E-02  2058   0.283E-01    0.138E-01
RMM:   2    -0.190708417865E+03   -0.48916E-02   -0.41238E-03  2002   0.189E-01    0.144E+00
RMM:   3    -0.190703690993E+03    0.47269E-02   -0.23165E-03  1965   0.154E-01    0.373E-01
RMM:   4    -0.190703637513E+03    0.53480E-04   -0.18275E-04  1157   0.407E-02
  44 F= -.19070364E+03 E0= -.19071578E+03  d E =-.630428E-03  mag=    25.7076
quench:  g(F)=  0.000E+00 g(S)=  0.000E+00 dE (1.order)= 0.000E+00
 bond charge predicted
       N       E                     dE             d eps       ncg     rms          rms(c)
DAV:   1    -0.190704102452E+03   -0.41146E-03   -0.19461E-02  2076   0.325E-01    0.106E-01
RMM:   2    -0.190709938800E+03   -0.58363E-02   -0.21704E-03  2009   0.139E-01    0.155E+00
RMM:   3    -0.190704264575E+03    0.56742E-02   -0.11804E-03  1929   0.106E-01    0.423E-01
RMM:   4    -0.190704139101E+03    0.12547E-03   -0.35163E-04  1511   0.581E-02    0.126E-01
RMM:   5    -0.190704189398E+03   -0.50297E-04   -0.11047E-04  1093   0.322E-02
  45 F= -.19070419E+03 E0= -.19071622E+03  d E =-.551885E-03  mag=    25.7067
quench:  g(F)=  0.000E+00 g(S)=  0.000E+00 dE (1.order)= 0.000E+00
 bond charge predicted
       N       E                     dE             d eps       ncg     rms          rms(c)
DAV:   1    -0.190704757807E+03   -0.61871E-03   -0.21465E-02  2010   0.312E-01    0.115E-01
RMM:   2    -0.190708039317E+03   -0.32815E-02   -0.27124E-03  2000   0.156E-01    0.114E+00
RMM:   3    -0.190705250643E+03    0.27887E-02   -0.14494E-03  1960   0.121E-01    0.507E-01
RMM:   4    -0.190704797214E+03    0.45343E-03   -0.20549E-04  1174   0.442E-02    0.156E-01
RMM:   5    -0.190704806979E+03   -0.97647E-05   -0.10172E-04  1090   0.314E-02
  46 F= -.19070481E+03 E0= -.19071683E+03  d E =-.617581E-03  mag=    25.7059
quench:  g(F)=  0.000E+00 g(S)=  0.000E+00 dE (1.order)= 0.000E+00
 bond charge predicted
       N       E                     dE             d eps       ncg     rms          rms(c)
DAV:   1    -0.190705483258E+03   -0.68604E-03   -0.28655E-02  1992   0.346E-01    0.134E-01
RMM:   2    -0.190709557776E+03   -0.40745E-02   -0.36802E-03  2002   0.182E-01    0.130E+00
RMM:   3    -0.190705511449E+03    0.40463E-02   -0.21474E-03  1974   0.148E-01    0.299E-01
RMM:   4    -0.190705613375E+03   -0.10193E-03   -0.18092E-04  1153   0.407E-02    0.233E-01
RMM:   5    -0.190705532609E+03    0.80765E-04   -0.88246E-05  1092   0.287E-02
  47 F= -.19070553E+03 E0= -.19071759E+03  d E =-.725630E-03  mag=    25.7050
quench:  g(F)=  0.000E+00 g(S)=  0.000E+00 dE (1.order)= 0.000E+00
 bond charge predicted
       N       E                     dE             d eps       ncg     rms          rms(c)
DAV:   1    -0.190706287825E+03   -0.67445E-03   -0.36362E-02  1992   0.392E-01    0.162E-01
RMM:   2    -0.190713030241E+03   -0.67424E-02   -0.51291E-03  2001   0.215E-01    0.165E+00
RMM:   3    -0.190706969752E+03    0.60605E-02   -0.30442E-03  1977   0.175E-01    0.646E-01
RMM:   4    -0.190706336868E+03    0.63288E-03   -0.34601E-04  1482   0.557E-02    0.195E-01
RMM:   5    -0.190706352242E+03   -0.15374E-04   -0.15692E-04  1109   0.390E-02
  48 F= -.19070635E+03 E0= -.19071838E+03  d E =-.819633E-03  mag=    25.7043
quench:  g(F)=  0.000E+00 g(S)=  0.000E+00 dE (1.order)= 0.000E+00
 bond charge predicted
       N       E                     dE             d eps       ncg     rms          rms(c)
DAV:   1    -0.190707159317E+03   -0.82245E-03   -0.44661E-02  1992   0.436E-01    0.188E-01
RMM:   2    -0.190715264054E+03   -0.81047E-02   -0.70853E-03  2002   0.254E-01    0.184E+00
RMM:   3    -0.190707038041E+03    0.82260E-02   -0.43908E-03  1983   0.211E-01    0.314E-01
RMM:   4    -0.190707225295E+03   -0.18725E-03   -0.40220E-04  1574   0.590E-02    0.190E-01
RMM:   5    -0.190707342652E+03   -0.11736E-03   -0.10246E-04  1117   0.308E-02    0.268E-01
RMM:   6    -0.190707293241E+03    0.49411E-04   -0.10394E-04  1110   0.331E-02
  49 F= -.19070729E+03 E0= -.19071942E+03  d E =-.940999E-03  mag=    25.7032
quench:  g(F)=  0.000E+00 g(S)=  0.000E+00 dE (1.order)= 0.000E+00
 bond charge predicted
       N       E                     dE             d eps       ncg     rms          rms(c)
DAV:   1    -0.190707972445E+03   -0.62979E-03   -0.50672E-02  1992   0.457E-01    0.823E-02
RMM:   2    -0.190708402227E+03   -0.42978E-03   -0.18483E-03  1974   0.948E-02    0.354E-01
RMM:   3    -0.190708154926E+03    0.24730E-03   -0.30763E-04  1338   0.528E-02    0.199E-01
RMM:   4    -0.190708391487E+03   -0.23656E-03   -0.12867E-04  1127   0.355E-02    0.371E-01
RMM:   5    -0.190708128634E+03    0.26285E-03   -0.11092E-04  1123   0.358E-02    0.153E-01
RMM:   6    -0.190708098319E+03    0.30315E-04   -0.47892E-05  1074   0.240E-02
  50 F= -.19070810E+03 E0= -.19072012E+03  d E =-.805078E-03  mag=    25.7020
quench:  g(F)=  0.000E+00 g(S)=  0.000E+00 dE (1.order)= 0.000E+00
 bond charge predicted
       N       E                     dE             d eps       ncg     rms          rms(c)
DAV:   1    -0.190708930371E+03   -0.80174E-03   -0.56863E-02  1992   0.468E-01    0.146E-01
RMM:   2    -0.190713118513E+03   -0.41881E-02   -0.45957E-03  2008   0.195E-01    0.128E+00
RMM:   3    -0.190708938287E+03    0.41802E-02   -0.23837E-03  1986   0.155E-01    0.251E-01
RMM:   4    -0.190709107890E+03   -0.16960E-03   -0.28160E-04  1318   0.500E-02    0.240E-01
RMM:   5    -0.190709166104E+03   -0.58213E-04   -0.11277E-04  1118   0.327E-02
  51 F= -.19070917E+03 E0= -.19072137E+03  d E =-.106778E-02  mag=    25.7011
quench:  g(F)=  0.000E+00 g(S)=  0.000E+00 dE (1.order)= 0.000E+00
 bond charge predicted
       N       E                     dE             d eps       ncg     rms          rms(c)
DAV:   1    -0.190709722136E+03   -0.61425E-03   -0.47537E-02  1992   0.463E-01    0.176E-01
RMM:   2    -0.190719214851E+03   -0.94927E-02   -0.62877E-03  2010   0.234E-01    0.199E+00
RMM:   3    -0.190711044996E+03    0.81699E-02   -0.33467E-03  1989   0.180E-01    0.846E-01
RMM:   4    -0.190709801272E+03    0.12437E-02   -0.64604E-04  1809   0.766E-02    0.219E-01
RMM:   5    -0.190709858773E+03   -0.57501E-04   -0.23729E-04  1199   0.473E-02
  52 F= -.19070986E+03 E0= -.19072189E+03  d E =-.692670E-03  mag=    25.7002
quench:  g(F)=  0.000E+00 g(S)=  0.000E+00 dE (1.order)= 0.000E+00
 bond charge predicted
       N       E                     dE             d eps       ncg     rms          rms(c)
DAV:   1    -0.190710180593E+03   -0.37932E-03   -0.16485E-02  2208   0.301E-01    0.183E-01
RMM:   2    -0.190718496706E+03   -0.83161E-02   -0.67542E-03  2001   0.249E-01    0.186E+00
RMM:   3    -0.190709965082E+03    0.85316E-02   -0.44204E-03  1973   0.211E-01    0.273E-01
RMM:   4    -0.190710162298E+03   -0.19722E-03   -0.31318E-04  1426   0.525E-02    0.111E-01
RMM:   5    -0.190710260283E+03   -0.97985E-04   -0.81834E-05  1091   0.276E-02
  53 F= -.19071026E+03 E0= -.19072243E+03  d E =-.401510E-03  mag=    25.6992
quench:  g(F)=  0.000E+00 g(S)=  0.000E+00 dE (1.order)= 0.000E+00
 bond charge predicted
       N       E                     dE             d eps       ncg     rms          rms(c)
DAV:   1    -0.190710518104E+03   -0.35581E-03   -0.47833E-03  2652   0.233E-01    0.214E-01
RMM:   2    -0.190748693056E+03   -0.38175E-01   -0.89631E-03  1995   0.282E-01    0.397E+00
RMM:   3    -0.190710314927E+03    0.38378E-01   -0.65574E-03  1964   0.253E-01    0.812E-01
RMM:   4    -0.190710339987E+03   -0.25060E-04   -0.12045E-03  1951   0.107E-01    0.186E-01
RMM:   5    -0.190710523498E+03   -0.18351E-03   -0.28192E-04  1347   0.508E-02    0.193E-01
RMM:   6    -0.190710537512E+03   -0.14015E-04   -0.14415E-04  1096   0.410E-02
  54 F= -.19071054E+03 E0= -.19072249E+03  d E =-.277229E-03  mag=    25.6982
quench:  g(F)=  0.000E+00 g(S)=  0.000E+00 dE (1.order)= 0.000E+00
 bond charge predicted
       N       E                     dE             d eps       ncg     rms          rms(c)
DAV:   1    -0.190710693376E+03   -0.16988E-03   -0.61017E-03  2412   0.213E-01    0.372E-02
RMM:   2    -0.190710912136E+03   -0.21876E-03   -0.30122E-04  1239   0.489E-02    0.288E-01
RMM:   3    -0.190710781920E+03    0.13022E-03   -0.11067E-04  1112   0.374E-02    0.160E-01
RMM:   4    -0.190710737349E+03    0.44570E-04   -0.34022E-05  1075   0.182E-02
  55 F= -.19071074E+03 E0= -.19072281E+03  d E =-.199837E-03  mag=    25.6975
quench:  g(F)=  0.000E+00 g(S)=  0.000E+00 dE (1.order)= 0.000E+00
 bond charge predicted
       N       E                     dE             d eps       ncg     rms          rms(c)
DAV:   1    -0.190711085437E+03   -0.30352E-03   -0.83964E-03  2052   0.187E-01    0.811E-02
RMM:   2    -0.190712570583E+03   -0.14851E-02   -0.12945E-03  1992   0.108E-01    0.785E-01
RMM:   3    -0.190711034739E+03    0.15358E-02   -0.81649E-04  1826   0.908E-02    0.120E-01
RMM:   4    -0.190711086173E+03   -0.51434E-04   -0.61873E-05  1091   0.238E-02
  56 F= -.19071109E+03 E0= -.19072317E+03  d E =-.348824E-03  mag=    25.6971
quench:  g(F)=  0.000E+00 g(S)=  0.000E+00 dE (1.order)= 0.000E+00
 bond charge predicted
       N       E                     dE             d eps       ncg     rms          rms(c)
DAV:   1    -0.190711503721E+03   -0.46898E-03   -0.11304E-02  2010   0.231E-01    0.142E-01
RMM:   2    -0.190732429389E+03   -0.20926E-01   -0.40006E-03  1999   0.186E-01    0.297E+00
RMM:   3    -0.190710704793E+03    0.21725E-01   -0.31810E-03  1967   0.176E-01    0.269E-01
RMM:   4    -0.190711479662E+03   -0.77487E-03   -0.39761E-04  1588   0.633E-02    0.127E-01
RMM:   5    -0.190711605102E+03   -0.12544E-03   -0.14119E-04  1115   0.377E-02    0.209E-01
RMM:   6    -0.190711511420E+03    0.93682E-04   -0.93013E-05  1076   0.356E-02
  57 F= -.19071151E+03 E0= -.19072355E+03  d E =-.425247E-03  mag=    25.6962
quench:  g(F)=  0.000E+00 g(S)=  0.000E+00 dE (1.order)= 0.000E+00
 bond charge predicted
       N       E                     dE             d eps       ncg     rms          rms(c)
DAV:   1    -0.190711900374E+03   -0.29527E-03   -0.13815E-02  2076   0.231E-01    0.474E-02
RMM:   2    -0.190712319906E+03   -0.41953E-03   -0.51101E-04  1359   0.558E-02    0.419E-01
RMM:   3    -0.190711944983E+03    0.37492E-03   -0.15386E-04  1124   0.431E-02    0.147E-01
RMM:   4    -0.190711939980E+03    0.50029E-05   -0.61653E-05  1082   0.246E-02
  58 F= -.19071194E+03 E0= -.19072400E+03  d E =-.428560E-03  mag=    25.6957
quench:  g(F)=  0.000E+00 g(S)=  0.000E+00 dE (1.order)= 0.000E+00
 bond charge predicted
       N       E                     dE             d eps       ncg     rms          rms(c)
DAV:   1    -0.190712373907E+03   -0.42892E-03   -0.17445E-02  2022   0.269E-01    0.104E-01
RMM:   2    -0.190714857965E+03   -0.24841E-02   -0.21729E-03  2004   0.139E-01    0.102E+00
RMM:   3    -0.190712396974E+03    0.24610E-02   -0.12752E-03  1921   0.113E-01    0.222E-01
RMM:   4    -0.190712438756E+03   -0.41782E-04   -0.10965E-04  1115   0.318E-02
  59 F= -.19071244E+03 E0= -.19072459E+03  d E =-.498776E-03  mag=    25.6952
quench:  g(F)=  0.000E+00 g(S)=  0.000E+00 dE (1.order)= 0.000E+00
 bond charge predicted
       N       E                     dE             d eps       ncg     rms          rms(c)
DAV:   1    -0.190712852884E+03   -0.45591E-03   -0.18932E-02  2001   0.297E-01    0.113E-01
RMM:   2    -0.190720879816E+03   -0.80269E-02   -0.24372E-03  2003   0.146E-01    0.184E+00
RMM:   3    -0.190712856076E+03    0.80237E-02   -0.15037E-03  1952   0.120E-01    0.396E-01
RMM:   4    -0.190712867226E+03   -0.11150E-04   -0.33362E-04  1478   0.571E-02
  60 F= -.19071287E+03 E0= -.19072490E+03  d E =-.428470E-03  mag=    25.6947
quench:  g(F)=  0.000E+00 g(S)=  0.000E+00 dE (1.order)= 0.000E+00
 bond charge predicted
       N       E                     dE             d eps       ncg     rms          rms(c)
DAV:   1    -0.190713312667E+03   -0.45659E-03   -0.19740E-02  2037   0.312E-01    0.161E-01
RMM:   2    -0.190720003835E+03   -0.66912E-02   -0.49252E-03  2004   0.215E-01    0.167E+00
RMM:   3    -0.190713511674E+03    0.64922E-02   -0.32027E-03  1979   0.180E-01    0.457E-01
RMM:   4    -0.190713376180E+03    0.13549E-03   -0.25501E-04  1261   0.483E-02    0.233E-01
RMM:   5    -0.190713307956E+03    0.68225E-04   -0.11009E-04  1105   0.321E-02
  61 F= -.19071331E+03 E0= -.19072530E+03  d E =-.440729E-03  mag=    25.6939
quench:  g(F)=  0.000E+00 g(S)=  0.000E+00 dE (1.order)= 0.000E+00
 bond charge predicted
       N       E                     dE             d eps       ncg     rms          rms(c)
DAV:   1    -0.190713571922E+03   -0.19574E-03   -0.80351E-03  2403   0.210E-01    0.135E-01
RMM:   2    -0.190716982600E+03   -0.34107E-02   -0.38038E-03  1998   0.189E-01    0.108E+00
RMM:   3    -0.190713539006E+03    0.34436E-02   -0.24242E-03  1967   0.156E-01    0.230E-01
RMM:   4    -0.190713607824E+03   -0.68818E-04   -0.13333E-04  1133   0.340E-02
  62 F= -.19071361E+03 E0= -.19072579E+03  d E =-.299868E-03  mag=    25.6934
quench:  g(F)=  0.000E+00 g(S)=  0.000E+00 dE (1.order)= 0.000E+00
 bond charge predicted
       N       E                     dE             d eps       ncg     rms          rms(c)
DAV:   1    -0.190713718740E+03   -0.17973E-03   -0.27043E-03  2538   0.170E-01    0.956E-02
RMM:   2    -0.190720913597E+03   -0.71949E-02   -0.17227E-03  1984   0.126E-01    0.174E+00
RMM:   3    -0.190713613050E+03    0.73005E-02   -0.12483E-03  1920   0.110E-01    0.346E-01
RMM:   4    -0.190713706807E+03   -0.93758E-04   -0.23025E-04  1219   0.489E-02
  63 F= -.19071371E+03 E0= -.19072576E+03  d E =-.989835E-04  mag=    25.6929
quench:  g(F)=  0.000E+00 g(S)=  0.000E+00 dE (1.order)= 0.000E+00
 bond charge predicted
       N       E                     dE             d eps       ncg     rms          rms(c)
DAV:   1    -0.190713893279E+03   -0.28023E-03   -0.23581E-03  2610   0.156E-01    0.857E-02
RMM:   2    -0.190715742081E+03   -0.18488E-02   -0.14079E-03  1988   0.119E-01    0.850E-01
RMM:   3    -0.190714284434E+03    0.14576E-02   -0.80271E-04  1847   0.897E-02    0.455E-01
RMM:   4    -0.190713890108E+03    0.39433E-03   -0.17203E-04  1140   0.408E-02    0.149E-01
RMM:   5    -0.190713869463E+03    0.20646E-04   -0.56064E-05  1078   0.229E-02
  64 F= -.19071387E+03 E0= -.19072591E+03  d E =-.162655E-03  mag=    25.6923
quench:  g(F)=  0.000E+00 g(S)=  0.000E+00 dE (1.order)= 0.000E+00
 bond charge predicted
       N       E                     dE             d eps       ncg     rms          rms(c)
DAV:   1    -0.190714074612E+03   -0.18450E-03   -0.34986E-03  2064   0.130E-01    0.747E-02
RMM:   2    -0.190715280111E+03   -0.12055E-02   -0.10768E-03  1968   0.101E-01    0.683E-01
RMM:   3    -0.190714047432E+03    0.12327E-02   -0.72146E-04  1830   0.859E-02    0.130E-01
RMM:   4    -0.190714077992E+03   -0.30560E-04   -0.40626E-05  1088   0.188E-02
  65 F= -.19071408E+03 E0= -.19072620E+03  d E =-.208529E-03  mag=    25.6919
quench:  g(F)=  0.000E+00 g(S)=  0.000E+00 dE (1.order)= 0.000E+00
 bond charge predicted
       N       E                     dE             d eps       ncg     rms          rms(c)
DAV:   1    -0.190714297742E+03   -0.25031E-03   -0.46756E-03  2037   0.149E-01    0.658E-02
RMM:   2    -0.190717459962E+03   -0.31622E-02   -0.82204E-04  1904   0.855E-02    0.117E+00
RMM:   3    -0.190714230818E+03    0.32291E-02   -0.56347E-04  1752   0.753E-02    0.225E-01
RMM:   4    -0.190714294320E+03   -0.63503E-04   -0.10188E-04  1133   0.326E-02
  66 F= -.19071429E+03 E0= -.19072635E+03  d E =-.216328E-03  mag=    25.6915
quench:  g(F)=  0.000E+00 g(S)=  0.000E+00 dE (1.order)= 0.000E+00
 bond charge predicted
       N       E                     dE             d eps       ncg     rms          rms(c)
DAV:   1    -0.190714560815E+03   -0.33000E-03   -0.60740E-03  2085   0.174E-01    0.887E-02
RMM:   2    -0.190716414724E+03   -0.18539E-02   -0.15152E-03  1993   0.121E-01    0.849E-01
RMM:   3    -0.190714688428E+03    0.17263E-02   -0.94440E-04  1898   0.987E-02    0.303E-01
RMM:   4    -0.190714570909E+03    0.11752E-03   -0.90820E-05  1112   0.289E-02    0.124E-01
RMM:   5    -0.190714558432E+03    0.12477E-04   -0.35352E-05  1061   0.182E-02
  67 F= -.19071456E+03 E0= -.19072659E+03  d E =-.264112E-03  mag=    25.6909
quench:  g(F)=  0.000E+00 g(S)=  0.000E+00 dE (1.order)= 0.000E+00
 bond charge predicted
       N       E                     dE             d eps       ncg     rms          rms(c)
DAV:   1    -0.190714825190E+03   -0.25428E-03   -0.75041E-03  2013   0.177E-01    0.754E-02
RMM:   2    -0.190715737245E+03   -0.91205E-03   -0.11796E-03  1989   0.104E-01    0.554E-01
RMM:   3    -0.190714833222E+03    0.90402E-03   -0.68615E-04  1781   0.836E-02    0.160E-01
RMM:   4    -0.190714842522E+03   -0.92994E-05   -0.56662E-05  1084   0.225E-02
  68 F= -.19071484E+03 E0= -.19072697E+03  d E =-.284089E-03  mag=    25.6905
quench:  g(F)=  0.000E+00 g(S)=  0.000E+00 dE (1.order)= 0.000E+00
 bond charge predicted
       N       E                     dE             d eps       ncg     rms          rms(c)
DAV:   1    -0.190715104103E+03   -0.27088E-03   -0.92628E-03  2079   0.203E-01    0.798E-02
RMM:   2    -0.190719368282E+03   -0.42642E-02   -0.12186E-03  1990   0.104E-01    0.134E+00
RMM:   3    -0.190715089952E+03    0.42783E-02   -0.78086E-04  1859   0.874E-02    0.291E-01
RMM:   4    -0.190715111595E+03   -0.21644E-04   -0.14826E-04  1150   0.395E-02
  69 F= -.19071511E+03 E0= -.19072718E+03  d E =-.269073E-03  mag=    25.6901
quench:  g(F)=  0.000E+00 g(S)=  0.000E+00 dE (1.order)= 0.000E+00
 bond charge predicted
       N       E                     dE             d eps       ncg     rms          rms(c)
DAV:   1    -0.190715413429E+03   -0.32348E-03   -0.10109E-02  2106   0.219E-01    0.884E-02
RMM:   2    -0.190717057414E+03   -0.16440E-02   -0.15501E-03  1999   0.121E-01    0.777E-01
RMM:   3    -0.190715842976E+03    0.12144E-02   -0.77328E-04  1842   0.881E-02    0.462E-01
RMM:   4    -0.190715423627E+03    0.41935E-03   -0.18445E-04  1141   0.422E-02    0.145E-01
RMM:   5    -0.190715418827E+03    0.47992E-05   -0.62395E-05  1077   0.242E-02
  70 F= -.19071542E+03 E0= -.19072746E+03  d E =-.307232E-03  mag=    25.6894
quench:  g(F)=  0.000E+00 g(S)=  0.000E+00 dE (1.order)= 0.000E+00
 bond charge predicted
       N       E                     dE             d eps       ncg     rms          rms(c)
DAV:   1    -0.190715692039E+03   -0.26841E-03   -0.11830E-02  2058   0.216E-01    0.961E-02
RMM:   2    -0.190717768662E+03   -0.20766E-02   -0.18376E-03  1998   0.129E-01    0.902E-01
RMM:   3    -0.190715641324E+03    0.21273E-02   -0.11523E-03  1916   0.108E-01    0.148E-01
RMM:   4    -0.190715722475E+03   -0.81150E-04   -0.66655E-05  1107   0.241E-02
  71 F= -.19071572E+03 E0= -.19072788E+03  d E =-.303647E-03  mag=    25.6890
quench:  g(F)=  0.000E+00 g(S)=  0.000E+00 dE (1.order)= 0.000E+00
 bond charge predicted
       N       E                     dE             d eps       ncg     rms          rms(c)
DAV:   1    -0.190715923360E+03   -0.28204E-03   -0.80814E-03  2394   0.203E-01    0.118E-01
RMM:   2    -0.190726736751E+03   -0.10813E-01   -0.27249E-03  1993   0.155E-01    0.213E+00
RMM:   3    -0.190715738948E+03    0.10998E-01   -0.18756E-03  1945   0.135E-01    0.416E-01
RMM:   4    -0.190715894340E+03   -0.15539E-03   -0.36758E-04  1539   0.600E-02    0.118E-01
RMM:   5    -0.190715963372E+03   -0.69033E-04   -0.10018E-04  1101   0.312E-02
  72 F= -.19071596E+03 E0= -.19072802E+03  d E =-.240898E-03  mag=    25.6884
quench:  g(F)=  0.000E+00 g(S)=  0.000E+00 dE (1.order)= 0.000E+00
 bond charge predicted
       N       E                     dE             d eps       ncg     rms          rms(c)
DAV:   1    -0.190716027885E+03   -0.13355E-03   -0.26624E-03  2238   0.152E-01    0.747E-02
RMM:   2    -0.190717607406E+03   -0.15795E-02   -0.11918E-03  1986   0.106E-01    0.743E-01
RMM:   3    -0.190716462205E+03    0.11452E-02   -0.57999E-04  1809   0.770E-02    0.464E-01
RMM:   4    -0.190716013758E+03    0.44845E-03   -0.17648E-04  1148   0.414E-02    0.859E-02
RMM:   5    -0.190716028078E+03   -0.14320E-04   -0.39181E-05  1062   0.192E-02
  73 F= -.19071603E+03 E0= -.19072810E+03  d E =-.647054E-04  mag=    25.6879
quench:  g(F)=  0.000E+00 g(S)=  0.000E+00 dE (1.order)= 0.000E+00
 bond charge predicted
       N       E                     dE             d eps       ncg     rms          rms(c)
DAV:   1    -0.190716144785E+03   -0.13103E-03   -0.16309E-03  1989   0.993E-02    0.790E-02
RMM:   2    -0.190717725672E+03   -0.15809E-02   -0.11944E-03  1951   0.106E-01    0.817E-01
RMM:   3    -0.190716129773E+03    0.15959E-02   -0.81301E-04  1823   0.910E-02    0.198E-01
RMM:   4    -0.190716156505E+03   -0.26732E-04   -0.61778E-05  1103   0.240E-02
  74 F= -.19071616E+03 E0= -.19072815E+03  d E =-.128427E-03  mag=    25.6876
quench:  g(F)=  0.000E+00 g(S)=  0.000E+00 dE (1.order)= 0.000E+00
 bond charge predicted
       N       E                     dE             d eps       ncg     rms          rms(c)
DAV:   1    -0.190716252060E+03   -0.12229E-03   -0.24408E-03  2148   0.123E-01    0.381E-02
RMM:   2    -0.190716883542E+03   -0.63148E-03   -0.25634E-04  1218   0.522E-02    0.499E-01
RMM:   3    -0.190716305689E+03    0.57785E-03   -0.16656E-04  1131   0.458E-02    0.188E-01
RMM:   4    -0.190716256872E+03    0.48818E-04   -0.40537E-05  1089   0.210E-02
  75 F= -.19071626E+03 E0= -.19072833E+03  d E =-.100367E-03  mag=    25.6873
quench:  g(F)=  0.000E+00 g(S)=  0.000E+00 dE (1.order)= 0.000E+00
 bond charge predicted
       N       E                     dE             d eps       ncg     rms          rms(c)
DAV:   1    -0.190716398165E+03   -0.92476E-04   -0.32206E-03  2004   0.114E-01    0.560E-02
RMM:   2    -0.190717238343E+03   -0.84018E-03   -0.57688E-04  1739   0.732E-02    0.608E-01
RMM:   3    -0.190716437502E+03    0.80084E-03   -0.38041E-04  1531   0.648E-02    0.200E-01
RMM:   4    -0.190716402552E+03    0.34950E-04   -0.40286E-05  1086   0.196E-02
  76 F= -.19071640E+03 E0= -.19072845E+03  d E =-.145680E-03  mag=    25.6870
quench:  g(F)=  0.000E+00 g(S)=  0.000E+00 dE (1.order)= 0.000E+00
 bond charge predicted
       N       E                     dE             d eps       ncg     rms          rms(c)
DAV:   1    -0.190716545336E+03   -0.10783E-03   -0.41812E-03  2004   0.134E-01    0.465E-02
RMM:   2    -0.190717167520E+03   -0.62218E-03   -0.39668E-04  1479   0.621E-02    0.482E-01
RMM:   3    -0.190716654711E+03    0.51281E-03   -0.22326E-04  1154   0.528E-02    0.243E-01
RMM:   4    -0.190716549052E+03    0.10566E-03   -0.53881E-05  1091   0.233E-02    0.507E-02
RMM:   5    -0.190716560090E+03   -0.11038E-04   -0.18085E-05  1042   0.130E-02
  77 F= -.19071656E+03 E0= -.19072863E+03  d E =-.157538E-03  mag=    25.6866
quench:  g(F)=  0.000E+00 g(S)=  0.000E+00 dE (1.order)= 0.000E+00
 bond charge predicted
       N       E                     dE             d eps       ncg     rms          rms(c)
DAV:   1    -0.190716705966E+03   -0.15691E-03   -0.52516E-03  2022   0.137E-01    0.416E-02
RMM:   2    -0.190716957437E+03   -0.25147E-03   -0.37223E-04  1382   0.568E-02    0.287E-01
RMM:   3    -0.190716720620E+03    0.23682E-03   -0.20423E-04  1093   0.516E-02    0.874E-02
RMM:   4    -0.190716724601E+03   -0.39809E-05   -0.23330E-05  1058   0.144E-02
  78 F= -.19071672E+03 E0= -.19072887E+03  d E =-.164511E-03  mag=    25.6864
quench:  g(F)=  0.000E+00 g(S)=  0.000E+00 dE (1.order)= 0.000E+00
 bond charge predicted
       N       E                     dE             d eps       ncg     rms          rms(c)
DAV:   1    -0.190716878355E+03   -0.15773E-03   -0.63493E-03  1992   0.159E-01    0.681E-02
RMM:   2    -0.190719536728E+03   -0.26584E-02   -0.90320E-04  1951   0.892E-02    0.107E+00
RMM:   3    -0.190716918525E+03    0.26182E-02   -0.54532E-04  1733   0.741E-02    0.273E-01
RMM:   4    -0.190716884270E+03    0.34255E-04   -0.11956E-04  1134   0.352E-02
  79 F= -.19071688E+03 E0= -.19072897E+03  d E =-.159668E-03  mag=    25.6861
quench:  g(F)=  0.000E+00 g(S)=  0.000E+00 dE (1.order)= 0.000E+00
 bond charge predicted
       N       E                     dE             d eps       ncg     rms          rms(c)
DAV:   1    -0.190717046655E+03   -0.12813E-03   -0.76110E-03  2070   0.182E-01    0.648E-02
RMM:   2    -0.190717881389E+03   -0.83473E-03   -0.84441E-04  1930   0.884E-02    0.564E-01
RMM:   3    -0.190717171834E+03    0.70955E-03   -0.43484E-04  1634   0.681E-02    0.256E-01
RMM:   4    -0.190717065023E+03    0.10681E-03   -0.69313E-05  1102   0.255E-02    0.108E-01
RMM:   5    -0.190717055743E+03    0.92797E-05   -0.29646E-05  1068   0.167E-02
  80 F= -.19071706E+03 E0= -.19072912E+03  d E =-.171474E-03  mag=    25.6857
quench:  g(F)=  0.000E+00 g(S)=  0.000E+00 dE (1.order)= 0.000E+00
 bond charge predicted
       N       E                     dE             d eps       ncg     rms          rms(c)
DAV:   1    -0.190717214364E+03   -0.14934E-03   -0.81866E-03  2052   0.175E-01    0.823E-02
RMM:   2    -0.190718915702E+03   -0.17013E-02   -0.13862E-03  1996   0.113E-01    0.769E-01
RMM:   3    -0.190717447696E+03    0.14680E-02   -0.80268E-04  1859   0.907E-02    0.374E-01
RMM:   4    -0.190717211098E+03    0.23660E-03   -0.98618E-05  1128   0.305E-02    0.834E-02
RMM:   5    -0.190717228857E+03   -0.17759E-04   -0.40216E-05  1063   0.200E-02
  81 F= -.19071723E+03 E0= -.19072931E+03  d E =-.173114E-03  mag=    25.6854
quench:  g(F)=  0.000E+00 g(S)=  0.000E+00 dE (1.order)= 0.000E+00
 bond charge predicted
       N       E                     dE             d eps       ncg     rms          rms(c)
DAV:   1    -0.190717349581E+03   -0.13848E-03   -0.84924E-03  2004   0.183E-01    0.836E-02
RMM:   2    -0.190719045859E+03   -0.16963E-02   -0.14448E-03  1992   0.113E-01    0.837E-01
RMM:   3    -0.190717411253E+03    0.16346E-02   -0.83493E-04  1848   0.921E-02    0.247E-01
RMM:   4    -0.190717392443E+03    0.18810E-04   -0.86840E-05  1112   0.287E-02
  82 F= -.19071739E+03 E0= -.19072940E+03  d E =-.163586E-03  mag=    25.6852
quench:  g(F)=  0.000E+00 g(S)=  0.000E+00 dE (1.order)= 0.000E+00
 bond charge predicted
       N       E                     dE             d eps       ncg     rms          rms(c)
DAV:   1    -0.190717417407E+03   -0.61539E-05   -0.34925E-03  2403   0.146E-01    0.442E-02
RMM:   2    -0.190717887724E+03   -0.47032E-03   -0.39622E-04  1416   0.597E-02    0.420E-01
RMM:   3    -0.190717517135E+03    0.37059E-03   -0.19714E-04  1132   0.487E-02    0.217E-01
RMM:   4    -0.190717435384E+03    0.81751E-04   -0.41868E-05  1084   0.207E-02
  83 F= -.19071744E+03 E0= -.19072951E+03  d E =-.429412E-04  mag=    25.6850
quench:  g(F)=  0.000E+00 g(S)=  0.000E+00 dE (1.order)= 0.000E+00
 bond charge predicted
       N       E                     dE             d eps       ncg     rms          rms(c)
DAV:   1    -0.190717484422E+03    0.32713E-04   -0.12462E-03  1836   0.950E-02    0.643E-02
RMM:   2    -0.190719052976E+03   -0.15686E-02   -0.82917E-04  1875   0.895E-02    0.809E-01
RMM:   3    -0.190717653701E+03    0.13993E-02   -0.47312E-04  1672   0.702E-02    0.331E-01
RMM:   4    -0.190717483953E+03    0.16975E-03   -0.10238E-04  1125   0.320E-02    0.853E-02
RMM:   5    -0.190717486580E+03   -0.26274E-05   -0.31682E-05  1052   0.172E-02
  84 F= -.19071749E+03 E0= -.19072957E+03  d E =-.511957E-04  mag=    25.6847
quench:  g(F)=  0.000E+00 g(S)=  0.000E+00 dE (1.order)= 0.000E+00
 bond charge predicted
       N       E                     dE             d eps       ncg     rms          rms(c)
DAV:   1    -0.190717541426E+03   -0.57474E-04   -0.12578E-03  1929   0.865E-02    0.592E-02
RMM:   2    -0.190718575142E+03   -0.10337E-02   -0.70880E-04  1836   0.833E-02    0.613E-01
RMM:   3    -0.190717745254E+03    0.82989E-03   -0.41518E-04  1605   0.669E-02    0.336E-01
RMM:   4    -0.190717529718E+03    0.21554E-03   -0.75646E-05  1115   0.270E-02    0.505E-02
RMM:   5    -0.190717541354E+03   -0.11636E-04   -0.20055E-05  1046   0.139E-02
  85 F= -.19071754E+03 E0= -.19072964E+03  d E =-.547737E-04  mag=    25.6844
quench:  g(F)=  0.000E+00 g(S)=  0.000E+00 dE (1.order)= 0.000E+00
 bond charge predicted
       N       E                     dE             d eps       ncg     rms          rms(c)
DAV:   1    -0.190717603765E+03   -0.74047E-04   -0.19422E-03  2004   0.937E-02    0.549E-02
RMM:   2    -0.190718354403E+03   -0.75064E-03   -0.57655E-04  1760   0.743E-02    0.565E-01
RMM:   3    -0.190717593841E+03    0.76056E-03   -0.38573E-04  1541   0.657E-02    0.118E-01
RMM:   4    -0.190717612641E+03   -0.18800E-04   -0.38370E-05  1072   0.190E-02
  86 F= -.19071761E+03 E0= -.19072965E+03  d E =-.712875E-04  mag=    25.6843
[...]
RMM:   4    -0.190638989576E+03    0.60854E-04   -0.36183E-05  1072   0.186E-02
 579 F= -.19063899E+03 E0= -.19065042E+03  d E =0.904857E-04  mag=    25.6596
quench:  g(F)=  0.000E+00 g(S)=  0.000E+00 dE (1.order)= 0.000E+00
 bond charge predicted
       N       E                     dE             d eps       ncg     rms          rms(c)
DAV:   1    -0.190638896622E+03    0.15381E-03   -0.37018E-03  1992   0.127E-01    0.561E-02
RMM:   2    -0.190639880261E+03   -0.98364E-03   -0.59072E-04  1779   0.732E-02    0.634E-01
RMM:   3    -0.190639011068E+03    0.86919E-03   -0.35819E-04  1507   0.627E-02    0.265E-01
RMM:   4    -0.190638896856E+03    0.11421E-03   -0.57819E-05  1103   0.238E-02    0.553E-02
RMM:   5    -0.190638908151E+03   -0.11295E-04   -0.20953E-05  1031   0.141E-02
 580 F= -.19063891E+03 E0= -.19065034E+03  d E =0.814254E-04  mag=    25.6597
quench:  g(F)=  0.000E+00 g(S)=  0.000E+00 dE (1.order)= 0.000E+00
 bond charge predicted
       N       E                     dE             d eps       ncg     rms          rms(c)
DAV:   1    -0.190638815768E+03    0.81088E-04   -0.42331E-03  1992   0.134E-01    0.496E-02
RMM:   2    -0.190639229309E+03   -0.41354E-03   -0.53235E-04  1733   0.684E-02    0.362E-01
RMM:   3    -0.190638943975E+03    0.28533E-03   -0.26614E-04  1258   0.559E-02    0.236E-01
RMM:   4    -0.190638834621E+03    0.10935E-03   -0.47415E-05  1076   0.209E-02    0.655E-02
RMM:   5    -0.190638823312E+03    0.11310E-04   -0.18941E-05  1068   0.134E-02
 581 F= -.19063882E+03 E0= -.19065026E+03  d E =0.848393E-04  mag=    25.6598
quench:  g(F)=  0.000E+00 g(S)=  0.000E+00 dE (1.order)= 0.000E+00
 bond charge predicted
       N       E                     dE             d eps       ncg     rms          rms(c)
DAV:   1    -0.190638735339E+03    0.99282E-04   -0.48884E-03  2010   0.139E-01    0.643E-02
RMM:   2    -0.190639826983E+03   -0.10916E-02   -0.81005E-04  1904   0.844E-02    0.671E-01
RMM:   3    -0.190638795694E+03    0.10313E-02   -0.49358E-04  1674   0.722E-02    0.218E-01
RMM:   4    -0.190638743659E+03    0.52035E-04   -0.49956E-05  1095   0.217E-02
 582 F= -.19063874E+03 E0= -.19065015E+03  d E =0.796531E-04  mag=    25.6598
quench:  g(F)=  0.000E+00 g(S)=  0.000E+00 dE (1.order)= 0.000E+00
 bond charge predicted
       N       E                     dE             d eps       ncg     rms          rms(c)
DAV:   1    -0.190638658651E+03    0.13704E-03   -0.43111E-03  2010   0.143E-01    0.586E-02
RMM:   2    -0.190639651000E+03   -0.99235E-03   -0.65365E-04  1821   0.763E-02    0.641E-01
RMM:   3    -0.190638787152E+03    0.86385E-03   -0.37937E-04  1538   0.637E-02    0.274E-01
RMM:   4    -0.190638662605E+03    0.12455E-03   -0.59784E-05  1102   0.243E-02    0.588E-02
RMM:   5    -0.190638676903E+03   -0.14299E-04   -0.24746E-05  1042   0.154E-02
 583 F= -.19063868E+03 E0= -.19065011E+03  d E =0.667553E-04  mag=    25.6599
quench:  g(F)=  0.000E+00 g(S)=  0.000E+00 dE (1.order)= 0.000E+00
 bond charge predicted
       N       E                     dE             d eps       ncg     rms          rms(c)
DAV:   1    -0.190638638656E+03    0.23949E-04   -0.16516E-03  1917   0.966E-02    0.477E-02
RMM:   2    -0.190639088116E+03   -0.44946E-03   -0.50493E-04  1694   0.693E-02    0.389E-01
RMM:   3    -0.190638764773E+03    0.32334E-03   -0.26711E-04  1276   0.560E-02    0.236E-01
RMM:   4    -0.190638656481E+03    0.10829E-03   -0.42946E-05  1078   0.200E-02    0.610E-02
RMM:   5    -0.190638642678E+03    0.13804E-04   -0.14344E-05  1067   0.115E-02
 584 F= -.19063864E+03 E0= -.19065008E+03  d E =0.342255E-04  mag=    25.6599
quench:  g(F)=  0.000E+00 g(S)=  0.000E+00 dE (1.order)= 0.000E+00
 bond charge predicted
       N       E                     dE             d eps       ncg     rms          rms(c)
DAV:   1    -0.190638617771E+03    0.38710E-04   -0.59483E-04  1608   0.633E-02    0.554E-02
RMM:   2    -0.190639442681E+03   -0.82491E-03   -0.64850E-04  1771   0.806E-02    0.589E-01
RMM:   3    -0.190638620264E+03    0.82242E-03   -0.40130E-04  1563   0.664E-02    0.149E-01
RMM:   4    -0.190638621690E+03   -0.14258E-05   -0.30155E-05  1071   0.165E-02
 585 F= -.19063862E+03 E0= -.19065002E+03  d E =0.209879E-04  mag=    25.6600
quench:  g(F)=  0.000E+00 g(S)=  0.000E+00 dE (1.order)= 0.000E+00
 bond charge predicted
       N       E                     dE             d eps       ncg     rms          rms(c)
DAV:   1    -0.190638570803E+03    0.49461E-04   -0.85254E-04  1743   0.802E-02    0.384E-02
RMM:   2    -0.190639244581E+03   -0.67378E-03   -0.30333E-04  1384   0.567E-02    0.528E-01
RMM:   3    -0.190638625692E+03    0.61889E-03   -0.18005E-04  1137   0.468E-02    0.195E-01
RMM:   4    -0.190638571138E+03    0.54553E-04   -0.39439E-05  1080   0.200E-02
 586 F= -.19063857E+03 E0= -.19065002E+03  d E =0.505515E-04  mag=    25.6600
quench:  g(F)=  0.000E+00 g(S)=  0.000E+00 dE (1.order)= 0.000E+00
 bond charge predicted
       N       E                     dE             d eps       ncg     rms          rms(c)
DAV:   1    -0.190638517631E+03    0.10806E-03   -0.12218E-03  1893   0.790E-02    0.440E-02
RMM:   2    -0.190639099077E+03   -0.58145E-03   -0.37368E-04  1507   0.607E-02    0.494E-01
RMM:   3    -0.190638571172E+03    0.52791E-03   -0.24342E-04  1238   0.541E-02    0.193E-01
RMM:   4    -0.190638516642E+03    0.54530E-04   -0.32910E-05  1071   0.177E-02
 587 F= -.19063852E+03 E0= -.19064994E+03  d E =0.544964E-04  mag=    25.6600
quench:  g(F)=  0.000E+00 g(S)=  0.000E+00 dE (1.order)= 0.000E+00
 bond charge predicted
       N       E                     dE             d eps       ncg     rms          rms(c)
DAV:   1    -0.190638446077E+03    0.12509E-03   -0.17479E-03  1983   0.906E-02    0.346E-02
RMM:   2    -0.190638751727E+03   -0.30565E-03   -0.21011E-04  1172   0.459E-02    0.354E-01
RMM:   3    -0.190638470897E+03    0.28083E-03   -0.15663E-04  1115   0.451E-02    0.128E-01
RMM:   4    -0.190638449281E+03    0.21617E-04   -0.16722E-05  1053   0.128E-02
 588 F= -.19063845E+03 E0= -.19064988E+03  d E =0.673613E-04  mag=    25.6601
quench:  g(F)=  0.000E+00 g(S)=  0.000E+00 dE (1.order)= 0.000E+00
 bond charge predicted
       N       E                     dE             d eps       ncg     rms          rms(c)
DAV:   1    -0.190638367581E+03    0.10332E-03   -0.22542E-03  1992   0.971E-02    0.396E-02
RMM:   2    -0.190638860860E+03   -0.49328E-03   -0.28312E-04  1297   0.514E-02    0.456E-01
RMM:   3    -0.190638423440E+03    0.43742E-03   -0.19045E-04  1139   0.489E-02    0.188E-01
RMM:   4    -0.190638368631E+03    0.54809E-04   -0.31597E-05  1067   0.177E-02
 589 F= -.19063837E+03 E0= -.19064980E+03  d E =0.806494E-04  mag=    25.6601
quench:  g(F)=  0.000E+00 g(S)=  0.000E+00 dE (1.order)= 0.000E+00
 bond charge predicted
       N       E                     dE             d eps       ncg     rms          rms(c)
DAV:   1    -0.190638287341E+03    0.13610E-03   -0.28330E-03  1992   0.112E-01    0.490E-02
RMM:   2    -0.190638969041E+03   -0.68170E-03   -0.44471E-04  1611   0.643E-02    0.527E-01
RMM:   3    -0.190638359822E+03    0.60922E-03   -0.28378E-04  1319   0.576E-02    0.213E-01
RMM:   4    -0.190638289825E+03    0.69997E-04   -0.40330E-05  1081   0.197E-02
 590 F= -.19063829E+03 E0= -.19064971E+03  d E =0.788058E-04  mag=    25.6601
quench:  g(F)=  0.000E+00 g(S)=  0.000E+00 dE (1.order)= 0.000E+00
 bond charge predicted
       N       E                     dE             d eps       ncg     rms          rms(c)
DAV:   1    -0.190638207838E+03    0.15198E-03   -0.31639E-03  1992   0.119E-01    0.466E-02
RMM:   2    -0.190638782825E+03   -0.57499E-03   -0.40028E-04  1520   0.605E-02    0.489E-01
RMM:   3    -0.190638276058E+03    0.50677E-03   -0.24919E-04  1236   0.542E-02    0.205E-01
RMM:   4    -0.190638212271E+03    0.63787E-04   -0.37997E-05  1073   0.191E-02
 591 F= -.19063821E+03 E0= -.19064963E+03  d E =0.775545E-04  mag=    25.6601
quench:  g(F)=  0.000E+00 g(S)=  0.000E+00 dE (1.order)= 0.000E+00
 bond charge predicted
       N       E                     dE             d eps       ncg     rms          rms(c)
DAV:   1    -0.190638140753E+03    0.13530E-03   -0.33251E-03  1992   0.124E-01    0.548E-02
RMM:   2    -0.190639111548E+03   -0.97079E-03   -0.57181E-04  1768   0.722E-02    0.626E-01
RMM:   3    -0.190638266836E+03    0.84471E-03   -0.33422E-04  1465   0.607E-02    0.274E-01
RMM:   4    -0.190638142670E+03    0.12417E-03   -0.64768E-05  1105   0.253E-02    0.610E-02
RMM:   5    -0.190638149477E+03   -0.68073E-05   -0.20953E-05  1030   0.139E-02
 592 F= -.19063815E+03 E0= -.19064958E+03  d E =0.627939E-04  mag=    25.6602
quench:  g(F)=  0.000E+00 g(S)=  0.000E+00 dE (1.order)= 0.000E+00
 bond charge predicted
       N       E                     dE             d eps       ncg     rms          rms(c)
DAV:   1    -0.190638106345E+03    0.36324E-04   -0.20197E-03  1992   0.983E-02    0.510E-02
RMM:   2    -0.190638651774E+03   -0.54543E-03   -0.54013E-04  1768   0.706E-02    0.431E-01
RMM:   3    -0.190638209467E+03    0.44231E-03   -0.30762E-04  1380   0.597E-02    0.221E-01
RMM:   4    -0.190638121488E+03    0.87979E-04   -0.42337E-05  1076   0.196E-02
 593 F= -.19063812E+03 E0= -.19064961E+03  d E =0.279891E-04  mag=    25.6602
quench:  g(F)=  0.000E+00 g(S)=  0.000E+00 dE (1.order)= 0.000E+00
 bond charge predicted
       N       E                     dE             d eps       ncg     rms          rms(c)
DAV:   1    -0.190638075182E+03    0.13428E-03   -0.81925E-04  1677   0.784E-02    0.351E-02
RMM:   2    -0.190638382564E+03   -0.30738E-03   -0.26295E-04  1268   0.533E-02    0.370E-01
RMM:   3    -0.190638099757E+03    0.28281E-03   -0.15368E-04  1113   0.439E-02    0.124E-01
RMM:   4    -0.190638084275E+03    0.15482E-04   -0.18909E-05  1053   0.133E-02
 594 F= -.19063808E+03 E0= -.19064954E+03  d E =0.372128E-04  mag=    25.6602
quench:  g(F)=  0.000E+00 g(S)=  0.000E+00 dE (1.order)= 0.000E+00
 bond charge predicted
       N       E                     dE             d eps       ncg     rms          rms(c)
DAV:   1    -0.190638050748E+03    0.49009E-04   -0.51490E-04  1587   0.676E-02    0.357E-02
RMM:   2    -0.190638748133E+03   -0.69739E-03   -0.29544E-04  1342   0.568E-02    0.529E-01
RMM:   3    -0.190638080076E+03    0.66806E-03   -0.14450E-04  1130   0.425E-02    0.150E-01
RMM:   4    -0.190638052934E+03    0.27141E-04   -0.54035E-05  1074   0.234E-02
 595 F= -.19063805E+03 E0= -.19064950E+03  d E =0.313408E-04  mag=    25.6602
quench:  g(F)=  0.000E+00 g(S)=  0.000E+00 dE (1.order)= 0.000E+00
 bond charge predicted
       N       E                     dE             d eps       ncg     rms          rms(c)
DAV:   1    -0.190638014230E+03    0.65846E-04   -0.73075E-04  1716   0.691E-02    0.485E-02
RMM:   2    -0.190638669689E+03   -0.65546E-03   -0.47966E-04  1659   0.701E-02    0.553E-01
RMM:   3    -0.190638006284E+03    0.66340E-03   -0.31042E-04  1402   0.595E-02    0.814E-02
RMM:   4    -0.190638035818E+03   -0.29533E-04   -0.23447E-05  1065   0.145E-02
 596 F= -.19063804E+03 E0= -.19064952E+03  d E =0.171165E-04  mag=    25.6602
quench:  g(F)=  0.000E+00 g(S)=  0.000E+00 dE (1.order)= 0.000E+00
 bond charge predicted
       N       E                     dE             d eps       ncg     rms          rms(c)
DAV:   1    -0.190637963999E+03    0.42286E-04   -0.99068E-04  1830   0.778E-02    0.243E-02
RMM:   2    -0.190638163520E+03   -0.19952E-03   -0.12822E-04  1093   0.368E-02    0.285E-01
RMM:   3    -0.190637994434E+03    0.16909E-03   -0.66809E-05  1084   0.289E-02    0.117E-01
RMM:   4    -0.190637967885E+03    0.26549E-04   -0.19911E-05  1047   0.144E-02
 597 F= -.19063797E+03 E0= -.19064939E+03  d E =0.679323E-04  mag=    25.6602
quench:  g(F)=  0.000E+00 g(S)=  0.000E+00 dE (1.order)= 0.000E+00
 bond charge predicted
       N       E                     dE             d eps       ncg     rms          rms(c)
DAV:   1    -0.190637907479E+03    0.86954E-04   -0.13972E-03  1995   0.786E-02    0.345E-02
RMM:   2    -0.190638220987E+03   -0.31351E-03   -0.22083E-04  1192   0.466E-02    0.359E-01
RMM:   3    -0.190637946162E+03    0.27483E-03   -0.15159E-04  1118   0.446E-02    0.153E-01
RMM:   4    -0.190637910611E+03    0.35551E-04   -0.22343E-05  1059   0.146E-02
 598 F= -.19063791E+03 E0= -.19064937E+03  d E =0.572743E-04  mag=    25.6602
quench:  g(F)=  0.000E+00 g(S)=  0.000E+00 dE (1.order)= 0.000E+00
 bond charge predicted
       N       E                     dE             d eps       ncg     rms          rms(c)
DAV:   1    -0.190637840860E+03    0.10530E-03   -0.17900E-03  1992   0.898E-02    0.256E-02
RMM:   2    -0.190637953907E+03   -0.11305E-03   -0.12163E-04  1046   0.336E-02    0.217E-01
RMM:   3    -0.190637844411E+03    0.10950E-03   -0.80540E-05  1045   0.325E-02    0.509E-02
RMM:   4    -0.190637849326E+03   -0.49149E-05   -0.10806E-05  1023   0.101E-02
 599 F= -.19063785E+03 E0= -.19064932E+03  d E =0.612855E-04  mag=    25.6602
quench:  g(F)=  0.000E+00 g(S)=  0.000E+00 dE (1.order)= 0.000E+00
 bond charge predicted
       N       E                     dE             d eps       ncg     rms          rms(c)
DAV:   1    -0.190637776739E+03    0.67672E-04   -0.22786E-03  1992   0.102E-01    0.478E-02
RMM:   2    -0.190639698201E+03   -0.19215E-02   -0.44486E-04  1623   0.629E-02    0.897E-01
RMM:   3    -0.190637721993E+03    0.19762E-02   -0.31745E-04  1409   0.599E-02    0.140E-01
RMM:   4    -0.190637777662E+03   -0.55668E-04   -0.61477E-05  1110   0.252E-02
 600 F= -.19063778E+03 E0= -.19064922E+03  d E =0.716640E-04  mag=    25.6602
quench:  g(F)=  0.000E+00 g(S)=  0.000E+00 dE (1.order)= 0.000E+00
 bond charge predicted
       N       E                     dE             d eps       ncg     rms          rms(c)
DAV:   1    -0.190637713662E+03    0.83313E-05   -0.25365E-03  2025   0.115E-01    0.536E-02
RMM:   2    -0.190638399051E+03   -0.68539E-03   -0.54722E-04  1762   0.724E-02    0.537E-01
RMM:   3    -0.190637774531E+03    0.62452E-03   -0.33069E-04  1441   0.610E-02    0.199E-01
RMM:   4    -0.190637739769E+03    0.34762E-04   -0.49159E-05  1094   0.214E-02
 601 F= -.19063774E+03 E0= -.19064923E+03  d E =0.378925E-04  mag=    25.6602
quench:  g(F)=  0.000E+00 g(S)=  0.000E+00 dE (1.order)= 0.000E+00
 bond charge predicted
       N       E                     dE             d eps       ncg     rms          rms(c)
DAV:   1    -0.190637650519E+03    0.12401E-03   -0.26508E-03  1992   0.119E-01    0.274E-02
RMM:   2    -0.190637759234E+03   -0.10871E-03   -0.15150E-04  1092   0.366E-02    0.193E-01
RMM:   3    -0.190637697773E+03    0.61461E-04   -0.73539E-05  1069   0.304E-02
 602 F= -.19063770E+03 E0= -.19064904E+03  d E =0.419957E-04  mag=    25.6602
quench:  g(F)=  0.000E+00 g(S)=  0.000E+00 dE (1.order)= 0.000E+00
 bond charge predicted
       N       E                     dE             d eps       ncg     rms          rms(c)
DAV:   1    -0.190637612589E+03    0.14664E-03   -0.12682E-03  1752   0.107E-01    0.377E-02
RMM:   2    -0.190638064453E+03   -0.45186E-03   -0.31222E-04  1376   0.547E-02    0.451E-01
RMM:   3    -0.190637662030E+03    0.40242E-03   -0.17307E-04  1128   0.460E-02    0.148E-01
RMM:   4    -0.190637624120E+03    0.37909E-04   -0.23709E-05  1078   0.153E-02
 603 F= -.19063762E+03 E0= -.19064905E+03  d E =0.736530E-04  mag=    25.6602
quench:  g(F)=  0.000E+00 g(S)=  0.000E+00 dE (1.order)= 0.000E+00
 bond charge predicted
       N       E                     dE             d eps       ncg     rms          rms(c)
DAV:   1    -0.190637611892E+03    0.50138E-04   -0.34994E-04  1410   0.645E-02    0.560E-02
RMM:   2    -0.190638593630E+03   -0.98174E-03   -0.69731E-04  1834   0.848E-02    0.612E-01
RMM:   3    -0.190637778628E+03    0.81500E-03   -0.36640E-04  1552   0.632E-02    0.313E-01
RMM:   4    -0.190637607204E+03    0.17142E-03   -0.79605E-05  1109   0.278E-02    0.581E-02
RMM:   5    -0.190637612004E+03   -0.47996E-05   -0.17514E-05  1031   0.128E-02
 604 F= -.19063761E+03 E0= -.19064904E+03  d E =0.121165E-04  mag=    25.6601
quench:  g(F)=  0.000E+00 g(S)=  0.000E+00 dE (1.order)= 0.000E+00
 bond charge predicted
       N       E                     dE             d eps       ncg     rms          rms(c)
DAV:   1    -0.190637587529E+03    0.19676E-04   -0.38048E-04  1551   0.572E-02    0.477E-02
RMM:   2    -0.190638144772E+03   -0.55724E-03   -0.50606E-04  1726   0.728E-02    0.473E-01
RMM:   3    -0.190637591000E+03    0.55377E-03   -0.29170E-04  1380   0.580E-02    0.117E-01
RMM:   4    -0.190637593867E+03   -0.28673E-05   -0.27275E-05  1056   0.154E-02
 605 F= -.19063759E+03 E0= -.19064906E+03  d E =0.181371E-04  mag=    25.6601
quench:  g(F)=  0.000E+00 g(S)=  0.000E+00 dE (1.order)= 0.000E+00
 bond charge predicted
       N       E                     dE             d eps       ncg     rms          rms(c)
DAV:   1    -0.190637547476E+03    0.43524E-04   -0.64617E-04  1659   0.718E-02    0.314E-02
RMM:   2    -0.190638091597E+03   -0.54412E-03   -0.21989E-04  1194   0.496E-02    0.484E-01
RMM:   3    -0.190637563229E+03    0.52837E-03   -0.13103E-04  1126   0.405E-02    0.133E-01
RMM:   4    -0.190637551382E+03    0.11847E-04   -0.25106E-05  1064   0.163E-02
 606 F= -.19063755E+03 E0= -.19064897E+03  d E =0.424847E-04  mag=    25.6601
quench:  g(F)=  0.000E+00 g(S)=  0.000E+00 dE (1.order)= 0.000E+00
 bond charge predicted
       N       E                     dE             d eps       ncg     rms          rms(c)
DAV:   1    -0.190637505775E+03    0.57453E-04   -0.92045E-04  1821   0.711E-02    0.395E-02
RMM:   2    -0.190637933295E+03   -0.42752E-03   -0.31838E-04  1392   0.574E-02    0.421E-01
RMM:   3    -0.190637558681E+03    0.37461E-03   -0.19389E-04  1134   0.496E-02    0.175E-01
RMM:   4    -0.190637508686E+03    0.49996E-04   -0.30183E-05  1063   0.169E-02
 607 F= -.19063751E+03 E0= -.19064896E+03  d E =0.426966E-04  mag=    25.6601
quench:  g(F)=  0.000E+00 g(S)=  0.000E+00 dE (1.order)= 0.000E+00
 bond charge predicted
       N       E                     dE             d eps       ncg     rms          rms(c)
DAV:   1    -0.190637452770E+03    0.10591E-03   -0.12818E-03  1965   0.810E-02    0.239E-02
RMM:   2    -0.190637563961E+03   -0.11119E-03   -0.10821E-04  1028   0.330E-02    0.212E-01
RMM:   3    -0.190637454588E+03    0.10937E-03   -0.74599E-05  1040   0.314E-02    0.458E-02
RMM:   4    -0.190637457806E+03   -0.32180E-05   -0.80995E-06  1007   0.867E-03
 608 F= -.19063746E+03 E0= -.19064886E+03  d E =0.508800E-04  mag=    25.6601
quench:  g(F)=  0.000E+00 g(S)=  0.000E+00 dE (1.order)= 0.000E+00
 bond charge predicted
       N       E                     dE             d eps       ncg     rms          rms(c)
DAV:   1    -0.190637406434E+03    0.48153E-04   -0.16293E-03  1992   0.857E-02    0.471E-02
RMM:   2    -0.190639534717E+03   -0.21283E-02   -0.42217E-04  1594   0.608E-02    0.956E-01
RMM:   3    -0.190637313194E+03    0.22215E-02   -0.33952E-04  1473   0.619E-02    0.105E-01
RMM:   4    -0.190637402995E+03   -0.89801E-04   -0.48866E-05  1109   0.225E-02
 609 F= -.19063740E+03 E0= -.19064883E+03  d E =0.548108E-04  mag=    25.6601
quench:  g(F)=  0.000E+00 g(S)=  0.000E+00 dE (1.order)= 0.000E+00
 bond charge predicted
       N       E                     dE             d eps       ncg     rms          rms(c)
DAV:   1    -0.190637361896E+03   -0.48702E-04   -0.20399E-03  2013   0.108E-01    0.679E-02
RMM:   2    -0.190638652093E+03   -0.12902E-02   -0.87585E-04  1924   0.911E-02    0.740E-01
RMM:   3    -0.190637472005E+03    0.11801E-02   -0.56422E-04  1754   0.766E-02    0.261E-01
RMM:   4    -0.190637372345E+03    0.99660E-04   -0.68493E-05  1107   0.255E-02
 610 F= -.19063737E+03 E0= -.19064874E+03  d E =0.306495E-04  mag=    25.6601
quench:  g(F)=  0.000E+00 g(S)=  0.000E+00 dE (1.order)= 0.000E+00
 reached required accuracy - stopping structural energy minimisation
