 vasp.5.4.4.18Apr17-6-g9f103f2a35 (build Feb 06 2024 13:54:16) complex          
  
 POSCAR found type information on POSCAR  Cu Rh Cu N  O 
 02/POSCAR found :  5 types and      40 ions
 scaLAPACK will be used

 ----------------------------------------------------------------------------- 
|                                                                             |
|  ADVICE TO THIS USER RUNNING 'VASP/VAMP'   (HEAR YOUR MASTER'S VOICE ...):  |
|                                                                             |
|      You enforced a specific xc-type in the INCAR file,                     |
|      a different type was found on the POTCAR file                          |
|          I HOPE YOU KNOW, WHAT YOU ARE  DOING                               |
|                                                                             |
 ----------------------------------------------------------------------------- 

 LDA part: xc-table for Pade appr. of Perdew
 POSCAR found type information on POSCAR  Cu Rh Cu N  O 
 00/POSCAR found :  5 types and      40 ions
 POSCAR found type information on POSCAR  Cu Rh Cu N  O 
 06/POSCAR found :  5 types and      40 ions
 Jacobian:    19.9537150754471     
 POSCAR, INCAR and KPOINTS ok, starting setup
 FFT: planning ...
 WAVECAR not read
 entering main loop
       N       E                     dE             d eps       ncg     rms          rms(c)
  Solvation turned off during non-self-consistent phase (first NELMDL steps)
DAV:   1     0.449594062616E+04    0.44959E+04   -0.18303E+05 12249   0.211E+03
DAV:   2     0.691361528828E+03   -0.38046E+04   -0.36725E+04 12357   0.493E+02
DAV:   3    -0.174395142340E+02   -0.70880E+03   -0.65433E+03 13941   0.245E+02
DAV:   4    -0.150286113483E+03   -0.13285E+03   -0.11565E+03 21879   0.991E+01
DAV:   5    -0.165152281663E+03   -0.14866E+02   -0.14596E+02 18819   0.336E+01    0.445E+01
 Begin Solvation calculations
  rms_SCF =    5.51825758029332      tol =   0.551825758029332     
 Begin minimization
 Creating dielectric and ionic cavities
  area:      156.258160867921     
  volume:    650.518819702434     
  Acav:     8.203553445565838E-002
  Solving linear dielectric/ionic screening model
        iter                  A_solv                     rms
   LPB:       -0.360941341367601E+03   0.269474095025990E+03
   LPB:    0  -0.657665894831382E+01   0.343602775376833E+02  -0.499614E+01   0.000000E+00   0.283930E+02  -0.141855E+03
   LPB:    1  -0.120567437752447E+01   0.686187057917740E+01   0.104389E-01   0.000000E+00   0.821655E+02  -0.988645E-14
   LPB:    2  -0.451175006978815E+00   0.942338636484882E+00   0.134922E-01   0.108687E+00   0.353948E+03  -0.105785E-13
   LPB:    3  -0.280589275653824E+00   0.780837108676379E+00   0.266284E-01   0.114557E+00   0.600549E+03  -0.184128E-13
   LPB:    4  -0.225841491324729E+00   0.688790607264054E+00   0.288815E-01   0.295903E+00   0.991805E+02  -0.198095E-13
   LPB:    5  -0.202139258050124E+00   0.706435758087683E+00   0.242672E-01   0.515256E+00   0.440771E+03  -0.835287E-14
   LPB:    6  -0.187413998166676E+00   0.284674844530895E+00   0.265098E-01   0.568704E+00   0.643081E+02   0.145749E-14
  Finished solving LPB equations
  A_corr:   -0.105378463711017     
 End minimization
 Ecorr=   2010.93607254081     
 A_corr= -0.105378463711017     
 Ecorr_band=  -2011.04145100452     
 End Solvation calculations
RMM:   6    -0.170239540206E+03   -0.50873E+01   -0.36563E+02 12509   0.947E+01    0.438E+01
 Begin Solvation calculations
  rms_SCF =    5.51825758029332      tol =   0.551825758029332     
 Begin minimization
 Creating dielectric and ionic cavities
  area:      160.798022069456     
  volume:    653.963458145454     
  Acav:     8.441896158646454E-002
  Solving linear dielectric/ionic screening model
        iter                  A_solv                     rms
   LPB:       -0.169370527267255E+02   0.801521234939419E+02
   LPB:    0  -0.168152155798685E+02   0.799383269723883E+02   0.929048E-01   0.000000E+00   0.282315E+02   0.262284E+01
   LPB:    1  -0.160071504218022E+01   0.737470010632829E+01   0.870145E-02   0.000000E+00   0.628874E+02  -0.136749E-15
   LPB:    2  -0.446859260293799E+00   0.153764031946984E+01   0.157847E-01   0.418071E-01   0.114166E+03  -0.236074E-14
   LPB:    3  -0.294624486978808E+00   0.609340260872257E+00   0.226686E-01   0.918699E-01   0.129415E+03  -0.430224E-14
   LPB:    4  -0.252921055423492E+00   0.635824045200243E+00   0.260359E-01   0.238512E+00   0.283169E+03  -0.778260E-15
   LPB:    5  -0.235690629723358E+00   0.437978057099488E+00   0.243460E-01   0.441845E+00   0.986811E+02   0.653100E-14
  Finished solving LPB equations
  A_corr:   -0.151271668136893     
 End minimization
 Ecorr=   1948.08418236528     
 A_corr= -0.151271668136893     
 Ecorr_band=  -1948.23545403342     
 End Solvation calculations
RMM:   7    -0.160629846726E+03    0.96097E+01   -0.13716E+02 12653   0.466E+01    0.268E+01
 Begin Solvation calculations
  rms_SCF =    5.51825758029332      tol =   0.551825758029332     
 Begin minimization
 Creating dielectric and ionic cavities
  area:      157.460149738886     
  volume:    656.183731955273     
  Acav:     8.266657861291532E-002
  Solving linear dielectric/ionic screening model
        iter                  A_solv                     rms
   LPB:       -0.104705006367822E+02   0.624675963071312E+02
   LPB:    0  -0.104443815406836E+02   0.624106952029601E+02   0.430952E-01   0.000000E+00   0.281274E+02   0.121216E+01
   LPB:    1  -0.107078248422244E+01   0.584855703322766E+01   0.882078E-02   0.000000E+00   0.618556E+02  -0.221916E-16
   LPB:    2  -0.307184376897192E+00   0.912434927987793E+00   0.155483E-01   0.462151E-01   0.122280E+03   0.715724E-15
   LPB:    3  -0.204299649801554E+00   0.321704127790013E+00   0.227735E-01   0.919896E-01   0.249671E+03   0.326442E-14
   LPB:    4  -0.182555306569792E+00   0.220520583846540E+00   0.254537E-01   0.189092E+00   0.381535E+03   0.465634E-14
  Finished solving LPB equations
  A_corr:   -9.988872795687714E-002
 End minimization
 Ecorr=   1930.25889970564     
 A_corr= -9.988872795687714E-002
 Ecorr_band=  -1930.35878843360     
 End Solvation calculations
RMM:   8    -0.144923825301E+03    0.15706E+02   -0.95121E+00 12531   0.126E+01    0.185E+01
 Begin Solvation calculations
  rms_SCF =    3.83852867308344      tol =   0.383852867308344     
 Begin minimization
 Creating dielectric and ionic cavities
  area:      148.613019732991     
  volume:    656.254441519589     
  Acav:     7.802183535982042E-002
  Solving linear dielectric/ionic screening model
        iter                  A_solv                     rms
   LPB:       -0.180320789346376E+01   0.246700961259446E+02
   LPB:    0  -0.180132246277932E+01   0.246227442894958E+02  -0.115793E-01   0.000000E+00   0.281241E+02  -0.325656E+00
   LPB:    1  -0.339585905999549E+00   0.245590393589971E+01   0.883537E-02   0.000000E+00   0.615120E+02   0.229875E-16
   LPB:    2  -0.202044095824230E+00   0.460376183013250E+00   0.166153E-01   0.500358E-01   0.104546E+03  -0.362072E-14
   LPB:    3  -0.182983267957446E+00   0.193153311231316E+00   0.213934E-01   0.107631E+00   0.199152E+03  -0.174662E-14
   LPB:    4  -0.178074558034619E+00   0.101039234829275E+00   0.282079E-01   0.195315E+00   0.116069E+03  -0.209740E-14
  Finished solving LPB equations
  A_corr:   -0.100052722674799     
 End minimization
 Ecorr=   1903.92729101689     
 A_corr= -0.100052722674799     
 Ecorr_band=  -1904.02734373956     
 End Solvation calculations
RMM:   9    -0.141429992482E+03    0.34938E+01   -0.56065E+00 12587   0.101E+01    0.123E+01
 Begin Solvation calculations
  rms_SCF =    3.83852867308344      tol =   0.383852867308344     
 Begin minimization
 Creating dielectric and ionic cavities
  area:      135.114197245391     
  volume:    657.788847463538     
  Acav:     7.093495355383007E-002
  Solving linear dielectric/ionic screening model
        iter                  A_solv                     rms
   LPB:       -0.115171657211538E+01   0.181446546760530E+02
   LPB:    0  -0.108028279094833E+01   0.178390429613588E+02   0.713648E-01   0.000000E+00   0.280521E+02   0.200193E+01
   LPB:    1  -0.284484248659806E+00   0.161833926453016E+01   0.886565E-02   0.000000E+00   0.635909E+02  -0.180900E-15
   LPB:    2  -0.221321836953058E+00   0.276866246931216E+00   0.153422E-01   0.458646E-01   0.134076E+03  -0.210049E-14
   LPB:    3  -0.209859227336286E+00   0.146994870934657E+00   0.257012E-01   0.108333E+00   0.216696E+03  -0.129244E-14
   LPB:    4  -0.204659120965038E+00   0.227218895441042E+00   0.342124E-01   0.340798E+00   0.187911E+03  -0.100532E-14
  Finished solving LPB equations
  A_corr:   -0.133724167411208     
 End minimization
 Ecorr=   1854.87347645666     
 A_corr= -0.133724167411208     
 Ecorr_band=  -1855.00720062407     
 End Solvation calculations
RMM:  10    -0.137385578594E+03    0.40444E+01   -0.70041E+00 12625   0.641E+00    0.660E+00
 Begin Solvation calculations
  rms_SCF =   0.730574212801387      tol =   7.305742128013867E-002
 Begin minimization
 Creating dielectric and ionic cavities
  area:      131.038961287691     
  volume:    655.585727421947     
  Acav:     6.879545467603761E-002
  Solving linear dielectric/ionic screening model
        iter                  A_solv                     rms
   LPB:       -0.295595306428430E+00   0.488922541844491E+01
   LPB:    0  -0.294433642772888E+00   0.476063757832650E+01  -0.908394E-02   0.000000E+00   0.281554E+02  -0.255762E+00
   LPB:    1  -0.228578153530801E+00   0.543610396698998E+00   0.946449E-02   0.000000E+00   0.624058E+02   0.442403E-17
   LPB:    2  -0.221389215502499E+00   0.113563043013696E+00   0.147126E-01   0.702233E-01   0.163173E+03  -0.879226E-15
   LPB:    3  -0.217473704356201E+00   0.348068517608840E+00   0.489915E-01   0.163565E+00   0.154884E+03  -0.213008E-14
   LPB:    4  -0.213418099355989E+00   0.264142597123884E+00   0.307382E-01   0.165086E+01   0.278187E+02  -0.295319E-14
   LPB:    5  -0.210815611171562E+00   0.125051314194717E+00   0.256087E-01   0.770237E+00   0.159154E+03  -0.695496E-14
   LPB:    6  -0.209189340876024E+00   0.583536527133987E-01   0.353068E-01   0.453244E+00   0.639012E+02  -0.123481E-13
  Finished solving LPB equations
  A_corr:   -0.140393886199987     
 End minimization
 Ecorr=   1826.72899604771     
 A_corr= -0.140393886199987     
 Ecorr_band=  -1826.86938993391     
 End Solvation calculations
RMM:  11    -0.137160816669E+03    0.22476E+00   -0.57798E-01 12740   0.230E+00    0.379E+00
 Begin Solvation calculations
  rms_SCF =   0.523821806543385      tol =   5.238218065433849E-002
 Begin minimization
 Creating dielectric and ionic cavities
  area:      128.542722254729     
  volume:    651.871102632461     
  Acav:     6.748492918373275E-002
  Solving linear dielectric/ionic screening model
        iter                  A_solv                     rms
   LPB:       -0.285686779151645E+00   0.262251895805135E+01
   LPB:    0  -0.284910681609623E+00   0.240143745822426E+01  -0.740207E-02   0.000000E+00   0.283296E+02  -0.209697E+00
   LPB:    1  -0.241375641874103E+00   0.931646242438748E+00   0.123827E-01   0.000000E+00   0.822807E+02   0.200223E-17
   LPB:    2  -0.234590178203400E+00   0.177238783002354E+00   0.134070E-01   0.143954E+00   0.138407E+03   0.375530E-14
   LPB:    3  -0.232688704670402E+00   0.153608377563498E+00   0.220536E-01   0.170359E+00   0.282952E+03   0.430888E-14
   LPB:    4  -0.231763651446238E+00   0.149045210934824E+00   0.269067E-01   0.398744E+00   0.691068E+02   0.450867E-14
   LPB:    5  -0.230789456691609E+00   0.124316461417575E+00   0.338647E-01   0.836743E+00   0.253609E+03   0.507370E-14
   LPB:    6  -0.229727234462856E+00   0.565127629513256E-01   0.407538E-01   0.906044E+00   0.525102E+02   0.515217E-14
   LPB:    7  -0.228910685487541E+00   0.357264983839092E-01   0.361092E-01   0.867595E+00   0.822447E+02   0.517382E-14
  Finished solving LPB equations
  A_corr:   -0.161425756303808     
 End minimization
 Ecorr=   1806.55477482341     
 A_corr= -0.161425756303808     
 Ecorr_band=  -1806.71620057971     
 End Solvation calculations
RMM:  12    -0.137407679449E+03   -0.24686E+00   -0.66405E-01 12571   0.272E+00    0.414E+00
 Begin Solvation calculations
  rms_SCF =   0.523821806543385      tol =   5.238218065433849E-002
 Begin minimization
 Creating dielectric and ionic cavities
  area:      127.736043050389     
  volume:    648.342371709055     
  Acav:     6.706142260145445E-002
  Solving linear dielectric/ionic screening model
        iter                  A_solv                     rms
   LPB:       -0.307784920066027E+00   0.204692780789113E+01
   LPB:    0  -0.307311983464175E+00   0.178039007825730E+01  -0.576145E-02   0.000000E+00   0.284950E+02  -0.164173E+00
   LPB:    1  -0.264970510815163E+00   0.748916653405820E+00   0.149467E-01   0.000000E+00   0.763651E+02  -0.997881E-17
   LPB:    2  -0.259063903366879E+00   0.222534766098973E+00   0.151064E-01   0.138025E+00   0.119768E+03   0.138760E-13
   LPB:    3  -0.257396561808851E+00   0.163340477149050E+00   0.202755E-01   0.210317E+00   0.202164E+03   0.147566E-13
   LPB:    4  -0.256716213995624E+00   0.168092221667448E+00   0.212312E-01   0.389677E+00   0.762860E+02   0.148013E-13
   LPB:    5  -0.256071502316136E+00   0.109004272407477E+00   0.280984E-01   0.716022E+00   0.156144E+03   0.149306E-13
   LPB:    6  -0.255413052327196E+00   0.427937121702368E-01   0.402768E-01   0.712499E+00   0.564988E+02   0.151456E-13
  Finished solving LPB equations
  A_corr:   -0.188351629725741     
 End minimization
 Ecorr=   1785.67065186525     
 A_corr= -0.188351629725741     
 Ecorr_band=  -1785.85900349497     
 End Solvation calculations
RMM:  13    -0.137290380747E+03    0.11730E+00   -0.17056E-01 12525   0.175E+00    0.385E+00
 Begin Solvation calculations
  rms_SCF =   0.523821806543385      tol =   5.238218065433849E-002
 Begin minimization
 Creating dielectric and ionic cavities
  area:      127.993211475093     
  volume:    646.734411756121     
  Acav:     6.719643602442375E-002
  Solving linear dielectric/ionic screening model
        iter                  A_solv                     rms
   LPB:       -0.332580756530706E+00   0.113375249798740E+01
   LPB:    0  -0.320720723282828E+00   0.121577882966030E+01   0.288138E-01   0.000000E+00   0.285704E+02   0.823220E+00
   LPB:    1  -0.290898580878525E+00   0.874318745659050E+00   0.156462E-01   0.000000E+00   0.121681E+03   0.416615E-16
   LPB:    2  -0.286722837304432E+00   0.227261827310258E+00   0.133360E-01   0.164278E+00   0.689337E+02   0.187185E-14
   LPB:    3  -0.285131011198767E+00   0.955183425317745E-01   0.205083E-01   0.247889E+00   0.223381E+03   0.197008E-14
   LPB:    4  -0.284055598486914E+00   0.924119877522217E-01   0.368622E-01   0.375861E+00   0.825118E+02   0.199530E-14
   LPB:    5  -0.283150159038861E+00   0.154348538375175E+00   0.347351E-01   0.893506E+00   0.189729E+03   0.759999E-15
   LPB:    6  -0.282437635276878E+00   0.965942239814778E-01   0.281713E-01   0.970288E+00   0.383710E+02  -0.517554E-15
   LPB:    7  -0.281904693100658E+00   0.435722340240476E-01   0.304542E-01   0.691897E+00   0.197006E+03  -0.216033E-14
  Finished solving LPB equations
  A_corr:   -0.214708257076234     
 End minimization
 Ecorr=   1752.36198595409     
 A_corr= -0.214708257076234     
 Ecorr_band=  -1752.57669421116     
 End Solvation calculations
RMM:  14    -0.137059289282E+03    0.23109E+00   -0.23028E-01 12614   0.125E+00    0.123E+00
 Begin Solvation calculations
  rms_SCF =   0.424038885711037      tol =   4.240388857110373E-002
 Begin minimization
 Creating dielectric and ionic cavities
  area:      128.234655098753     
  volume:    646.135436745589     
  Acav:     6.732319392684555E-002
  Solving linear dielectric/ionic screening model
        iter                  A_solv                     rms
   LPB:       -0.290418004429045E+00   0.396923007562065E+00
   LPB:    0  -0.290300630455545E+00   0.476919643268699E+00   0.286503E-02   0.000000E+00   0.285985E+02   0.819355E-01
   LPB:    1  -0.287606515145782E+00   0.144013213864578E+00   0.158414E-01   0.000000E+00   0.728304E+02  -0.515104E-17
   LPB:    2  -0.287200457838912E+00   0.746023775630128E-01   0.154470E-01   0.154568E+00   0.209875E+03   0.153682E-15
   LPB:    3  -0.287046217420092E+00   0.666144977653845E-01   0.232948E-01   0.251881E+00   0.102196E+03  -0.476330E-15
   LPB:    4  -0.286927751138644E+00   0.829038020270454E-01   0.298673E-01   0.599047E+00   0.935988E+02  -0.949687E-15
   LPB:    5  -0.286701465153414E+00   0.563907745744062E-01   0.393002E-01   0.145165E+01   0.135383E+03  -0.150415E-14
   LPB:    6  -0.286435026228869E+00   0.187235514648444E-01   0.373500E-01   0.123892E+01   0.477617E+02  -0.294642E-14
  Finished solving LPB equations
  A_corr:   -0.219111832302024     
 End minimization
 Ecorr=   1744.13483868411     
 A_corr= -0.219111832302024     
 Ecorr_band=  -1744.35395051641     
 End Solvation calculations
RMM:  15    -0.137055580827E+03    0.37085E-02   -0.46830E-02 12905   0.641E-01    0.705E-01
 Begin Solvation calculations
  rms_SCF =   0.424038885711037      tol =   4.240388857110373E-002
 Begin minimization
 Creating dielectric and ionic cavities
  area:      128.424798553439     
  volume:    645.797153611576     
  Acav:     6.742301924055522E-002
  Solving linear dielectric/ionic screening model
        iter                  A_solv                     rms
   LPB:       -0.290936062793158E+00   0.494596554730095E+00
   LPB:    0  -0.290860835900753E+00   0.512626046905131E+00   0.229303E-02   0.000000E+00   0.286143E+02   0.656135E-01
   LPB:    1  -0.289136157617815E+00   0.159128633725363E+00   0.142189E-01   0.000000E+00   0.621427E+02   0.469621E-17
   LPB:    2  -0.288850058919520E+00   0.490962444804861E-01   0.128256E-01   0.183905E+00   0.218020E+03   0.114785E-15
   LPB:    3  -0.288776452869795E+00   0.229326125144419E-01   0.203909E-01   0.161822E+00   0.156913E+03   0.141786E-15
   LPB:    4  -0.288726906666735E+00   0.317299593407156E-01   0.361303E-01   0.379894E+00   0.855877E+02   0.135471E-15
  Finished solving LPB equations
  A_corr:   -0.221303887426180     
 End minimization
 Ecorr=   1740.80577065201     
 A_corr= -0.221303887426180     
 Ecorr_band=  -1741.02707453944     
 End Solvation calculations
RMM:  16    -0.137054673192E+03    0.90764E-03   -0.15741E-02 15837   0.267E-01    0.341E-01
 Begin Solvation calculations
  rms_SCF =   0.398217403934896      tol =   3.982174039348955E-002
 Begin minimization
 Creating dielectric and ionic cavities
  area:      129.028439218616     
  volume:    644.609052654572     
  Acav:     6.773993058977357E-002
  Solving linear dielectric/ionic screening model
        iter                  A_solv                     rms
   LPB:       -0.308185111585390E+00   0.906099239561840E+00
   LPB:    0  -0.308170986407317E+00   0.875359499702116E+00  -0.992654E-03   0.000000E+00   0.286700E+02  -0.284594E-01
   LPB:    1  -0.298468218522131E+00   0.252725279659699E+00   0.156205E-01   0.000000E+00   0.858307E+02  -0.135612E-17
   LPB:    2  -0.297353136382373E+00   0.105229541619659E+00   0.151045E-01   0.118851E+00   0.135399E+03   0.367030E-15
   LPB:    3  -0.297021980726581E+00   0.485823020226438E-01   0.234581E-01   0.191222E+00   0.853400E+02  -0.149283E-15
   LPB:    4  -0.296856933851135E+00   0.698992630272326E-01   0.286903E-01   0.407506E+00   0.263811E+03  -0.165657E-14
   LPB:    5  -0.296763785715474E+00   0.682147088596598E-01   0.227575E-01   0.711503E+00   0.810379E+02  -0.235801E-14
   LPB:    6  -0.296675425613065E+00   0.240925212549959E-01   0.256074E-01   0.843026E+00   0.106168E+03  -0.270715E-14
  Finished solving LPB equations
  A_corr:   -0.228935495023291     
 End minimization
 Ecorr=   1734.63892155340     
 A_corr= -0.228935495023291     
 Ecorr_band=  -1734.86785704842     
 End Solvation calculations
RMM:  17    -0.137055368387E+03   -0.69520E-03   -0.35304E-03 13279   0.155E-01    0.174E-01
 Begin Solvation calculations
  rms_SCF =   0.308505053308216      tol =   3.085050533082156E-002
 Begin minimization
 Creating dielectric and ionic cavities
  area:      129.474144473526     
  volume:    643.815188773244     
  Acav:     6.797392584860121E-002
  Solving linear dielectric/ionic screening model
        iter                  A_solv                     rms
   LPB:       -0.310814435854756E+00   0.800857925912257E+00
   LPB:    0  -0.310798596076971E+00   0.770443485507562E+00  -0.105049E-02   0.000000E+00   0.287072E+02  -0.301568E-01
   LPB:    1  -0.304400044771720E+00   0.203255467291861E+00   0.154771E-01   0.000000E+00   0.763980E+02  -0.178170E-17
   LPB:    2  -0.303627237977052E+00   0.944114778004268E-01   0.145221E-01   0.128721E+00   0.177197E+03  -0.459590E-14
   LPB:    3  -0.303441030861871E+00   0.588194527585296E-01   0.202018E-01   0.173207E+00   0.855590E+02  -0.614130E-14
   LPB:    4  -0.303338127522766E+00   0.721384406414317E-01   0.248828E-01   0.448665E+00   0.132948E+03  -0.635691E-14
   LPB:    5  -0.303235070925977E+00   0.471620813267453E-01   0.276879E-01   0.900028E+00   0.821946E+02  -0.648050E-14
   LPB:    6  -0.303120640625676E+00   0.151628678181357E-01   0.359494E-01   0.855192E+00   0.658170E+02  -0.630951E-14
  Finished solving LPB equations
  A_corr:   -0.235146714777075     
 End minimization
 Ecorr=   1729.23717290981     
 A_corr= -0.235146714777075     
 Ecorr_band=  -1729.47231962459     
 End Solvation calculations
RMM:  18    -0.137056067556E+03   -0.69917E-03   -0.17102E-03 12589   0.134E-01    0.191E-01
 Begin Solvation calculations
  rms_SCF =   0.256721888156299      tol =   2.567218881562988E-002
 Begin minimization
 Creating dielectric and ionic cavities
  area:      129.828753993281     
  volume:    643.261581356955     
  Acav:     6.816009584647238E-002
  Solving linear dielectric/ionic screening model
        iter                  A_solv                     rms
   LPB:       -0.314419510142298E+00   0.742742962632957E+00
   LPB:    0  -0.314388851121343E+00   0.701452160018412E+00  -0.146084E-02   0.000000E+00   0.287332E+02  -0.419746E-01
   LPB:    1  -0.309643214557163E+00   0.177461005025393E+00   0.153114E-01   0.000000E+00   0.708277E+02  -0.936884E-18
   LPB:    2  -0.309074098684925E+00   0.812368228184139E-01   0.141102E-01   0.130134E+00   0.194851E+03   0.193872E-14
   LPB:    3  -0.308951461184030E+00   0.487614699632487E-01   0.187781E-01   0.161921E+00   0.927496E+02   0.211425E-14
   LPB:    4  -0.308885349602971E+00   0.554861153261835E-01   0.242471E-01   0.417489E+00   0.116578E+03   0.222427E-14
   LPB:    5  -0.308813062753118E+00   0.383820549899295E-01   0.306841E-01   0.864030E+00   0.810026E+02   0.223753E-14
   LPB:    6  -0.308726051673842E+00   0.137350892612361E-01   0.386552E-01   0.955479E+00   0.582304E+02   0.240828E-14
  Finished solving LPB equations
  A_corr:   -0.240565955827370     
 End minimization
 Ecorr=   1724.78999318123     
 A_corr= -0.240565955827370     
 Ecorr_band=  -1725.03055913706     
 End Solvation calculations
RMM:  19    -0.137056252600E+03   -0.18504E-03   -0.94090E-04 13256   0.797E-02    0.139E-01
 Begin Solvation calculations
  rms_SCF =   0.236169399140457      tol =   2.361693991404575E-002
 Begin minimization
 Creating dielectric and ionic cavities
  area:      130.154438486631     
  volume:    642.873742723565     
  Acav:     6.833108020548131E-002
  Solving linear dielectric/ionic screening model
        iter                  A_solv                     rms
   LPB:       -0.321540434464744E+00   0.919707447126526E+00
   LPB:    0  -0.321392754089782E+00   0.829053568744227E+00  -0.320514E-02   0.000000E+00   0.287514E+02  -0.921522E-01
   LPB:    1  -0.315424569285697E+00   0.192492669690875E+00   0.150087E-01   0.000000E+00   0.675336E+02  -0.243778E-17
   LPB:    2  -0.314731523809463E+00   0.868429011384504E-01   0.141658E-01   0.123033E+00   0.191441E+03   0.251496E-14
   LPB:    3  -0.314593451028739E+00   0.482731704752729E-01   0.180935E-01   0.155979E+00   0.956128E+02   0.265354E-14
   LPB:    4  -0.314530692338462E+00   0.536782814130353E-01   0.223904E-01   0.367306E+00   0.131140E+03   0.315431E-14
   LPB:    5  -0.314474027248908E+00   0.340722281008381E-01   0.278843E-01   0.725009E+00   0.793341E+02   0.338855E-14
   LPB:    6  -0.314410216704223E+00   0.123227110206023E-01   0.380109E-01   0.826093E+00   0.703184E+02   0.328018E-14
  Finished solving LPB equations
  A_corr:   -0.246079136498742     
 End minimization
 Ecorr=   1721.11703915353     
 A_corr= -0.246079136498742     
 Ecorr_band=  -1721.36311829003     
 End Solvation calculations
RMM:  20    -0.137056809420E+03   -0.55682E-03   -0.67023E-04 12903   0.536E-02    0.904E-02
 Begin Solvation calculations
  rms_SCF =   0.210264307184958      tol =   2.102643071849583E-002
 Begin minimization
 Creating dielectric and ionic cavities
  area:      130.566759294868     
  volume:    642.533120998655     
  Acav:     6.854754862980593E-002
  Solving linear dielectric/ionic screening model
        iter                  A_solv                     rms
   LPB:       -0.337271547839818E+00   0.142021681391360E+01
   LPB:    0  -0.336845188240254E+00   0.127553443235240E+01  -0.544444E-02   0.000000E+00   0.287673E+02  -0.156622E+00
   LPB:    1  -0.324180201624788E+00   0.278856698477617E+00   0.147553E-01   0.000000E+00   0.640413E+02   0.399661E-17
   LPB:    2  -0.322749639483246E+00   0.132076699837018E+00   0.139819E-01   0.119202E+00   0.199870E+03   0.112339E-14
   LPB:    3  -0.322456006533727E+00   0.693500633328565E-01   0.174668E-01   0.164305E+00   0.978730E+02   0.718079E-15
   LPB:    4  -0.322332650474130E+00   0.695547162622568E-01   0.213952E-01   0.342967E+00   0.131085E+03   0.707084E-15
   LPB:    5  -0.322241481561448E+00   0.392218221136533E-01   0.261162E-01   0.605470E+00   0.836276E+02   0.775460E-15
   LPB:    6  -0.322157327923112E+00   0.143052127540750E-01   0.354882E-01   0.679285E+00   0.911496E+02   0.100208E-14
  Finished solving LPB equations
  A_corr:   -0.253609779293306     
 End minimization
 Ecorr=   1716.84135433369     
 A_corr= -0.253609779293306     
 Ecorr_band=  -1717.09496411299     
 End Solvation calculations
RMM:  21    -0.137057945127E+03   -0.11357E-02   -0.91542E-04 12413   0.642E-02    0.990E-02
 Begin Solvation calculations
  rms_SCF =   0.151167570482688      tol =   1.511675704826880E-002
 Begin minimization
 Creating dielectric and ionic cavities
  area:      130.826032482923     
  volume:    642.394776658185     
  Acav:     6.868366705353464E-002
  Solving linear dielectric/ionic screening model
        iter                  A_solv                     rms
   LPB:       -0.334507886041520E+00   0.102323640792445E+01
   LPB:    0  -0.334313261003446E+00   0.935903106061192E+00  -0.367803E-02   0.000000E+00   0.287738E+02  -0.105831E+00
   LPB:    1  -0.328252997960612E+00   0.199584225344511E+00   0.144675E-01   0.000000E+00   0.606525E+02   0.486820E-17
   LPB:    2  -0.327573946002020E+00   0.980752976797394E-01   0.135649E-01   0.119505E+00   0.217673E+03   0.795656E-15
   LPB:    3  -0.327426310831449E+00   0.468240048401626E-01   0.170538E-01   0.172935E+00   0.991057E+02   0.964601E-15
   LPB:    4  -0.327350536144255E+00   0.542982505342244E-01   0.252334E-01   0.346881E+00   0.102651E+03   0.119736E-14
   LPB:    5  -0.327277274491455E+00   0.381845612411560E-01   0.308164E-01   0.791674E+00   0.730605E+02   0.154901E-14
   LPB:    6  -0.327200449270998E+00   0.142779963029743E-01   0.362645E-01   0.891101E+00   0.699102E+02   0.206826E-14
  Finished solving LPB equations
  A_corr:   -0.258516782217464     
 End minimization
 Ecorr=   1713.70636198700     
 A_corr= -0.258516782217464     
 Ecorr_band=  -1713.96487876921     
 End Solvation calculations
RMM:  22    -0.137058535109E+03   -0.58998E-03   -0.37487E-04 12214   0.430E-02    0.890E-02
 Begin Solvation calculations
  rms_SCF =   0.135789931633217      tol =   1.357899316332166E-002
 Begin minimization
 Creating dielectric and ionic cavities
  area:      130.913180083785     
  volume:    642.417163357492     
  Acav:     6.872941954398723E-002
  Solving linear dielectric/ionic screening model
        iter                  A_solv                     rms
   LPB:       -0.331650299226082E+00   0.691337911985431E+00
   LPB:    0  -0.331572331731201E+00   0.651243700381271E+00  -0.232799E-02   0.000000E+00   0.287728E+02  -0.669827E-01
   LPB:    1  -0.329575238180137E+00   0.138769536089490E+00   0.129212E-01   0.000000E+00   0.541618E+02   0.106248E-17
   LPB:    2  -0.329326410558330E+00   0.481679505802423E-01   0.124230E-01   0.129592E+00   0.222644E+03  -0.202808E-15
   LPB:    3  -0.329277037194814E+00   0.183939080548787E-01   0.174324E-01   0.141404E+00   0.134606E+03  -0.235301E-15
   LPB:    4  -0.329252845464600E+00   0.286163005438815E-01   0.325521E-01   0.262393E+00   0.795294E+02  -0.214076E-15
   LPB:    5  -0.329218993508100E+00   0.304098636110817E-01   0.400402E-01   0.113763E+01   0.645106E+02  -0.345949E-15
   LPB:    6  -0.329174815468488E+00   0.140459084434284E-01   0.370923E-01   0.140876E+01   0.440298E+02  -0.773653E-15
   LPB:    7  -0.329147862117692E+00   0.541603988080240E-02   0.302951E-01   0.746994E+00   0.149170E+03  -0.139642E-14
  Finished solving LPB equations
  A_corr:   -0.260418442573705     
 End minimization
 Ecorr=   1711.90038891046     
 A_corr= -0.260418442573705     
 Ecorr_band=  -1712.16080735303     
 End Solvation calculations
RMM:  23    -0.137058694174E+03   -0.15906E-03   -0.14061E-04 11644   0.274E-02    0.735E-02
 Begin Solvation calculations
  rms_SCF =   0.127422262511680      tol =   1.274222625116797E-002
 Begin minimization
 Creating dielectric and ionic cavities
  area:      130.951691875791     
  volume:    642.538346486639     
  Acav:     6.874963823479004E-002
  Solving linear dielectric/ionic screening model
        iter                  A_solv                     rms
   LPB:       -0.336279476513364E+00   0.112017000302545E+01
   LPB:    0  -0.336011498889698E+00   0.105163683834932E+01  -0.431635E-02   0.000000E+00   0.287671E+02  -0.124169E+00
   LPB:    1  -0.331799187344397E+00   0.197647595627226E+00   0.117933E-01   0.000000E+00   0.531094E+02  -0.702623E-17
   LPB:    2  -0.331271872083736E+00   0.557617716802225E-01   0.122641E-01   0.120379E+00   0.215396E+03  -0.523619E-15
   LPB:    3  -0.331184224979612E+00   0.207424374652339E-01   0.178702E-01   0.114071E+00   0.155376E+03  -0.592422E-15
   LPB:    4  -0.331166534967176E+00   0.180314148388952E-01   0.209435E-01   0.172215E+00   0.113638E+03  -0.755821E-15
   LPB:    5  -0.331158950358707E+00   0.106022752750443E-01   0.236199E-01   0.380168E+00   0.113071E+03  -0.773040E-15
  Finished solving LPB equations
  A_corr:   -0.262409312123917     
 End minimization
 Ecorr=   1711.31633018073     
 A_corr= -0.262409312123917     
 Ecorr_band=  -1711.57873949286     
 End Solvation calculations
RMM:  24    -0.137058851400E+03   -0.15723E-03   -0.32514E-04 12326   0.379E-02    0.329E-02
 Begin Solvation calculations
  rms_SCF =   2.686560251850444E-002 tol =   2.686560251850444E-003
 Begin minimization
 Creating dielectric and ionic cavities
  area:      130.935215903322     
  volume:    642.668059971364     
  Acav:     6.874098834924407E-002
  Solving linear dielectric/ionic screening model
        iter                  A_solv                     rms
   LPB:       -0.331938792061322E+00   0.365863895995389E+00
   LPB:    0  -0.331906776439350E+00   0.341887694957280E+00  -0.149209E-02   0.000000E+00   0.287610E+02  -0.429139E-01
   LPB:    1  -0.331377125561125E+00   0.599901787369280E-01   0.120397E-01   0.000000E+00   0.604011E+02   0.269614E-17
   LPB:    2  -0.331333162216674E+00   0.232162228226614E-01   0.115226E-01   0.867293E-01   0.235249E+03  -0.297740E-15
   LPB:    3  -0.331322644146525E+00   0.839508754774581E-02   0.202694E-01   0.136005E+00   0.900250E+02  -0.321851E-15
   LPB:    4  -0.331316440154321E+00   0.125678598913316E-01   0.347448E-01   0.344101E+00   0.666270E+02  -0.326785E-15
   LPB:    5  -0.331310910775801E+00   0.104550918235364E-01   0.313503E-01   0.987765E+00   0.884133E+02  -0.309173E-15
   LPB:    6  -0.331305771419076E+00   0.614688890242151E-02   0.324273E-01   0.898593E+00   0.785089E+02  -0.160525E-15
   LPB:    7  -0.331300335935998E+00   0.305634822106961E-02   0.398151E-01   0.861376E+00   0.117928E+03  -0.171165E-16
   LPB:    8  -0.331295582248644E+00   0.182395609681082E-02   0.414996E-01   0.839067E+00   0.120262E+03   0.957951E-16
  Finished solving LPB equations
  A_corr:   -0.262554593899400     
 End minimization
 Ecorr=   1710.76325927802     
 A_corr= -0.262554593899400     
 Ecorr_band=  -1711.02581387192     
 End Solvation calculations
RMM:  25    -0.137058974761E+03   -0.12336E-03   -0.10069E-04  9843   0.247E-02    0.368E-02
 Begin Solvation calculations
  rms_SCF =   2.686560251850444E-002 tol =   2.686560251850444E-003
 Begin minimization
 Creating dielectric and ionic cavities
  area:      130.954847012995     
  volume:    642.701607484202     
  Acav:     6.875129468182242E-002
  Solving linear dielectric/ionic screening model
        iter                  A_solv                     rms
   LPB:       -0.332630440620168E+00   0.345970960625630E+00
   LPB:    0  -0.332598574380157E+00   0.317744751730281E+00  -0.148864E-02   0.000000E+00   0.287595E+02  -0.428125E-01
   LPB:    1  -0.332164207120526E+00   0.592467138034145E-01   0.122241E-01   0.000000E+00   0.548270E+02   0.146954E-17
   LPB:    2  -0.332116976291325E+00   0.213905593015095E-01   0.122202E-01   0.108770E+00   0.222474E+03  -0.343714E-15
   LPB:    3  -0.332107323225400E+00   0.772301525520804E-02   0.177267E-01   0.140893E+00   0.126675E+03  -0.404249E-15
   LPB:    4  -0.332104953554940E+00   0.636636188627265E-02   0.215648E-01   0.201793E+00   0.114418E+03  -0.420630E-15
   LPB:    5  -0.332103995202333E+00   0.387234272831423E-02   0.232102E-01   0.375754E+00   0.132649E+03  -0.464037E-15
   LPB:    6  -0.332103114586165E+00   0.209137052679853E-02   0.369698E-01   0.576889E+00   0.119882E+03  -0.462689E-15
  Finished solving LPB equations
  A_corr:   -0.263351819904343     
 End minimization
 Ecorr=   1710.41018595937     
 A_corr= -0.263351819904343     
 Ecorr_band=  -1710.67353777927     
 End Solvation calculations
RMM:  26    -0.137059033227E+03   -0.58466E-04   -0.26223E-05  7528   0.165E-02    0.150E-02
 Begin Solvation calculations
  rms_SCF =   1.468723429852522E-002 tol =   1.468723429852522E-003
 Begin minimization
 Creating dielectric and ionic cavities
  area:      130.973493212175     
  volume:    642.732525276384     
  Acav:     6.876108393639205E-002
  Solving linear dielectric/ionic screening model
        iter                  A_solv                     rms
   LPB:       -0.333373831038429E+00   0.334700691854144E+00
   LPB:    0  -0.333346262933078E+00   0.308599209516403E+00  -0.138465E-02   0.000000E+00   0.287580E+02  -0.398197E-01
   LPB:    1  -0.332947003301864E+00   0.559986372409084E-01   0.120179E-01   0.000000E+00   0.551379E+02  -0.108747E-17
   LPB:    2  -0.332905249991042E+00   0.204114249295215E-01   0.120915E-01   0.103940E+00   0.215895E+03   0.606010E-15
   LPB:    3  -0.332897221460312E+00   0.694217380861151E-02   0.174775E-01   0.133029E+00   0.114979E+03   0.672242E-15
   LPB:    4  -0.332894948496387E+00   0.708927040214001E-02   0.250332E-01   0.197661E+00   0.834772E+02   0.680843E-15
   LPB:    5  -0.332893470331315E+00   0.524547714502378E-02   0.279098E-01   0.583296E+00   0.105894E+03   0.750233E-15
   LPB:    6  -0.332892043205458E+00   0.253190749280185E-02   0.345653E-01   0.779572E+00   0.705102E+02   0.786432E-15
   LPB:    7  -0.332890608043867E+00   0.137265378403935E-02   0.408243E-01   0.851451E+00   0.110622E+03   0.837923E-15
  Finished solving LPB equations
  A_corr:   -0.264129524107475     
 End minimization
 Ecorr=   1709.90657576307     
 A_corr= -0.264129524107475     
 Ecorr_band=  -1710.17070528718     
 End Solvation calculations
RMM:  27    -0.137059075527E+03   -0.42299E-04   -0.24584E-05  7580   0.146E-02    0.100E-02
 Begin Solvation calculations
  rms_SCF =   1.295498646139213E-002 tol =   1.295498646139213E-003
 Begin minimization
 Creating dielectric and ionic cavities
  area:      130.959535117979     
  volume:    642.766461421330     
  Acav:     6.875375593693905E-002
  Solving linear dielectric/ionic screening model
        iter                  A_solv                     rms
   LPB:       -0.333316211221592E+00   0.288306156523314E+00
   LPB:    0  -0.333303786215694E+00   0.275650234661410E+00  -0.929600E-03   0.000000E+00   0.287564E+02  -0.267319E-01
   LPB:    1  -0.333023565323537E+00   0.403944474615998E-01   0.102579E-01   0.000000E+00   0.678178E+02   0.301303E-18
   LPB:    2  -0.333002626889072E+00   0.910726180021588E-02   0.111657E-01   0.686461E-01   0.243480E+03  -0.187238E-15
   LPB:    3  -0.332999878376167E+00   0.325785095795423E-02   0.208748E-01   0.702130E-01   0.127476E+03  -0.173726E-15
   LPB:    4  -0.332999140797502E+00   0.268279264739692E-02   0.271866E-01   0.206053E+00   0.902082E+02  -0.174167E-15
   LPB:    5  -0.332998537739083E+00   0.413337893681061E-02   0.383840E-01   0.579103E+00   0.286261E+03  -0.180825E-15
   LPB:    6  -0.332997800797724E+00   0.344345068850544E-02   0.355230E-01   0.132043E+01   0.525721E+02  -0.181211E-15
   LPB:    7  -0.332996773678057E+00   0.158847290092502E-02   0.418442E-01   0.118321E+01   0.108864E+03  -0.172209E-15
   LPB:    8  -0.332995731110431E+00   0.164919010452436E-02   0.440151E-01   0.964977E+00   0.767516E+02  -0.123938E-15
   LPB:    9  -0.332994869576814E+00   0.928205068125423E-03   0.416517E-01   0.873246E+00   0.132308E+03  -0.635215E-16
  Finished solving LPB equations
  A_corr:   -0.264241113639875     
 End minimization
 Ecorr=   1709.39936667215     
 A_corr= -0.264241113639875     
 Ecorr_band=  -1709.66360778579     
 End Solvation calculations
RMM:  28    -0.137059137059E+03   -0.61532E-04   -0.17359E-05  7372   0.131E-02    0.129E-02
 Begin Solvation calculations
  rms_SCF =   1.295498646139213E-002 tol =   1.295498646139213E-003
 Begin minimization
 Creating dielectric and ionic cavities
  area:      130.959938123997     
  volume:    642.757763032339     
  Acav:     6.875396751509852E-002
  Solving linear dielectric/ionic screening model
        iter                  A_solv                     rms
   LPB:       -0.333309646566894E+00   0.207261563983521E+00
   LPB:    0  -0.333304365379219E+00   0.199634689801818E+00  -0.606053E-03   0.000000E+00   0.287568E+02  -0.174281E-01
   LPB:    1  -0.333193956862915E+00   0.233661266133724E-01   0.944242E-02   0.000000E+00   0.605965E+02   0.140740E-17
   LPB:    2  -0.333184111172077E+00   0.554740970725435E-02   0.129195E-01   0.651752E-01   0.168152E+03  -0.642729E-16
   LPB:    3  -0.333182790047413E+00   0.202893615307353E-02   0.205250E-01   0.844616E-01   0.143319E+03  -0.698228E-16
   LPB:    4  -0.333182415898318E+00   0.252946321125964E-02   0.269733E-01   0.215501E+00   0.145400E+03  -0.688811E-16
   LPB:    5  -0.333182228795106E+00   0.178350780979368E-02   0.260276E-01   0.518248E+00   0.132209E+03  -0.642728E-16
   LPB:    6  -0.333182042787217E+00   0.132734913735129E-02   0.355193E-01   0.728484E+00   0.383746E+03  -0.478043E-16
   LPB:    7  -0.333181763078071E+00   0.777215545329942E-03   0.481067E-01   0.111028E+01   0.319425E+03  -0.402523E-16
  Finished solving LPB equations
  A_corr:   -0.264427795562973     
 End minimization
 Ecorr=   1709.30232466859     
 A_corr= -0.264427795562973     
 Ecorr_band=  -1709.56675246416     
 End Solvation calculations
RMM:  29    -0.137059142044E+03   -0.49852E-05   -0.81914E-06  7157   0.108E-02
 Begin Solvation calculations
  rms_SCF =   1.295498646139213E-002 tol =   1.295498646139213E-003
 Begin minimization
 Creating dielectric and ionic cavities
  area:      130.960120268351     
  volume:    642.747230047586     
  Acav:     6.875406314088436E-002
  Solving linear dielectric/ionic screening model
        iter                  A_solv                     rms
   LPB:       -0.333200316524042E+00   0.469966289151427E-01
   LPB:    0  -0.333200219509173E+00   0.457847558217887E-01  -0.821410E-04   0.000000E+00   0.287573E+02  -0.236215E-02
   LPB:    1  -0.333191017268716E+00   0.808664587786190E-02   0.924216E-02   0.000000E+00   0.964518E+02  -0.310128E-19
   LPB:    2  -0.333190357840871E+00   0.133758059989701E-02   0.127617E-01   0.518967E-01   0.157980E+03  -0.118224E-16
   LPB:    3  -0.333190099086417E+00   0.831711262103350E-03   0.356246E-01   0.140565E+00   0.174211E+03  -0.691747E-17
   LPB:    4  -0.333189915025022E+00   0.132770221546375E-02   0.416350E-01   0.608648E+00   0.215852E+03  -0.343965E-17
   LPB:    5  -0.333189754711379E+00   0.198955700470438E-02   0.355935E-01   0.101882E+01   0.341230E+03  -0.576556E-17
   LPB:    6  -0.333189538496577E+00   0.213149081361430E-02   0.395369E-01   0.121418E+01   0.101858E+03  -0.140954E-16
   LPB:    7  -0.333189172954613E+00   0.191949020839655E-02   0.469097E-01   0.142492E+01   0.539680E+03  -0.398026E-16
   LPB:    8  -0.333188524395467E+00   0.123417166293274E-02   0.560493E-01   0.148493E+01   0.139714E+03  -0.627103E-16
  Finished solving LPB equations
  A_corr:   -0.264434461254582     
 End minimization
 Ecorr=   1709.11398894047     
 A_corr= -0.264434461254582     
 Ecorr_band=  -1709.37842340173     
 End Solvation calculations
   1 F= -.13705914E+03 E0= -.13705510E+03  d E =-.137059E+03
quench:  g(F)=  0.000E+00 g(S)=  0.000E+00 dE (1.order)= 0.000E+00
 bond charge predicted
       N       E                     dE             d eps       ncg     rms          rms(c)
 Begin Solvation calculations
  rms_SCF =   1.295498646139213E-002 tol =   1.295498646139213E-003
 Begin minimization
 Creating dielectric and ionic cavities
  area:      131.117148284358     
  volume:    642.727826170669     
  Acav:     6.883650284928781E-002
  Solving linear dielectric/ionic screening model
        iter                  A_solv                     rms
   LPB:       -0.339211419285812E+00   0.726189261208594E-02
   LPB:    0  -0.339211419136446E+00   0.732031418086837E-02  -0.322300E-05   0.000000E+00   0.287582E+02  -0.926877E-04
   LPB:    1  -0.334900044033141E+00   0.288480311748233E-02   0.160562E-01   0.000000E+00   0.566511E+06   0.285522E-20
   LPB:    2  -0.334406045624917E+00   0.304931033307247E-02   0.274106E-01   0.671173E-01   0.139510E+06  -0.294235E-17
   LPB:    3  -0.334249377921496E+00   0.598028960099472E-02   0.320814E-01   0.270969E+00   0.421136E+05  -0.378223E-17
   LPB:    4  -0.334185682015966E+00   0.173076890684531E-01   0.342184E-01   0.381176E+00   0.407441E+04  -0.311164E-18
   LPB:    5  -0.334159484316019E+00   0.359428759636494E-01   0.289963E-01   0.485366E+00   0.279015E+03  -0.581623E-18
   LPB:    6  -0.334145943237781E+00   0.171823427141975E-01   0.176184E-01   0.850678E+00   0.160069E+03   0.379781E-17
   LPB:    7  -0.334133622938491E+00   0.323042331405078E-02   0.316484E-01   0.506505E+00   0.798186E+03   0.289543E-17
   LPB:    8  -0.334125698618918E+00   0.108330483037191E-02   0.400251E-01   0.508582E+00   0.567320E+04   0.127969E-16
  Finished solving LPB equations
  A_corr:   -0.265289195769630     
 End minimization
 Ecorr=   1709.08784106949     
 A_corr= -0.265289195769630     
 Ecorr_band=  -1709.35313026526     
 End Solvation calculations
DAV:   1    -0.137062229426E+03   -0.30924E-02   -0.43602E-01 12987   0.115E+00    0.190E-01
 Begin Solvation calculations
  rms_SCF =   1.295498646139213E-002 tol =   1.295498646139213E-003
 Begin minimization
 Creating dielectric and ionic cavities
  area:      131.015251939787     
  volume:    642.619886463773     
  Acav:     6.878300726838804E-002
  Solving linear dielectric/ionic screening model
        iter                  A_solv                     rms
   LPB:       -0.336962887615353E+00   0.435245765029858E+00
   LPB:    0  -0.336850528155931E+00   0.371291668327316E+00  -0.279512E-02   0.000000E+00   0.287633E+02  -0.803969E-01
   LPB:    1  -0.336209324074345E+00   0.940965192954907E-01   0.109628E-01   0.000000E+00   0.736229E+02   0.523838E-17
   LPB:    2  -0.336101795146977E+00   0.153598931351966E-01   0.138059E-01   0.133164E+00   0.226527E+03  -0.377044E-15
   LPB:    3  -0.336073089306999E+00   0.135597290018494E-01   0.254051E-01   0.145074E+00   0.519422E+03  -0.502377E-15
   LPB:    4  -0.336063596519044E+00   0.139691083088544E-01   0.241436E-01   0.347971E+00   0.145619E+03  -0.518853E-15
   LPB:    5  -0.336058130996940E+00   0.806542219052715E-02   0.242122E-01   0.574123E+00   0.198111E+03  -0.493756E-15
   LPB:    6  -0.336054476659792E+00   0.344962007532895E-02   0.326419E-01   0.495948E+00   0.197066E+03  -0.467337E-15
   LPB:    7  -0.336052049178611E+00   0.212777860319687E-02   0.352538E-01   0.615058E+00   0.886302E+03  -0.421873E-15
   LPB:    8  -0.336050252435252E+00   0.140322663520306E-02   0.372958E-01   0.699643E+00   0.582743E+03  -0.361652E-15
   LPB:    9  -0.336048868869998E+00   0.105935966655330E-02   0.397549E-01   0.722407E+00   0.824350E+03  -0.331243E-15
  Finished solving LPB equations
  A_corr:   -0.267265861601610     
 End minimization
 Ecorr=   1708.81969188266     
 A_corr= -0.267265861601610     
 Ecorr_band=  -1709.08695774426     
 End Solvation calculations
RMM:   2    -0.137065295336E+03   -0.30659E-02   -0.35696E-02 17548   0.369E-01    0.185E-01
 Begin Solvation calculations
  rms_SCF =   1.295498646139213E-002 tol =   1.295498646139213E-003
 Begin minimization
 Creating dielectric and ionic cavities
  area:      131.002365496395     
  volume:    642.616586368917     
  Acav:     6.877624188560752E-002
  Solving linear dielectric/ionic screening model
        iter                  A_solv                     rms
   LPB:       -0.336986550534865E+00   0.291809518447942E+00
   LPB:    0  -0.336978842881759E+00   0.285720111492333E+00  -0.732075E-03   0.000000E+00   0.287634E+02  -0.210570E-01
   LPB:    1  -0.336769736230490E+00   0.337988266759240E-01   0.898321E-02   0.000000E+00   0.630700E+02  -0.118154E-17
   LPB:    2  -0.336739106514171E+00   0.585383433978087E-02   0.178484E-01   0.737237E-01   0.111901E+03  -0.517661E-16
   LPB:    3  -0.336735153869043E+00   0.299060178077573E-02   0.233320E-01   0.987172E-01   0.244540E+03  -0.467462E-16
   LPB:    4  -0.336733749166553E+00   0.155306013967132E-02   0.273008E-01   0.303719E+00   0.316333E+03  -0.394776E-16
   LPB:    5  -0.336733069719226E+00   0.238226759987313E-02   0.328771E-01   0.401655E+00   0.367184E+03  -0.372814E-16
   LPB:    6  -0.336732605261167E+00   0.350609697767963E-02   0.349813E-01   0.642463E+00   0.102810E+03  -0.292748E-16
   LPB:    7  -0.336732200455151E+00   0.266426620014236E-02   0.300758E-01   0.101372E+01   0.165238E+03  -0.263106E-16
   LPB:    8  -0.336731764608813E+00   0.114561461407874E-02   0.359473E-01   0.900818E+00   0.155952E+03  -0.110564E-16
  Finished solving LPB equations
  A_corr:   -0.267955522723206     
 End minimization
 Ecorr=   1708.62647296052     
 A_corr= -0.267955522723206     
 Ecorr_band=  -1708.89442848325     
 End Solvation calculations
RMM:   3    -0.137064636233E+03    0.65910E-03   -0.21300E-03 16247   0.977E-02    0.160E-01
 Begin Solvation calculations
  rms_SCF =   1.295498646139213E-002 tol =   1.295498646139213E-003
 Begin minimization
 Creating dielectric and ionic cavities
  area:      131.006223238005     
  volume:    642.617295299450     
  Acav:     6.877826719995257E-002
  Solving linear dielectric/ionic screening model
        iter                  A_solv                     rms
   LPB:       -0.337428683343459E+00   0.274200902474684E+00
   LPB:    0  -0.337423803209181E+00   0.269899846984607E+00  -0.582520E-03   0.000000E+00   0.287634E+02  -0.167553E-01
   LPB:    1  -0.337231930848974E+00   0.255469327819601E-01   0.898757E-02   0.000000E+00   0.649071E+02   0.505219E-18
   LPB:    2  -0.337214397865223E+00   0.389531772924922E-02   0.143110E-01   0.573873E-01   0.196976E+03   0.193139E-16
   LPB:    3  -0.337211702215977E+00   0.284483181862931E-02   0.259308E-01   0.848517E-01   0.421578E+03   0.314272E-16
   LPB:    4  -0.337210853036989E+00   0.274194588563610E-02   0.268020E-01   0.304779E+00   0.199577E+03   0.179782E-16
   LPB:    5  -0.337210427297094E+00   0.276392185354568E-02   0.262151E-01   0.512579E+00   0.261865E+03   0.883488E-17
   LPB:    6  -0.337210150744559E+00   0.176740523547617E-02   0.277908E-01   0.612751E+00   0.108225E+03  -0.861004E-17
   LPB:    7  -0.337209925307850E+00   0.959146939672435E-03   0.334907E-01   0.676431E+00   0.392026E+03  -0.249542E-16
  Finished solving LPB equations
  A_corr:   -0.268431658107898     
 End minimization
 Ecorr=   1708.54395340237     
 A_corr= -0.268431658107898     
 Ecorr_band=  -1708.81238506048     
 End Solvation calculations
RMM:   4    -0.137064370810E+03    0.26542E-03   -0.65211E-04 14591   0.611E-02    0.909E-02
 Begin Solvation calculations
  rms_SCF =   1.295498646139213E-002 tol =   1.295498646139213E-003
 Begin minimization
 Creating dielectric and ionic cavities
  area:      130.979433803644     
  volume:    642.600216766824     
  Acav:     6.876420274691321E-002
  Solving linear dielectric/ionic screening model
        iter                  A_solv                     rms
   LPB:       -0.340623565383789E+00   0.295858964408929E+00
   LPB:    0  -0.340491519556276E+00   0.155080671446315E+00  -0.303006E-02   0.000000E+00   0.287642E+02  -0.871572E-01
   LPB:    1  -0.339914860872374E+00   0.679666645214237E-01   0.165028E-01   0.000000E+00   0.123221E+03   0.311854E-17
   LPB:    2  -0.339859998021332E+00   0.354982696655799E-01   0.163351E-01   0.961154E-01   0.104581E+03  -0.918506E-15
   LPB:    3  -0.339841150370304E+00   0.122771379127143E-01   0.174149E-01   0.322240E+00   0.181659E+03  -0.938200E-15
   LPB:    4  -0.339833349505089E+00   0.138911430389355E-01   0.228643E-01   0.315247E+00   0.190647E+03  -0.882444E-15
   LPB:    5  -0.339829630655359E+00   0.918370739096973E-02   0.204669E-01   0.532563E+00   0.166757E+03  -0.834135E-15
   LPB:    6  -0.339827090360856E+00   0.292648926585427E-02   0.296022E-01   0.472284E+00   0.123679E+03  -0.793308E-15
   LPB:    7  -0.339825622942095E+00   0.152489431938228E-02   0.350578E-01   0.487764E+00   0.577826E+03  -0.779065E-15
   LPB:    8  -0.339824734554508E+00   0.985012205650174E-03   0.354741E-01   0.598304E+00   0.308461E+03  -0.760280E-15
  Finished solving LPB equations
  A_corr:   -0.271060531807595     
 End minimization
 Ecorr=   1707.96007987352     
 A_corr= -0.271060531807595     
 Ecorr_band=  -1708.23114040532     
 End Solvation calculations
RMM:   5    -0.137064189896E+03    0.18091E-03   -0.28852E-04 13876   0.415E-02    0.252E-02
 Begin Solvation calculations
  rms_SCF =   1.295498646139213E-002 tol =   1.295498646139213E-003
 Begin minimization
 Creating dielectric and ionic cavities
  area:      130.991327218717     
  volume:    642.626077790210     
  Acav:     6.877044678982662E-002
  Solving linear dielectric/ionic screening model
        iter                  A_solv                     rms
   LPB:       -0.341403991853076E+00   0.165626367031078E+00
   LPB:    0  -0.341373451788881E+00   0.107174917461876E+00  -0.145725E-02   0.000000E+00   0.287630E+02  -0.419148E-01
   LPB:    1  -0.341231330120040E+00   0.590060953100875E-01   0.141603E-01   0.000000E+00   0.960079E+02   0.128889E-17
   LPB:    2  -0.341213037047861E+00   0.106365173163560E-01   0.122952E-01   0.148240E+00   0.878103E+02  -0.101968E-15
   LPB:    3  -0.341207431847145E+00   0.571962713821588E-02   0.210030E-01   0.179373E+00   0.276800E+03  -0.116280E-15
   LPB:    4  -0.341205592517941E+00   0.529102917202684E-02   0.251252E-01   0.274309E+00   0.109315E+03  -0.121113E-15
   LPB:    5  -0.341204629618502E+00   0.466609238103980E-02   0.248297E-01   0.529736E+00   0.232548E+03  -0.137552E-15
   LPB:    6  -0.341203747331567E+00   0.198527443522835E-02   0.342292E-01   0.664666E+00   0.811622E+02  -0.124042E-15
   LPB:    7  -0.341203020397762E+00   0.111327465779867E-02   0.372473E-01   0.757160E+00   0.208411E+03  -0.648223E-16
  Finished solving LPB equations
  A_corr:   -0.272432573607935     
 End minimization
 Ecorr=   1707.48250580501     
 A_corr= -0.272432573607935     
 Ecorr_band=  -1707.75493837862     
 End Solvation calculations
RMM:   6    -0.137064181649E+03    0.82466E-05   -0.11217E-04 12049   0.444E-02    0.278E-02
 Begin Solvation calculations
  rms_SCF =   1.295498646139213E-002 tol =   1.295498646139213E-003
 Begin minimization
 Creating dielectric and ionic cavities
  area:      131.002363199426     
  volume:    642.639681233169     
  Acav:     6.877624067969865E-002
  Solving linear dielectric/ionic screening model
        iter                  A_solv                     rms
   LPB:       -0.341785619951267E+00   0.680003714014329E-01
   LPB:    0  -0.341779422837370E+00   0.362856933401545E-01  -0.656444E-03   0.000000E+00   0.287624E+02  -0.188809E-01
   LPB:    1  -0.341759628817078E+00   0.159283871109848E-01   0.157093E-01   0.000000E+00   0.778845E+02  -0.123776E-17
   LPB:    2  -0.341757685429728E+00   0.544555060689549E-02   0.140414E-01   0.109843E+00   0.876398E+02   0.886940E-16
   LPB:    3  -0.341757076298816E+00   0.269380999619272E-02   0.180231E-01   0.244192E+00   0.217304E+03   0.901406E-16
   LPB:    4  -0.341756800353268E+00   0.302467003887760E-02   0.253532E-01   0.322039E+00   0.691639E+02   0.933388E-16
   LPB:    5  -0.341756487797624E+00   0.271582208150248E-02   0.330402E-01   0.869149E+00   0.179538E+03   0.871685E-16
   LPB:    6  -0.341756018644111E+00   0.119113522255380E-02   0.445524E-01   0.111316E+01   0.511468E+02   0.100724E-15
  Finished solving LPB equations
  A_corr:   -0.272979777964412     
 End minimization
 Ecorr=   1707.23016568308     
 A_corr= -0.272979777964412     
 Ecorr_band=  -1707.50314546104     
 End Solvation calculations
RMM:   7    -0.137064176222E+03    0.54270E-05   -0.34378E-05  8123   0.295E-02
 Begin Solvation calculations
  rms_SCF =   1.295498646139213E-002 tol =   1.295498646139213E-003
 Begin minimization
 Creating dielectric and ionic cavities
  area:      131.031768872724     
  volume:    642.675181841696     
  Acav:     6.879167865818031E-002
  Solving linear dielectric/ionic screening model
        iter                  A_solv                     rms
   LPB:       -0.343032858306460E+00   0.159504899314450E+00
   LPB:    0  -0.343009514768309E+00   0.111424127749014E+00  -0.127409E-02   0.000000E+00   0.287607E+02  -0.366436E-01
   LPB:    1  -0.342917559507961E+00   0.491229618229033E-01   0.120807E-01   0.000000E+00   0.803828E+02   0.174614E-17
   LPB:    2  -0.342903888965386E+00   0.643091554086810E-02   0.125264E-01   0.143376E+00   0.833371E+02  -0.128799E-15
   LPB:    3  -0.342901312071492E+00   0.444055136937350E-02   0.201253E-01   0.117326E+00   0.235004E+03  -0.197987E-15
   LPB:    4  -0.342900525564474E+00   0.366289255030532E-02   0.253744E-01   0.242076E+00   0.664443E+02  -0.212693E-15
   LPB:    5  -0.342900038160028E+00   0.288655323671951E-02   0.261711E-01   0.600843E+00   0.251564E+03  -0.246308E-15
   LPB:    6  -0.342899613477174E+00   0.114846457656492E-02   0.340635E-01   0.669433E+00   0.670470E+02  -0.271022E-15
  Finished solving LPB equations
  A_corr:   -0.274107934818994     
 End minimization
 Ecorr=   1706.78773294221     
 A_corr= -0.274107934818994     
 Ecorr_band=  -1707.06184087703     
 End Solvation calculations
   2 F= -.13706418E+03 E0= -.13706018E+03  d E =-.503418E-02
quench:  g(F)=  0.000E+00 g(S)=  0.000E+00 dE (1.order)= 0.000E+00
 bond charge predicted
       N       E                     dE             d eps       ncg     rms          rms(c)
 Begin Solvation calculations
  rms_SCF =   1.295498646139213E-002 tol =   1.295498646139213E-003
 Begin minimization
 Creating dielectric and ionic cavities
  area:      131.200250522686     
  volume:    642.579201826837     
  Acav:     6.888013152441022E-002
  Solving linear dielectric/ionic screening model
        iter                  A_solv                     rms
   LPB:       -0.348456095665458E+00   0.885988958761651E-02
   LPB:    0  -0.348456093619268E+00   0.925624196975509E-02  -0.119276E-04   0.000000E+00   0.287652E+02  -0.343101E-03
   LPB:    1  -0.344899848873071E+00   0.383313971397512E-02   0.158949E-01   0.000000E+00   0.232300E+06   0.161736E-19
   LPB:    2  -0.344513180257846E+00   0.538882678834258E-02   0.269643E-01   0.640937E-01   0.703436E+05  -0.384228E-18
   LPB:    3  -0.344393284885799E+00   0.127763372293849E-01   0.319610E-01   0.261596E+00   0.105163E+05  -0.196239E-16
   LPB:    4  -0.344345640890029E+00   0.306830567432997E-01   0.322795E-01   0.393459E+00   0.646440E+03  -0.294285E-16
   LPB:    5  -0.344327136915078E+00   0.307482812791120E-01   0.203741E-01   0.615326E+00   0.150322E+03   0.894695E-16
   LPB:    6  -0.344311727418885E+00   0.109241587949296E-01   0.231976E-01   0.731406E+00   0.312945E+03   0.928254E-16
   LPB:    7  -0.344301574633574E+00   0.131070135165593E-01   0.334348E-01   0.457132E+00   0.235630E+03   0.786372E-16
   LPB:    8  -0.344295871824460E+00   0.120998760525773E-01   0.251980E-01   0.745308E+00   0.191167E+03   0.949811E-16
   LPB:    9  -0.344290911819340E+00   0.379296391419871E-02   0.295638E-01   0.741311E+00   0.170797E+03   0.831665E-16
   LPB:   10  -0.344287186779425E+00   0.122778732784839E-02   0.394034E-01   0.563476E+00   0.179406E+04   0.117554E-15
  Finished solving LPB equations
  A_corr:   -0.275407055255014     
 End minimization
 Ecorr=   1706.56923460837     
 A_corr= -0.275407055255014     
 Ecorr_band=  -1706.84464166363     
 End Solvation calculations
DAV:   1    -0.137065557072E+03   -0.13754E-02   -0.33094E-01 12807   0.126E+00    0.144E-01
 Begin Solvation calculations
  rms_SCF =   1.295498646139213E-002 tol =   1.295498646139213E-003
 Begin minimization
 Creating dielectric and ionic cavities
  area:      131.083773938021     
  volume:    642.570770699757     
  Acav:     6.881898131746104E-002
  Solving linear dielectric/ionic screening model
        iter                  A_solv                     rms
   LPB:       -0.345572831865988E+00   0.136341577701512E+00
   LPB:    0  -0.345545209891568E+00   0.691377792437648E-01  -0.138582E-02   0.000000E+00   0.287656E+02  -0.398638E-01
   LPB:    1  -0.345477933006614E+00   0.380364957973340E-01   0.160679E-01   0.000000E+00   0.698938E+02  -0.802164E-18
   LPB:    2  -0.345465531290032E+00   0.113054910696586E-01   0.146778E-01   0.201797E+00   0.111735E+03   0.217121E-15
   LPB:    3  -0.345461324985039E+00   0.943744057641566E-02   0.213195E-01   0.233509E+00   0.350205E+03   0.268785E-15
   LPB:    4  -0.345459188326026E+00   0.726770843293920E-02   0.218259E-01   0.496180E+00   0.990665E+02   0.286597E-15
   LPB:    5  -0.345457664063768E+00   0.398495109425348E-02   0.266391E-01   0.584489E+00   0.271232E+03   0.179154E-15
   LPB:    6  -0.345456415853185E+00   0.153935972457926E-02   0.363103E-01   0.600783E+00   0.224484E+03   0.122308E-15
   LPB:    7  -0.345455427362082E+00   0.106275762015010E-02   0.402977E-01   0.713567E+00   0.309611E+03   0.546920E-16
  Finished solving LPB equations
  A_corr:   -0.276636446044621     
 End minimization
 Ecorr=   1706.25212944546     
 A_corr= -0.276636446044621     
 Ecorr_band=  -1706.52876589150     
 End Solvation calculations
RMM:   2    -0.137067443662E+03   -0.18866E-02   -0.21190E-02 17047   0.358E-01    0.103E-01
 Begin Solvation calculations
  rms_SCF =   1.295498646139213E-002 tol =   1.295498646139213E-003
 Begin minimization
 Creating dielectric and ionic cavities
  area:      131.071789999205     
  volume:    642.579737060454     
  Acav:     6.881268974958253E-002
  Solving linear dielectric/ionic screening model
        iter                  A_solv                     rms
   LPB:       -0.345864828641826E+00   0.780944207821708E-01
   LPB:    0  -0.345862357815963E+00   0.690600642514551E-01  -0.414479E-03   0.000000E+00   0.287652E+02  -0.119226E-01
   LPB:    1  -0.345843328232758E+00   0.180027138637547E-01   0.113377E-01   0.000000E+00   0.582099E+02   0.317807E-18
   LPB:    2  -0.345838154967432E+00   0.277211933179139E-02   0.157470E-01   0.195732E+00   0.139951E+03  -0.541556E-16
   LPB:    3  -0.345837180091489E+00   0.236372629938633E-02   0.248729E-01   0.119304E+00   0.436878E+03  -0.429816E-16
   LPB:    4  -0.345836754523751E+00   0.248145403547305E-02   0.291627E-01   0.372322E+00   0.111121E+03  -0.470271E-16
   LPB:    5  -0.345836333872154E+00   0.321760877091717E-02   0.365070E-01   0.789598E+00   0.219874E+03  -0.460736E-16
   LPB:    6  -0.345835827332440E+00   0.217717913174364E-02   0.360630E-01   0.121900E+01   0.661519E+02  -0.350054E-16
   LPB:    7  -0.345835314318959E+00   0.118213862921954E-02   0.370526E-01   0.985730E+00   0.173073E+03   0.235906E-16
  Finished solving LPB equations
  A_corr:   -0.277022624569377     
 End minimization
 Ecorr=   1706.00210878754     
 A_corr= -0.277022624569377     
 Ecorr_band=  -1706.27913141211     
 End Solvation calculations
RMM:   3    -0.137067196961E+03    0.24670E-03   -0.12968E-03 16132   0.835E-02    0.112E-01
 Begin Solvation calculations
  rms_SCF =   1.295498646139213E-002 tol =   1.295498646139213E-003
 Begin minimization
 Creating dielectric and ionic cavities
  area:      131.078204790273     
  volume:    642.588619593789     
  Acav:     6.881605751489349E-002
  Solving linear dielectric/ionic screening model
        iter                  A_solv                     rms
   LPB:       -0.346137129315326E+00   0.159370890639060E+00
   LPB:    0  -0.346135739256245E+00   0.156866535145705E+00  -0.310886E-03   0.000000E+00   0.287647E+02  -0.894256E-02
   LPB:    1  -0.346074898084515E+00   0.133332922481014E-01   0.864119E-02   0.000000E+00   0.656947E+02   0.502176E-18
   LPB:    2  -0.346070444822777E+00   0.255645175250210E-02   0.150996E-01   0.418879E-01   0.141992E+03  -0.218675E-16
   LPB:    3  -0.346069742473797E+00   0.214477818304762E-02   0.245837E-01   0.968711E-01   0.299830E+03  -0.273213E-16
   LPB:    4  -0.346069475559690E+00   0.190764964208481E-02   0.271327E-01   0.344327E+00   0.134859E+03  -0.274613E-16
   LPB:    5  -0.346069307474614E+00   0.160367025107971E-02   0.275193E-01   0.620890E+00   0.261667E+03  -0.401819E-16
   LPB:    6  -0.346069162363561E+00   0.100513575828753E-02   0.328756E-01   0.722660E+00   0.135359E+03  -0.379990E-16
  Finished solving LPB equations
  A_corr:   -0.277253104848668     
 End minimization
 Ecorr=   1705.91589400212     
 A_corr= -0.277253104848668     
 Ecorr_band=  -1706.19314710697     
 End Solvation calculations
RMM:   4    -0.137067085378E+03    0.11158E-03   -0.27867E-04 13565   0.382E-02    0.604E-02
 Begin Solvation calculations
  rms_SCF =   1.295498646139213E-002 tol =   1.295498646139213E-003
 Begin minimization
 Creating dielectric and ionic cavities
  area:      131.081409091181     
  volume:    642.601982733491     
  Acav:     6.881773977286987E-002
  Solving linear dielectric/ionic screening model
        iter                  A_solv                     rms
   LPB:       -0.346757805439062E+00   0.150238214864589E+00
   LPB:    0  -0.346750774124549E+00   0.137534091139675E+00  -0.699210E-03   0.000000E+00   0.287641E+02  -0.201122E-01
   LPB:    1  -0.346688802258267E+00   0.274362207215497E-01   0.105658E-01   0.000000E+00   0.562021E+02   0.129818E-18
   LPB:    2  -0.346673839574221E+00   0.416016037883314E-02   0.161264E-01   0.158190E+00   0.136214E+03  -0.115214E-15
   LPB:    3  -0.346671446578253E+00   0.360533117267866E-02   0.236072E-01   0.109251E+00   0.450548E+03  -0.130381E-15
   LPB:    4  -0.346670583508908E+00   0.330866773751601E-02   0.260772E-01   0.326503E+00   0.118752E+03  -0.124426E-15
   LPB:    5  -0.346670176527163E+00   0.281723274462627E-02   0.251719E-01   0.488511E+00   0.178071E+03  -0.160668E-15
   LPB:    6  -0.346669902804718E+00   0.120232088746750E-02   0.279975E-01   0.604689E+00   0.115527E+03  -0.191078E-15
  Finished solving LPB equations
  A_corr:   -0.277852163031848     
 End minimization
 Ecorr=   1705.69917519894     
 A_corr= -0.277852163031848     
 Ecorr_band=  -1705.97702736197     
 End Solvation calculations
RMM:   5    -0.137067080355E+03    0.50225E-05   -0.10632E-04 12116   0.391E-02    0.417E-02
 Begin Solvation calculations
  rms_SCF =   1.295498646139213E-002 tol =   1.295498646139213E-003
 Begin minimization
 Creating dielectric and ionic cavities
  area:      131.094492898075     
  volume:    642.618117121882     
  Acav:     6.882460877148934E-002
  Solving linear dielectric/ionic screening model
        iter                  A_solv                     rms
   LPB:       -0.347215177586218E+00   0.133119173909427E+00
   LPB:    0  -0.347211548551521E+00   0.125250018869199E+00  -0.502332E-03   0.000000E+00   0.287634E+02  -0.144488E-01
   LPB:    1  -0.347160277811387E+00   0.185065103291489E-01   0.924092E-02   0.000000E+00   0.740688E+02  -0.826284E-18
   LPB:    2  -0.347152971576296E+00   0.404631032476831E-02   0.163961E-01   0.803152E-01   0.152373E+03   0.419215E-16
   LPB:    3  -0.347151575550230E+00   0.303216948066846E-02   0.238888E-01   0.131144E+00   0.373009E+03   0.705176E-16
   LPB:    4  -0.347150983048901E+00   0.294005031858181E-02   0.307268E-01   0.329968E+00   0.947364E+02   0.998110E-16
   LPB:    5  -0.347150600395607E+00   0.274696325143171E-02   0.276685E-01   0.717212E+00   0.288472E+03   0.108260E-15
   LPB:    6  -0.347150281074300E+00   0.132374118189359E-02   0.307866E-01   0.749975E+00   0.904212E+02   0.127322E-15
   LPB:    7  -0.347150025656845E+00   0.714465299514721E-03   0.351406E-01   0.700770E+00   0.225998E+03   0.149544E-15
  Finished solving LPB equations
  A_corr:   -0.278325416885355     
 End minimization
 Ecorr=   1705.44992048413     
 A_corr= -0.278325416885355     
 Ecorr_band=  -1705.72824590102     
 End Solvation calculations
RMM:   6    -0.137067082818E+03   -0.24629E-05   -0.91013E-05 11908   0.442E-02
 Begin Solvation calculations
  rms_SCF =   1.295498646139213E-002 tol =   1.295498646139213E-003
 Begin minimization
 Creating dielectric and ionic cavities
  area:      131.104273966253     
  volume:    642.627955096044     
  Acav:     6.882974383228301E-002
  Solving linear dielectric/ionic screening model
        iter                  A_solv                     rms
   LPB:       -0.347802796197782E+00   0.869645260002510E-01
   LPB:    0  -0.347795334674073E+00   0.588706065123290E-01  -0.720298E-03   0.000000E+00   0.287629E+02  -0.207179E-01
   LPB:    1  -0.347768441149133E+00   0.204248177280004E-01   0.154539E-01   0.000000E+00   0.500894E+02   0.144559E-17
   LPB:    2  -0.347764097089198E+00   0.655715830593299E-02   0.127516E-01   0.195760E+00   0.216697E+03   0.303897E-16
   LPB:    3  -0.347763038812235E+00   0.435354976898546E-02   0.195153E-01   0.159181E+00   0.175537E+03   0.478027E-16
   LPB:    4  -0.347762622583426E+00   0.260309444078597E-02   0.222195E-01   0.345441E+00   0.786845E+02   0.564309E-16
   LPB:    5  -0.347762356244347E+00   0.154346510469255E-02   0.278174E-01   0.511117E+00   0.200377E+03   0.573346E-16
   LPB:    6  -0.347762113469353E+00   0.737594859825148E-03   0.356124E-01   0.712006E+00   0.113464E+03   0.539964E-16
  Finished solving LPB equations
  A_corr:   -0.278932369637070     
 End minimization
 Ecorr=   1705.21553568100     
 A_corr= -0.278932369637070     
 Ecorr_band=  -1705.49446805064     
 End Solvation calculations
   3 F= -.13706708E+03 E0= -.13706312E+03  d E =-.290660E-02
quench:  g(F)=  0.000E+00 g(S)=  0.000E+00 dE (1.order)= 0.000E+00
 bond charge predicted
       N       E                     dE             d eps       ncg     rms          rms(c)
 Begin Solvation calculations
  rms_SCF =   1.295498646139213E-002 tol =   1.295498646139213E-003
 Begin minimization
 Creating dielectric and ionic cavities
  area:      131.391260482848     
  volume:    642.541861600780     
  Acav:     6.898041175349509E-002
  Solving linear dielectric/ionic screening model
        iter                  A_solv                     rms
   LPB:       -0.355517184978473E+00   0.997883048204626E-02
   LPB:    0  -0.355517183055822E+00   0.103118862625349E-01  -0.115616E-04   0.000000E+00   0.287669E+02  -0.332592E-03
   LPB:    1  -0.350471078410430E+00   0.508534368141703E-02   0.157585E-01   0.000000E+00   0.297349E+06  -0.409524E-20
   LPB:    2  -0.349951484429703E+00   0.682512636753697E-02   0.267951E-01   0.605576E-01   0.527457E+05   0.187758E-16
   LPB:    3  -0.349786910384851E+00   0.156764915199916E-01   0.322889E-01   0.262845E+00   0.937320E+04   0.180941E-16
   LPB:    4  -0.349721674257718E+00   0.399107554538292E-01   0.319455E-01   0.400654E+00   0.673824E+03   0.140573E-16
   LPB:    5  -0.349696424212912E+00   0.349666464155274E-01   0.191782E-01   0.644727E+00   0.138419E+03   0.185674E-16
   LPB:    6  -0.349674035500195E+00   0.861978362481627E-02   0.245092E-01   0.693819E+00   0.397814E+03   0.221480E-16
   LPB:    7  -0.349658554423430E+00   0.537228793489269E-02   0.384457E-01   0.440812E+00   0.719276E+03   0.381514E-16
   LPB:    8  -0.349649038340124E+00   0.122172297226201E-01   0.374590E-01   0.630882E+00   0.785894E+03   0.100062E-15
   LPB:    9  -0.349643442650219E+00   0.116781453488314E-01   0.267485E-01   0.823480E+00   0.100389E+03   0.161432E-15
   LPB:   10  -0.349638676363795E+00   0.476680764300373E-02   0.288648E-01   0.789326E+00   0.433384E+03   0.235842E-15
   LPB:   11  -0.349635106604432E+00   0.177214849539226E-02   0.378876E-01   0.570599E+00   0.347953E+03   0.290688E-15
   LPB:   12  -0.349632806403721E+00   0.175294530783949E-02   0.386359E-01   0.631878E+00   0.134086E+04   0.283834E-15
   LPB:   13  -0.349631316359431E+00   0.183165122125238E-02   0.375707E-01   0.666154E+00   0.553984E+03   0.266022E-15
   LPB:   14  -0.349630232441517E+00   0.151940722503443E-02   0.369269E-01   0.740123E+00   0.892514E+03   0.250037E-15
   LPB:   15  -0.349629404420891E+00   0.848715048169603E-03   0.380169E-01   0.742012E+00   0.696351E+03   0.237199E-15
  Finished solving LPB equations
  A_corr:   -0.280648992667396     
 End minimization
 Ecorr=   1704.79089100311     
 A_corr= -0.280648992667396     
 Ecorr_band=  -1705.07153999577     
 End Solvation calculations
DAV:   1    -0.137067287889E+03   -0.20753E-03   -0.43915E-01 12780   0.156E+00    0.135E-01
 Begin Solvation calculations
  rms_SCF =   1.295498646139213E-002 tol =   1.295498646139213E-003
 Begin minimization
 Creating dielectric and ionic cavities
  area:      131.201136155845     
  volume:    642.502531421547     
  Acav:     6.888059648181864E-002
  Solving linear dielectric/ionic screening model
        iter                  A_solv                     rms
   LPB:       -0.351521007881963E+00   0.206437605995621E+00
   LPB:    0  -0.351462812549238E+00   0.124731954006188E+00  -0.201140E-02   0.000000E+00   0.287688E+02  -0.578655E-01
   LPB:    1  -0.351306908962866E+00   0.629437832166604E-01   0.136679E-01   0.000000E+00   0.850915E+02  -0.366332E-17
   LPB:    2  -0.351280914937163E+00   0.117472603361997E-01   0.131481E-01   0.173324E+00   0.111489E+03   0.514881E-16
   LPB:    3  -0.351272885707883E+00   0.890863531018240E-02   0.219039E-01   0.185414E+00   0.346770E+03   0.674871E-16
   LPB:    4  -0.351270058722415E+00   0.810815248635729E-02   0.221633E-01   0.347964E+00   0.111316E+03   0.773169E-16
   LPB:    5  -0.351268413275537E+00   0.396782939592059E-02   0.241935E-01   0.533208E+00   0.210547E+03   0.105918E-15
   LPB:    6  -0.351267390902025E+00   0.150747387004507E-02   0.342494E-01   0.438907E+00   0.209333E+03   0.995179E-16
   LPB:    7  -0.351266767515080E+00   0.948807897723453E-03   0.363179E-01   0.575016E+00   0.681553E+03   0.762153E-16
  Finished solving LPB equations
  A_corr:   -0.282386171033261     
 End minimization
 Ecorr=   1704.57627515186     
 A_corr= -0.282386171033261     
 Ecorr_band=  -1704.85866132289     
 End Solvation calculations
RMM:   2    -0.137069713479E+03   -0.24256E-02   -0.26669E-02 16154   0.455E-01    0.104E-01
 Begin Solvation calculations
  rms_SCF =   1.295498646139213E-002 tol =   1.295498646139213E-003
 Begin minimization
 Creating dielectric and ionic cavities
  area:      131.181628461260     
  volume:    642.508850001020     
  Acav:     6.887035494216173E-002
  Solving linear dielectric/ionic screening model
        iter                  A_solv                     rms
   LPB:       -0.351833375425774E+00   0.103079398757746E+00
   LPB:    0  -0.351828380093953E+00   0.912425128940603E-01  -0.589303E-03   0.000000E+00   0.287685E+02  -0.169534E-01
   LPB:    1  -0.351795482176578E+00   0.193389943771238E-01   0.996844E-02   0.000000E+00   0.764726E+02  -0.130535E-17
   LPB:    2  -0.351790448093845E+00   0.304157812967467E-02   0.145174E-01   0.105073E+00   0.162095E+03  -0.309321E-16
   LPB:    3  -0.351789390189024E+00   0.214403157040370E-02   0.254411E-01   0.119917E+00   0.268642E+03  -0.493577E-16
   LPB:    4  -0.351789016136416E+00   0.268984190021941E-02   0.297457E-01   0.302411E+00   0.116158E+03  -0.530542E-16
   LPB:    5  -0.351788683917073E+00   0.290372352864903E-02   0.314261E-01   0.840672E+00   0.244186E+03  -0.267918E-16
   LPB:    6  -0.351788299859943E+00   0.151436554307867E-02   0.368553E-01   0.985737E+00   0.739704E+02   0.146543E-16
   LPB:    7  -0.351787981385917E+00   0.747543419618868E-03   0.360351E-01   0.848110E+00   0.299051E+03   0.323884E-16
  Finished solving LPB equations
  A_corr:   -0.282917626443755     
 End minimization
 Ecorr=   1704.41487601542     
 A_corr= -0.282917626443755     
 Ecorr_band=  -1704.69779364186     
 End Solvation calculations
RMM:   3    -0.137069351426E+03    0.36205E-03   -0.17382E-03 15267   0.118E-01    0.733E-02
 Begin Solvation calculations
  rms_SCF =   1.295498646139213E-002 tol =   1.295498646139213E-003
 Begin minimization
 Creating dielectric and ionic cavities
  area:      131.174220777296     
  volume:    642.510273215830     
  Acav:     6.886646590808020E-002
  Solving linear dielectric/ionic screening model
        iter                  A_solv                     rms
   LPB:       -0.352556097668206E+00   0.999145426459567E-01
   LPB:    0  -0.352544427654636E+00   0.661676244531368E-01  -0.900726E-03   0.000000E+00   0.287684E+02  -0.259125E-01
   LPB:    1  -0.352513522856787E+00   0.249400512402521E-01   0.140353E-01   0.000000E+00   0.586898E+02  -0.121990E-18
   LPB:    2  -0.352507288233826E+00   0.630265166556734E-02   0.128202E-01   0.220857E+00   0.178719E+03  -0.233761E-15
   LPB:    3  -0.352506024033090E+00   0.458186760400859E-02   0.218435E-01   0.119009E+00   0.169430E+03  -0.272369E-15
   LPB:    4  -0.352505630824398E+00   0.236980253787253E-02   0.200743E-01   0.338446E+00   0.867482E+02  -0.272299E-15
   LPB:    5  -0.352505381744962E+00   0.106699497007634E-02   0.278013E-01   0.457393E+00   0.355085E+03  -0.299151E-15
  Finished solving LPB equations
  A_corr:   -0.283638915836881     
 End minimization
 Ecorr=   1704.30353802692     
 A_corr= -0.283638915836881     
 Ecorr_band=  -1704.58717694276     
 End Solvation calculations
RMM:   4    -0.137069302355E+03    0.49072E-04   -0.34427E-04 15250   0.479E-02    0.542E-02
 Begin Solvation calculations
  rms_SCF =   1.295498646139213E-002 tol =   1.295498646139213E-003
 Begin minimization
 Creating dielectric and ionic cavities
  area:      131.168297440110     
  volume:    642.519325226426     
  Acav:     6.886335615605749E-002
  Solving linear dielectric/ionic screening model
        iter                  A_solv                     rms
   LPB:       -0.353784822121239E+00   0.131373120424393E+00
   LPB:    0  -0.353761335824880E+00   0.746375467843055E-01  -0.127781E-02   0.000000E+00   0.287680E+02  -0.367601E-01
   LPB:    1  -0.353680882590198E+00   0.447162389116217E-01   0.150217E-01   0.000000E+00   0.924247E+02   0.127105E-17
   LPB:    2  -0.353670345264208E+00   0.880810989855383E-02   0.124538E-01   0.157981E+00   0.828374E+02  -0.616916E-16
   LPB:    3  -0.353666928238795E+00   0.555668415975670E-02   0.212823E-01   0.189759E+00   0.294539E+03  -0.702638E-16
   LPB:    4  -0.353665585329576E+00   0.534097743398131E-02   0.247146E-01   0.338426E+00   0.884343E+02  -0.729355E-16
   LPB:    5  -0.353664823824287E+00   0.328358341806255E-02   0.235335E-01   0.595516E+00   0.247615E+03  -0.782274E-16
   LPB:    6  -0.353664288914959E+00   0.115750670171954E-02   0.328103E-01   0.503828E+00   0.117115E+03  -0.480730E-16
  Finished solving LPB equations
  A_corr:   -0.284800932758902     
 End minimization
 Ecorr=   1703.99785127176     
 A_corr= -0.284800932758902     
 Ecorr_band=  -1704.28265220452     
 End Solvation calculations
RMM:   5    -0.137069273190E+03    0.29164E-04   -0.94891E-05 10189   0.268E-02    0.441E-02
 Begin Solvation calculations
  rms_SCF =   1.295498646139213E-002 tol =   1.295498646139213E-003
 Begin minimization
 Creating dielectric and ionic cavities
  area:      131.176900921485     
  volume:    642.534828091174     
  Acav:     6.886787298377989E-002
  Solving linear dielectric/ionic screening model
        iter                  A_solv                     rms
   LPB:       -0.354703685641020E+00   0.192470261627799E+00
   LPB:    0  -0.354688778808221E+00   0.171613909785207E+00  -0.101802E-02   0.000000E+00   0.287673E+02  -0.292858E-01
   LPB:    1  -0.354586163155842E+00   0.299311601124580E-01   0.952077E-02   0.000000E+00   0.731996E+02  -0.314787E-18
   LPB:    2  -0.354573373158751E+00   0.487408615354143E-02   0.143629E-01   0.826202E-01   0.134763E+03   0.751838E-16
   LPB:    3  -0.354571235612629E+00   0.377431828008423E-02   0.237717E-01   0.100978E+00   0.255779E+03   0.188545E-15
   LPB:    4  -0.354570476361246E+00   0.384782378079528E-02   0.273436E-01   0.308799E+00   0.780788E+02   0.206934E-15
   LPB:    5  -0.354569915987450E+00   0.313534524073180E-02   0.279983E-01   0.720803E+00   0.251842E+03   0.180881E-15
   LPB:    6  -0.354569454708244E+00   0.136244206471336E-02   0.326824E-01   0.705185E+00   0.758620E+02   0.165796E-15
   LPB:    7  -0.354569115167860E+00   0.689301650024958E-03   0.344620E-01   0.698073E+00   0.196006E+03   0.137306E-15
  Finished solving LPB equations
  A_corr:   -0.285701242184080     
 End minimization
 Ecorr=   1703.68502382109     
 A_corr= -0.285701242184080     
 Ecorr_band=  -1703.97072506328     
 End Solvation calculations
RMM:   6    -0.137069300719E+03   -0.27529E-04   -0.88882E-05 11778   0.367E-02    0.460E-02
 Begin Solvation calculations
  rms_SCF =   1.295498646139213E-002 tol =   1.295498646139213E-003
 Begin minimization
 Creating dielectric and ionic cavities
  area:      131.184616320415     
  volume:    642.551102578832     
  Acav:     6.887192356821779E-002
  Solving linear dielectric/ionic screening model
        iter                  A_solv                     rms
   LPB:       -0.355552443570329E+00   0.123426481429519E+00
   LPB:    0  -0.355538029306966E+00   0.881565906202724E-01  -0.100108E-02   0.000000E+00   0.287665E+02  -0.287975E-01
   LPB:    1  -0.355487460799667E+00   0.313735127729928E-01   0.142554E-01   0.000000E+00   0.531966E+02  -0.255715E-17
[...]
 Begin minimization
 Creating dielectric and ionic cavities
  area:      131.361588094679     
  volume:    641.812329848506     
  Acav:     6.896483374970645E-002
  Solving linear dielectric/ionic screening model
        iter                  A_solv                     rms
   LPB:       -0.371931529924710E+00   0.449988348492867E-01
   LPB:    0  -0.371931262634948E+00   0.438092714381831E-01  -0.136239E-03   0.000000E+00   0.288011E+02  -0.392384E-02
   LPB:    1  -0.371924477393234E+00   0.719361166621567E-02   0.996833E-02   0.000000E+00   0.708668E+02  -0.279894E-18
   LPB:    2  -0.371923453465589E+00   0.110518428965922E-02   0.143917E-01   0.104524E+00   0.322844E+03  -0.135705E-16
   LPB:    3  -0.371923240498018E+00   0.620161963451673E-03   0.253523E-01   0.118070E+00   0.714152E+03  -0.198153E-16
   LPB:    4  -0.371923177949506E+00   0.502315406067756E-03   0.273424E-01   0.272323E+00   0.444976E+03  -0.236656E-16
   LPB:    5  -0.371923151815407E+00   0.616299663681883E-03   0.268976E-01   0.424731E+00   0.365553E+03  -0.239333E-16
   LPB:    6  -0.371923137236427E+00   0.506262958658500E-03   0.264090E-01   0.568174E+00   0.120814E+03  -0.218197E-16
   LPB:    7  -0.371923127608675E+00   0.264646604336091E-03   0.278121E-01   0.627070E+00   0.253806E+03  -0.180634E-16
   LPB:    8  -0.371923120519857E+00   0.989465476833078E-04   0.340914E-01   0.600673E+00   0.322874E+03  -0.174406E-16
  Finished solving LPB equations
  A_corr:   -0.302958286770151     
 End minimization
 Ecorr=   1700.71604532067     
 A_corr= -0.302958286770151     
 Ecorr_band=  -1701.01900360744     
 End Solvation calculations
RMM:   4    -0.137053771863E+03   -0.63283E-06   -0.18356E-05  6981   0.201E-02
 Begin Solvation calculations
  rms_SCF =   1.620746530130952E-003 tol =   1.620746530130952E-004
 Begin minimization
 Creating dielectric and ionic cavities
  area:      131.357829799625     
  volume:    641.811501205045     
  Acav:     6.896286064480321E-002
  Solving linear dielectric/ionic screening model
        iter                  A_solv                     rms
   LPB:       -0.372085623521537E+00   0.354662892157428E-01
   LPB:    0  -0.372085277747646E+00   0.332860994083169E-01  -0.154955E-03   0.000000E+00   0.288012E+02  -0.446289E-02
   LPB:    1  -0.372081101286730E+00   0.708396310552621E-02   0.103052E-01   0.000000E+00   0.698001E+02   0.152443E-18
   LPB:    2  -0.372080116124878E+00   0.837447510086996E-03   0.162888E-01   0.149234E+00   0.186304E+03  -0.668121E-17
   LPB:    3  -0.372079963693854E+00   0.402650927087685E-03   0.273301E-01   0.922177E-01   0.352617E+03  -0.162358E-17
   LPB:    4  -0.372079917189729E+00   0.427175469517160E-03   0.279368E-01   0.298457E+00   0.499174E+03  -0.163636E-17
   LPB:    5  -0.372079894549232E+00   0.562342309636292E-03   0.282753E-01   0.481021E+00   0.389668E+03  -0.171350E-17
   LPB:    6  -0.372079880851918E+00   0.541278639258148E-03   0.277931E-01   0.615490E+00   0.110645E+03  -0.561306E-17
   LPB:    7  -0.372079871033861E+00   0.316708208030222E-03   0.283050E-01   0.703822E+00   0.183946E+03  -0.107499E-16
   LPB:    8  -0.372079863531920E+00   0.131273263189164E-03   0.346778E-01   0.623678E+00   0.243621E+03  -0.181356E-16
  Finished solving LPB equations
  A_corr:   -0.303117002887117     
 End minimization
 Ecorr=   1700.69110109369     
 A_corr= -0.303117002887117     
 Ecorr_band=  -1700.99421809658     
 End Solvation calculations
  70 F= -.13705377E+03 E0= -.13705027E+03  d E =0.203751E-03
quench:  g(F)=  0.000E+00 g(S)=  0.000E+00 dE (1.order)= 0.000E+00
 bond charge predicted
       N       E                     dE             d eps       ncg     rms          rms(c)
 Begin Solvation calculations
  rms_SCF =   1.620746530130952E-003 tol =   1.620746530130952E-004
 Begin minimization
 Creating dielectric and ionic cavities
  area:      131.353815486058     
  volume:    641.806761130657     
  Acav:     6.896075313018066E-002
  Solving linear dielectric/ionic screening model
        iter                  A_solv                     rms
   LPB:       -0.372151759820437E+00   0.892391490288045E-03
   LPB:    0  -0.372151759815806E+00   0.902586434986202E-03  -0.567084E-06   0.000000E+00   0.288014E+02  -0.163328E-04
   LPB:    1  -0.372094154981681E+00   0.363047374531063E-03   0.156767E-01   0.000000E+00   0.504806E+06  -0.996682E-22
   LPB:    2  -0.372088619689358E+00   0.352831409033552E-03   0.264384E-01   0.569773E-01   0.101828E+06   0.472108E-18
   LPB:    3  -0.372086939540517E+00   0.628401373040939E-03   0.318158E-01   0.252232E+00   0.231669E+05  -0.332258E-17
   LPB:    4  -0.372086233678959E+00   0.130621702988780E-02   0.349193E-01   0.382780E+00   0.285183E+04  -0.347495E-17
   LPB:    5  -0.372085905973496E+00   0.253336939391992E-02   0.329156E-01   0.492525E+00   0.383769E+03  -0.604055E-18
   LPB:    6  -0.372085747710618E+00   0.213354112707695E-02   0.227771E-01   0.697909E+00   0.139217E+03   0.107977E-16
   LPB:    7  -0.372085625894170E+00   0.144460315927106E-02   0.263444E-01   0.665481E+00   0.318972E+03   0.193630E-16
   LPB:    8  -0.372085556653581E+00   0.186622033946237E-02   0.257017E-01   0.582614E+00   0.185078E+03   0.251709E-16
   LPB:    9  -0.372085505546625E+00   0.681502557789014E-03   0.215006E-01   0.882333E+00   0.179603E+03   0.279336E-16
   LPB:   10  -0.372085464729835E+00   0.164445054954665E-03   0.353204E-01   0.486164E+00   0.121780E+04   0.280589E-16
   LPB:   11  -0.372085437082014E+00   0.810715144283517E-04   0.405988E-01   0.589298E+00   0.620803E+04   0.225491E-16
  Finished solving LPB equations
  A_corr:   -0.303124683951833     
 End minimization
 Ecorr=   1700.69114700409     
 A_corr= -0.303124683951833     
 Ecorr_band=  -1700.99427168804     
 End Solvation calculations
DAV:   1    -0.137053656415E+03    0.11481E-03   -0.48162E-03 15462   0.188E-01    0.218E-02
 Begin Solvation calculations
  rms_SCF =   1.620746530130952E-003 tol =   1.620746530130952E-004
 Begin minimization
 Creating dielectric and ionic cavities
  area:      131.359629299652     
  volume:    641.816000389962     
  Acav:     6.896380538231718E-002
  Solving linear dielectric/ionic screening model
        iter                  A_solv                     rms
   LPB:       -0.372029809370522E+00   0.741139989417979E-01
   LPB:    0  -0.372029628725136E+00   0.735899797945553E-01   0.112002E-03   0.000000E+00   0.288010E+02   0.322576E-02
   LPB:    1  -0.372016606478446E+00   0.737048754227053E-02   0.873843E-02   0.000000E+00   0.628678E+02   0.204862E-19
   LPB:    2  -0.372015215813157E+00   0.139461813634074E-02   0.170712E-01   0.546645E-01   0.116132E+03  -0.250904E-17
   LPB:    3  -0.372015008941760E+00   0.534838570731174E-03   0.227174E-01   0.111785E+00   0.252402E+03  -0.692597E-17
   LPB:    4  -0.372014936343891E+00   0.526850955383389E-03   0.291920E-01   0.273098E+00   0.453916E+03  -0.895438E-18
   LPB:    5  -0.372014904309389E+00   0.659153947549007E-03   0.294248E-01   0.437768E+00   0.201814E+03   0.389114E-18
   LPB:    6  -0.372014886992070E+00   0.596537875612193E-03   0.272815E-01   0.583053E+00   0.149984E+03   0.347470E-17
   LPB:    7  -0.372014875644860E+00   0.290050293988372E-03   0.266783E-01   0.670068E+00   0.177022E+03   0.708427E-17
   LPB:    8  -0.372014866878351E+00   0.119620349757839E-03   0.333428E-01   0.618150E+00   0.635555E+03   0.114438E-16
  Finished solving LPB equations
  A_corr:   -0.303051061496034     
 End minimization
 Ecorr=   1700.69171552352     
 A_corr= -0.303051061496034     
 Ecorr_band=  -1700.99476658501     
 End Solvation calculations
RMM:   2    -0.137053716393E+03   -0.59978E-04   -0.43587E-04 13879   0.424E-02    0.387E-02
 Begin Solvation calculations
  rms_SCF =   1.620746530130952E-003 tol =   1.620746530130952E-004
 Begin minimization
 Creating dielectric and ionic cavities
  area:      131.357787900632     
  volume:    641.815313017043     
  Acav:     6.896283864783176E-002
  Solving linear dielectric/ionic screening model
        iter                  A_solv                     rms
   LPB:       -0.372047868700970E+00   0.686904200573413E-01
   LPB:    0  -0.372047860694402E+00   0.686687219361097E-01  -0.235795E-04   0.000000E+00   0.288010E+02  -0.679113E-03
   LPB:    1  -0.372036828910722E+00   0.655086156596064E-02   0.866545E-02   0.000000E+00   0.623050E+02  -0.391235E-19
   LPB:    2  -0.372035898251691E+00   0.120976681861547E-02   0.157299E-01   0.464739E-01   0.116517E+03  -0.215894E-17
   LPB:    3  -0.372035778936084E+00   0.432770580681430E-03   0.226075E-01   0.892034E-01   0.167846E+03  -0.205506E-17
   LPB:    4  -0.372035744451929E+00   0.264608759422455E-03   0.286417E-01   0.228126E+00   0.290460E+03  -0.213535E-16
   LPB:    5  -0.372035729873731E+00   0.269582425056981E-03   0.282489E-01   0.428629E+00   0.333025E+03  -0.262821E-16
   LPB:    6  -0.372035723056040E+00   0.345095138768962E-03   0.285524E-01   0.462693E+00   0.198288E+03  -0.293368E-16
   LPB:    7  -0.372035719276158E+00   0.255812184495663E-03   0.253260E-01   0.625052E+00   0.127418E+03  -0.290668E-16
   LPB:    8  -0.372035716156158E+00   0.103600461076561E-03   0.317366E-01   0.658693E+00   0.256267E+03  -0.293296E-16
  Finished solving LPB equations
  A_corr:   -0.303072877508326     
 End minimization
 Ecorr=   1700.68389136110     
 A_corr= -0.303072877508326     
 Ecorr_band=  -1700.98696423861     
 End Solvation calculations
RMM:   3    -0.137053686236E+03    0.30158E-04   -0.30279E-05  7768   0.160E-02    0.171E-02
 Begin Solvation calculations
  rms_SCF =   1.620746530130952E-003 tol =   1.620746530130952E-004
 Begin minimization
 Creating dielectric and ionic cavities
  area:      131.357951273301     
  volume:    641.816629199857     
  Acav:     6.896292441848291E-002
  Solving linear dielectric/ionic screening model
        iter                  A_solv                     rms
   LPB:       -0.372021493716594E+00   0.102643180656586E-01
   LPB:    0  -0.372021490556857E+00   0.102120146794787E-01   0.148128E-04   0.000000E+00   0.288009E+02   0.426623E-03
   LPB:    1  -0.372021205825517E+00   0.107673466648537E-02   0.894237E-02   0.000000E+00   0.682637E+02   0.178577E-19
   LPB:    2  -0.372021163977915E+00   0.265419485504627E-03   0.183309E-01   0.716975E-01   0.175534E+03   0.454754E-18
   LPB:    3  -0.372021156566323E+00   0.164192834364158E-03   0.243678E-01   0.133232E+00   0.240586E+03   0.341130E-18
   LPB:    4  -0.372021152764532E+00   0.743570936685765E-04   0.327267E-01   0.381936E+00   0.484945E+03   0.212723E-17
  Finished solving LPB equations
  A_corr:   -0.303058228346049     
 End minimization
 Ecorr=   1700.68369482234     
 A_corr= -0.303058228346049     
 Ecorr_band=  -1700.98675305069     
 End Solvation calculations
RMM:   4    -0.137053683954E+03    0.22816E-05   -0.80272E-06  6590   0.142E-02
 Begin Solvation calculations
  rms_SCF =   1.620746530130952E-003 tol =   1.620746530130952E-004
 Begin minimization
 Creating dielectric and ionic cavities
  area:      131.358429124148     
  volume:    641.820617852674     
  Acav:     6.896317529017765E-002
  Solving linear dielectric/ionic screening model
        iter                  A_solv                     rms
   LPB:       -0.371974868936312E+00   0.114861983838377E-01
   LPB:    0  -0.371974763966652E+00   0.942453290217639E-02   0.853778E-04   0.000000E+00   0.288008E+02   0.245894E-02
   LPB:    1  -0.371974117335264E+00   0.362622400590045E-02   0.123578E-01   0.000000E+00   0.913777E+02   0.418973E-19
   LPB:    2  -0.371974000161512E+00   0.620943086564591E-03   0.134180E-01   0.166888E+00   0.212554E+03   0.183670E-16
   LPB:    3  -0.371973961590952E+00   0.451157727891030E-03   0.251942E-01   0.175312E+00   0.607495E+03   0.208391E-16
   LPB:    4  -0.371973946714472E+00   0.545188948475562E-03   0.258962E-01   0.375240E+00   0.235461E+03   0.226666E-16
   LPB:    5  -0.371973938466753E+00   0.348546718375946E-03   0.236100E-01   0.608099E+00   0.150301E+03   0.240128E-16
   LPB:    6  -0.371973932667055E+00   0.166810366923706E-03   0.321892E-01   0.515772E+00   0.222615E+03   0.249207E-16
   LPB:    7  -0.371973928916063E+00   0.926839617427833E-04   0.355383E-01   0.585806E+00   0.557356E+03   0.259919E-16
  Finished solving LPB equations
  A_corr:   -0.303010753625885     
 End minimization
 Ecorr=   1700.67623380207     
 A_corr= -0.303010753625885     
 Ecorr_band=  -1700.97924455569     
 End Solvation calculations
  71 F= -.13705368E+03 E0= -.13705019E+03  d E =0.879087E-04
quench:  g(F)=  0.000E+00 g(S)=  0.000E+00 dE (1.order)= 0.000E+00
 bond charge predicted
       N       E                     dE             d eps       ncg     rms          rms(c)
 Begin Solvation calculations
  rms_SCF =   1.620746530130952E-003 tol =   1.620746530130952E-004
 Begin minimization
 Creating dielectric and ionic cavities
  area:      131.360042258282     
  volume:    641.819100927095     
  Acav:     6.896402218559793E-002
  Solving linear dielectric/ionic screening model
        iter                  A_solv                     rms
   LPB:       -0.372045914160075E+00   0.804813615745796E-03
   LPB:    0  -0.372045914159104E+00   0.807750279944986E-03  -0.259665E-06   0.000000E+00   0.288008E+02  -0.747857E-05
   LPB:    1  -0.371992421263802E+00   0.320895482117475E-03   0.160293E-01   0.000000E+00   0.608267E+06   0.707091E-21
   LPB:    2  -0.371986505506088E+00   0.213898003683801E-03   0.268270E-01   0.660778E-01   0.139524E+06   0.207758E-19
   LPB:    3  -0.371984681230697E+00   0.325876292450401E-03   0.320967E-01   0.257745E+00   0.571613E+05   0.197282E-17
   LPB:    4  -0.371983910585965E+00   0.650982778951630E-03   0.353860E-01   0.383171E+00   0.992696E+04   0.164294E-17
   LPB:    5  -0.371983535699369E+00   0.143307825308261E-02   0.362267E-01   0.475170E+00   0.137851E+04   0.104437E-18
   LPB:    6  -0.371983353622701E+00   0.225558922874814E-02   0.301651E-01   0.583281E+00   0.214425E+03   0.455954E-17
   LPB:    7  -0.371983244565326E+00   0.134882141843866E-02   0.229065E-01   0.788764E+00   0.160181E+03   0.192781E-16
   LPB:    8  -0.371983160676099E+00   0.136765205376518E-02   0.305716E-01   0.576358E+00   0.406545E+03   0.255935E-16
   LPB:    9  -0.371983117325359E+00   0.149927379115579E-02   0.228795E-01   0.690497E+00   0.149807E+03   0.255000E-16
   LPB:   10  -0.371983079840082E+00   0.448855818209860E-03   0.236103E-01   0.837932E+00   0.261147E+03   0.267531E-16
   LPB:   11  -0.371983050216864E+00   0.115345779820758E-03   0.376870E-01   0.495087E+00   0.185516E+04   0.315763E-16
  Finished solving LPB equations
  A_corr:   -0.303019028031266     
 End minimization
 Ecorr=   1700.67335563563     
 A_corr= -0.303019028031266     
 Ecorr_band=  -1700.97637466366     
 End Solvation calculations
DAV:   1    -0.137053458910E+03    0.22733E-03   -0.54313E-03 12753   0.167E-01    0.205E-02
 Begin Solvation calculations
  rms_SCF =   1.620746530130952E-003 tol =   1.620746530130952E-004
 Begin minimization
 Creating dielectric and ionic cavities
  area:      131.360483408175     
  volume:    641.815540486944     
  Acav:     6.896425378929183E-002
  Solving linear dielectric/ionic screening model
        iter                  A_solv                     rms
   LPB:       -0.371972232282960E+00   0.202051172954024E-01
   LPB:    0  -0.371972220636425E+00   0.201783295706734E-01  -0.284387E-04   0.000000E+00   0.288010E+02  -0.819063E-03
   LPB:    1  -0.371971190737200E+00   0.207560950522668E-02   0.896891E-02   0.000000E+00   0.628599E+02  -0.419646E-19
   LPB:    2  -0.371971049736023E+00   0.477316676374787E-03   0.175404E-01   0.700047E-01   0.145585E+03  -0.120654E-17
   LPB:    3  -0.371971019472788E+00   0.343785266969982E-03   0.263514E-01   0.142866E+00   0.267712E+03  -0.274574E-17
   LPB:    4  -0.371971003932061E+00   0.312101210252828E-03   0.340871E-01   0.396982E+00   0.390809E+03  -0.525498E-17
   LPB:    5  -0.371970994056159E+00   0.404597028378809E-03   0.321069E-01   0.674678E+00   0.321258E+03  -0.377241E-17
   LPB:    6  -0.371970986404424E+00   0.350824493015847E-03   0.294322E-01   0.845199E+00   0.180885E+03  -0.459754E-18
   LPB:    7  -0.371970980054908E+00   0.218744664583746E-03   0.312391E-01   0.781818E+00   0.331528E+03   0.272643E-17
   LPB:    8  -0.371970974692698E+00   0.990046027520902E-04   0.361544E-01   0.729693E+00   0.477532E+03   0.383848E-18
  Finished solving LPB equations
  A_corr:   -0.303006720903406     
 End minimization
 Ecorr=   1700.69490169365     
 A_corr= -0.303006720903406     
 Ecorr_band=  -1700.99790841456     
 End Solvation calculations
RMM:   2    -0.137053491286E+03   -0.32376E-04   -0.34297E-04 16235   0.441E-02    0.119E-02
 Begin Solvation calculations
  rms_SCF =   1.620746530130952E-003 tol =   1.620746530130952E-004
 Begin minimization
 Creating dielectric and ionic cavities
  area:      131.359136083470     
  volume:    641.816586819617     
  Acav:     6.896354644382166E-002
  Solving linear dielectric/ionic screening model
        iter                  A_solv                     rms
   LPB:       -0.371998548881234E+00   0.288002970126815E-01
   LPB:    0  -0.371998548565162E+00   0.287970724136003E-01  -0.468495E-05   0.000000E+00   0.288009E+02  -0.134931E-03
   LPB:    1  -0.371996575454555E+00   0.278540780517048E-02   0.874057E-02   0.000000E+00   0.622786E+02  -0.850088E-20
   LPB:    2  -0.371996384572684E+00   0.560591437052792E-03   0.162161E-01   0.521444E-01   0.123430E+03   0.526047E-18
   LPB:    3  -0.371996355961468E+00   0.237767976522934E-03   0.234434E-01   0.103680E+00   0.180654E+03   0.730178E-18
   LPB:    4  -0.371996346664903E+00   0.191667064217934E-03   0.298714E-01   0.255006E+00   0.331192E+03   0.220200E-18
   LPB:    5  -0.371996342232257E+00   0.220368728168082E-03   0.283378E-01   0.502609E+00   0.273455E+03   0.376420E-17
   LPB:    6  -0.371996339700738E+00   0.220825431402091E-03   0.276366E-01   0.585599E+00   0.161593E+03   0.517079E-17
   LPB:    7  -0.371996337856628E+00   0.136450869362273E-03   0.286271E-01   0.703255E+00   0.166337E+03   0.523869E-17
  Finished solving LPB equations
  A_corr:   -0.303032791412807     
 End minimization
 Ecorr=   1700.68511188166     
 A_corr= -0.303032791412807     
 Ecorr_band=  -1700.98814467307     
 End Solvation calculations
RMM:   3    -0.137053486524E+03    0.47618E-05   -0.16001E-05  6881   0.151E-02
 Begin Solvation calculations
  rms_SCF =   1.620746530130952E-003 tol =   1.620746530130952E-004
 Begin minimization
 Creating dielectric and ionic cavities
  area:      131.359245625287     
  volume:    641.816857851117     
  Acav:     6.896360395327551E-002
  Solving linear dielectric/ionic screening model
        iter                  A_solv                     rms
   LPB:       -0.371983553527334E+00   0.221025673965604E-01
   LPB:    0  -0.371983548429108E+00   0.220339631496294E-01   0.188157E-04   0.000000E+00   0.288009E+02   0.541911E-03
   LPB:    1  -0.371982407835117E+00   0.219737075767284E-02   0.871563E-02   0.000000E+00   0.617337E+02   0.425786E-19
   LPB:    2  -0.371982300595542E+00   0.378838834247919E-03   0.161754E-01   0.506602E-01   0.111193E+03   0.145381E-17
   LPB:    3  -0.371982286044027E+00   0.133357858501539E-03   0.225075E-01   0.975174E-01   0.208546E+03   0.198475E-18
   LPB:    4  -0.371982281296859E+00   0.131770406595275E-03   0.292245E-01   0.251250E+00   0.309548E+03   0.397977E-18
  Finished solving LPB equations
  A_corr:   -0.303018677343583     
 End minimization
 Ecorr=   1700.69239333590     
 A_corr= -0.303018677343583     
 Ecorr_band=  -1700.99541201324     
 End Solvation calculations
  72 F= -.13705349E+03 E0= -.13704999E+03  d E =0.197430E-03
quench:  g(F)=  0.000E+00 g(S)=  0.000E+00 dE (1.order)= 0.000E+00
 reached required accuracy - stopping structural energy minimisation
