 vasp.5.4.4.18Apr17-6-g9f103f2a35 (build Feb 06 2024 13:54:16) complex          
  
 POSCAR found type information on POSCAR  Ni N  O 
 05/POSCAR found :  3 types and      40 ions
 scaLAPACK will be used

 ----------------------------------------------------------------------------- 
|                                                                             |
|  ADVICE TO THIS USER RUNNING 'VASP/VAMP'   (HEAR YOUR MASTER'S VOICE ...):  |
|                                                                             |
|      You enforced a specific xc-type in the INCAR file,                     |
|      a different type was found on the POTCAR file                          |
|          I HOPE YOU KNOW, WHAT YOU ARE  DOING                               |
|                                                                             |
 ----------------------------------------------------------------------------- 

 LDA part: xc-table for Pade appr. of Perdew
 POSCAR found type information on POSCAR  Ni N  O 
 00/POSCAR found :  3 types and      40 ions
 POSCAR found type information on POSCAR  Ni N  O 
 06/POSCAR found :  3 types and      40 ions
 Jacobian:    19.3150482140651     
 POSCAR, INCAR and KPOINTS ok, starting setup
 FFT: planning ...
 WAVECAR not read
 entering main loop
       N       E                     dE             d eps       ncg     rms          rms(c)
DAV:   1     0.251701439922E+04    0.25170E+04   -0.12482E+05  5976   0.112E+03
DAV:   2     0.898385294573E+02   -0.24272E+04   -0.22896E+04  5976   0.312E+02
DAV:   3    -0.202006492234E+03   -0.29185E+03   -0.25351E+03  7266   0.128E+02
DAV:   4    -0.225975944010E+03   -0.23969E+02   -0.22861E+02  6732   0.338E+01
DAV:   5    -0.226601425342E+03   -0.62548E+00   -0.62057E+00  6543   0.500E+00    0.590E+01
DAV:   6    -0.235517025642E+03   -0.89156E+01   -0.35003E+02  6894   0.122E+02    0.873E+01
DAV:   7    -0.284898538218E+03   -0.49382E+02   -0.16131E+02  6930   0.165E+02    0.119E+02
DAV:   8    -0.222928483561E+03    0.61970E+02   -0.74675E+01  7272   0.966E+01    0.857E+01
DAV:   9    -0.233961937966E+03   -0.11033E+02   -0.84789E+01  7065   0.994E+01    0.861E+01
DAV:  10    -0.210574143278E+03    0.23388E+02   -0.58987E+01  7011   0.708E+01    0.794E+01
DAV:  11    -0.186735784032E+03    0.23838E+02   -0.36184E+01  6858   0.636E+01    0.465E+01
DAV:  12    -0.188788967861E+03   -0.20532E+01   -0.42751E+01  6522   0.605E+01    0.488E+01
DAV:  13    -0.190339433678E+03   -0.15505E+01   -0.27637E+01  6507   0.491E+01    0.545E+01
DAV:  14    -0.189418193977E+03    0.92124E+00   -0.24909E+01  6516   0.337E+01    0.579E+01
DAV:  15    -0.184396321050E+03    0.50219E+01   -0.16873E+01  6552   0.280E+01    0.431E+01
DAV:  16    -0.182270844811E+03    0.21255E+01   -0.48227E+00  6552   0.209E+01    0.326E+01
DAV:  17    -0.182560423572E+03   -0.28958E+00   -0.75205E+00  6504   0.230E+01    0.293E+01
DAV:  18    -0.181591139613E+03    0.96928E+00   -0.54988E+00  6501   0.255E+01    0.239E+01
DAV:  19    -0.182550073044E+03   -0.95893E+00   -0.36365E+00  6372   0.217E+01    0.270E+01
DAV:  20    -0.182437798233E+03    0.11227E+00   -0.23223E+00  6309   0.153E+01    0.243E+01
DAV:  21    -0.182641496465E+03   -0.20370E+00   -0.96614E-01  6216   0.767E+00    0.231E+01
DAV:  22    -0.182810243605E+03   -0.16875E+00   -0.54625E-01  6372   0.589E+00    0.222E+01
DAV:  23    -0.183144598726E+03   -0.33436E+00   -0.64906E-01  6369   0.774E+00    0.217E+01
DAV:  24    -0.183800161803E+03   -0.65556E+00   -0.13350E+00  6351   0.109E+01    0.202E+01
DAV:  25    -0.184065025611E+03   -0.26486E+00   -0.17663E+00  6267   0.117E+01    0.145E+01
DAV:  26    -0.184731505893E+03   -0.66648E+00   -0.16186E+00  6300   0.114E+01    0.944E+00
DAV:  27    -0.185845972811E+03   -0.11145E+01   -0.11913E+00  6336   0.104E+01    0.111E+01
DAV:  28    -0.186861606303E+03   -0.10156E+01   -0.83159E-01  6297   0.793E+00    0.970E+00
DAV:  29    -0.187196428396E+03   -0.33482E+00   -0.35584E-01  6231   0.553E+00    0.868E+00
DAV:  30    -0.187937167130E+03   -0.74074E+00   -0.29695E-01  6405   0.432E+00    0.838E+00
DAV:  31    -0.188384126680E+03   -0.44696E+00   -0.22294E-01  6216   0.387E+00    0.783E+00
DAV:  32    -0.189083361865E+03   -0.69924E+00   -0.23985E-01  6180   0.380E+00    0.576E+00
DAV:  33    -0.189785489354E+03   -0.70213E+00   -0.33077E-01  6297   0.473E+00    0.612E+00
DAV:  34    -0.190995731914E+03   -0.12102E+01   -0.64711E-01  6225   0.481E+00    0.451E+00
DAV:  35    -0.191290106478E+03   -0.29437E+00   -0.22904E-01  6372   0.389E+00    0.378E+00
DAV:  36    -0.191981880026E+03   -0.69177E+00   -0.31059E-01  6171   0.299E+00    0.409E+00
DAV:  37    -0.192138838882E+03   -0.15696E+00   -0.98779E-02  6399   0.255E+00    0.341E+00
DAV:  38    -0.192494562530E+03   -0.35572E+00   -0.16784E-01  6099   0.244E+00    0.248E+00
DAV:  39    -0.192590992237E+03   -0.96430E-01   -0.56879E-02  6255   0.210E+00    0.199E+00
DAV:  40    -0.192746510448E+03   -0.15552E+00   -0.42574E-02  6078   0.166E+00    0.231E+00
DAV:  41    -0.192803713873E+03   -0.57203E-01   -0.19456E-02  6282   0.124E+00    0.248E+00
DAV:  42    -0.192936312003E+03   -0.13260E+00   -0.19502E-02  6126   0.102E+00    0.280E+00
DAV:  43    -0.193013977171E+03   -0.77665E-01   -0.22076E-02  6312   0.153E+00    0.272E+00
DAV:  44    -0.193162996928E+03   -0.14902E+00   -0.58998E-02  6282   0.187E+00    0.167E+00
DAV:  45    -0.193203061411E+03   -0.40064E-01   -0.28250E-02  6552   0.146E+00    0.156E+00
DAV:  46    -0.193229621423E+03   -0.26560E-01   -0.14437E-02  6243   0.921E-01    0.126E+00
DAV:  47    -0.193242399107E+03   -0.12778E-01   -0.45551E-03  6309   0.624E-01    0.131E+00
DAV:  48    -0.193272108014E+03   -0.29709E-01   -0.35478E-03  6168   0.555E-01    0.122E+00
DAV:  49    -0.193321943045E+03   -0.49835E-01   -0.63656E-03  6312   0.873E-01    0.136E+00
DAV:  50    -0.193417320870E+03   -0.95378E-01   -0.21952E-02  6249   0.127E+00    0.108E+00
DAV:  51    -0.193451023605E+03   -0.33703E-01   -0.18601E-02  6618   0.120E+00    0.136E+00
DAV:  52    -0.193473704238E+03   -0.22681E-01   -0.96649E-03  6201   0.918E-01    0.102E+00
DAV:  53    -0.193486925729E+03   -0.13221E-01   -0.47400E-03  6138   0.693E-01    0.901E-01
DAV:  54    -0.193508055572E+03   -0.21130E-01   -0.12004E-02  6270   0.103E+00    0.162E+00
DAV:  55    -0.193527482580E+03   -0.19427E-01   -0.47959E-03  6240   0.467E-01    0.128E+00
DAV:  56    -0.193536395227E+03   -0.89126E-02   -0.32706E-03  6528   0.588E-01    0.149E+00
DAV:  57    -0.193551464573E+03   -0.15069E-01   -0.80024E-03  6435   0.697E-01    0.502E-01
DAV:  58    -0.193556066176E+03   -0.46016E-02   -0.18418E-03  6435   0.376E-01    0.348E-01
DAV:  59    -0.193564669357E+03   -0.86032E-02   -0.11997E-03  6102   0.238E-01    0.249E-01
DAV:  60    -0.193567049528E+03   -0.23802E-02   -0.46080E-04  5490   0.195E-01    0.253E-01
DAV:  61    -0.193572038632E+03   -0.49891E-02   -0.53896E-04  4707   0.202E-01    0.223E-01
DAV:  62    -0.193572323969E+03   -0.28534E-03   -0.23687E-04  3852   0.157E-01    0.189E-01
DAV:  63    -0.193573216941E+03   -0.89297E-03   -0.16352E-04  3636   0.125E-01    0.246E-01
DAV:  64    -0.193575342217E+03   -0.21253E-02   -0.12322E-04  3831   0.948E-02    0.318E-01
DAV:  65    -0.193576561665E+03   -0.12194E-02   -0.13827E-04  3789   0.108E-01    0.231E-01
DAV:  66    -0.193577170128E+03   -0.60846E-03   -0.15922E-04  3597   0.117E-01    0.919E-02
DAV:  67    -0.193578200344E+03   -0.10302E-02   -0.80612E-05  3753   0.721E-02    0.944E-02
DAV:  68    -0.193579564503E+03   -0.13642E-02   -0.95520E-05  3828   0.649E-02    0.110E-01
DAV:  69    -0.193579880202E+03   -0.31570E-03   -0.39722E-05  3480   0.514E-02    0.142E-01
DAV:  70    -0.193580352340E+03   -0.47214E-03   -0.28488E-05  3633   0.394E-02    0.139E-01
DAV:  71    -0.193580529901E+03   -0.17756E-03   -0.22998E-05  3441   0.402E-02    0.956E-02
DAV:  72    -0.193580725136E+03   -0.19524E-03   -0.13741E-05  3492   0.313E-02    0.713E-02
DAV:  73    -0.193580993993E+03   -0.26886E-03   -0.23940E-05  3576   0.340E-02    0.145E-02
DAV:  74    -0.193581206994E+03   -0.21300E-03   -0.17813E-05  3582   0.226E-02    0.350E-02
DAV:  75    -0.193581357845E+03   -0.15085E-03   -0.16361E-05  3555   0.281E-02    0.137E-02
DAV:  76    -0.193581309922E+03    0.47922E-04   -0.33150E-06  3423   0.153E-02
   1 F= -.19358131E+03 E0= -.19357864E+03  d E =-.193581E+03  mag=    25.1215
quench:  g(F)=  0.000E+00 g(S)=  0.000E+00 dE (1.order)= 0.000E+00
 bond charge predicted
       N       E                     dE             d eps       ncg     rms          rms(c)
DAV:   1    -0.193581128093E+03    0.22975E-03   -0.62388E-03  6138   0.149E-01    0.300E-02
DAV:   2    -0.193581736648E+03   -0.60855E-03   -0.11365E-03  4140   0.245E-01    0.495E-01
DAV:   3    -0.193581182034E+03    0.55461E-03   -0.12693E-03  3627   0.266E-01    0.893E-02
DAV:   4    -0.193581231738E+03   -0.49704E-04   -0.61058E-05  3405   0.761E-02
   2 F= -.19358123E+03 E0= -.19357854E+03  d E =0.781841E-04  mag=    25.1206
quench:  g(F)=  0.000E+00 g(S)=  0.000E+00 dE (1.order)= 0.000E+00
 bond charge predicted
       N       E                     dE             d eps       ncg     rms          rms(c)
DAV:   1    -0.193580636859E+03    0.54518E-03   -0.21297E-02  6123   0.287E-01    0.655E-02
DAV:   2    -0.193581287338E+03   -0.65048E-03   -0.14473E-03  7611   0.355E-01    0.447E-01
DAV:   3    -0.193581070522E+03    0.21682E-03   -0.17853E-03  5094   0.393E-01    0.407E-01
DAV:   4    -0.193580728097E+03    0.34242E-03   -0.87872E-04  3648   0.231E-01    0.942E-02
DAV:   5    -0.193580781891E+03   -0.53794E-04   -0.11720E-04  3429   0.119E-01
   3 F= -.19358078E+03 E0= -.19357809E+03  d E =0.449847E-03  mag=    25.1198
quench:  g(F)=  0.000E+00 g(S)=  0.000E+00 dE (1.order)= 0.000E+00
 bond charge predicted
       N       E                     dE             d eps       ncg     rms          rms(c)
DAV:   1    -0.193579853647E+03    0.87445E-03   -0.48958E-02  6087   0.431E-01    0.815E-02
DAV:   2    -0.193581035519E+03   -0.11819E-02   -0.31966E-03  8442   0.409E-01    0.659E-01
DAV:   3    -0.193580339654E+03    0.69587E-03   -0.39169E-03  5517   0.488E-01    0.456E-01
DAV:   4    -0.193579978522E+03    0.36113E-03   -0.11114E-03  3945   0.293E-01    0.114E-01
DAV:   5    -0.193580084551E+03   -0.10603E-03   -0.21821E-04  3414   0.172E-01    0.155E-01
DAV:   6    -0.193580040086E+03    0.44464E-04   -0.14324E-04  3450   0.141E-01
   4 F= -.19358004E+03 E0= -.19357740E+03  d E =0.741805E-03  mag=    25.1188
quench:  g(F)=  0.000E+00 g(S)=  0.000E+00 dE (1.order)= 0.000E+00
 bond charge predicted
       N       E                     dE             d eps       ncg     rms          rms(c)
DAV:   1    -0.193578763446E+03    0.13211E-02   -0.80126E-02  5976   0.543E-01    0.101E-01
DAV:   2    -0.193580745186E+03   -0.19817E-02   -0.56373E-03  8550   0.500E-01    0.872E-01
DAV:   3    -0.193579264143E+03    0.14810E-02   -0.57853E-03  6099   0.581E-01    0.457E-01
DAV:   4    -0.193579001931E+03    0.26221E-03   -0.12577E-03  4518   0.329E-01    0.152E-01
DAV:   5    -0.193579076575E+03   -0.74644E-04   -0.24607E-04  3540   0.167E-01
   5 F= -.19357908E+03 E0= -.19357643E+03  d E =0.963512E-03  mag=    25.1180
quench:  g(F)=  0.000E+00 g(S)=  0.000E+00 dE (1.order)= 0.000E+00
 bond charge predicted
       N       E                     dE             d eps       ncg     rms          rms(c)
DAV:   1    -0.193577922368E+03    0.10796E-02   -0.66478E-02  6090   0.484E-01    0.980E-02
DAV:   2    -0.193578929973E+03   -0.10076E-02   -0.38067E-03  8040   0.393E-01    0.566E-01
DAV:   3    -0.193578733079E+03    0.19689E-03   -0.34708E-03  5901   0.489E-01    0.545E-01
DAV:   4    -0.193578122414E+03    0.61067E-03   -0.15595E-03  3918   0.314E-01    0.130E-01
DAV:   5    -0.193578238099E+03   -0.11569E-03   -0.18398E-04  3489   0.150E-01    0.136E-01
DAV:   6    -0.193578192928E+03    0.45170E-04   -0.14202E-04  3492   0.142E-01
   6 F= -.19357819E+03 E0= -.19357549E+03  d E =0.883646E-03  mag=    25.1171
quench:  g(F)=  0.000E+00 g(S)=  0.000E+00 dE (1.order)= 0.000E+00
 bond charge predicted
       N       E                     dE             d eps       ncg     rms          rms(c)
DAV:   1    -0.193577890302E+03    0.34780E-03   -0.22924E-02  6075   0.295E-01    0.132E-01
DAV:   2    -0.193581173514E+03   -0.32832E-02   -0.55496E-03  7386   0.851E-01    0.106E+00
DAV:   3    -0.193578344039E+03    0.28295E-02   -0.53999E-03  6636   0.801E-01    0.516E-01
DAV:   4    -0.193578026092E+03    0.31795E-03   -0.21022E-03  4005   0.359E-01    0.268E-01
DAV:   5    -0.193577919967E+03    0.10612E-03   -0.37140E-04  3588   0.182E-01    0.580E-02
DAV:   6    -0.193577956650E+03   -0.36683E-04   -0.99331E-05  3468   0.886E-02
   7 F= -.19357796E+03 E0= -.19357530E+03  d E =0.236279E-03  mag=    25.1166
quench:  g(F)=  0.000E+00 g(S)=  0.000E+00 dE (1.order)= 0.000E+00
 bond charge predicted
       N       E                     dE             d eps       ncg     rms          rms(c)
DAV:   1    -0.193577111354E+03    0.80861E-03   -0.24349E-02  6006   0.318E-01    0.598E-02
DAV:   2    -0.193577934523E+03   -0.82317E-03   -0.20571E-03  6834   0.331E-01    0.576E-01
DAV:   3    -0.193577297814E+03    0.63671E-03   -0.23820E-03  3828   0.374E-01    0.300E-01
DAV:   4    -0.193577158103E+03    0.13971E-03   -0.51397E-04  3504   0.206E-01    0.803E-02
DAV:   5    -0.193577203918E+03   -0.45815E-04   -0.10590E-04  3423   0.106E-01
   8 F= -.19357720E+03 E0= -.19357457E+03  d E =0.752732E-03  mag=    25.1161
quench:  g(F)=  0.000E+00 g(S)=  0.000E+00 dE (1.order)= 0.000E+00
 bond charge predicted
       N       E                     dE             d eps       ncg     rms          rms(c)
DAV:   1    -0.193575977035E+03    0.11811E-02   -0.53739E-02  5976   0.459E-01    0.778E-02
DAV:   2    -0.193576765281E+03   -0.78825E-03   -0.28551E-03  8085   0.313E-01    0.531E-01
DAV:   3    -0.193576321804E+03    0.44348E-03   -0.25775E-03  4365   0.387E-01    0.342E-01
DAV:   4    -0.193576159725E+03    0.16208E-03   -0.82207E-04  3699   0.269E-01    0.158E-01
DAV:   5    -0.193576196360E+03   -0.36635E-04   -0.20084E-04  3390   0.163E-01
   9 F= -.19357620E+03 E0= -.19357354E+03  d E =0.100756E-02  mag=    25.1156
quench:  g(F)=  0.000E+00 g(S)=  0.000E+00 dE (1.order)= 0.000E+00
 bond charge predicted
       N       E                     dE             d eps       ncg     rms          rms(c)
DAV:   1    -0.193574797194E+03    0.13625E-02   -0.84431E-02  5976   0.567E-01    0.977E-02
DAV:   2    -0.193575679566E+03   -0.88237E-03   -0.40027E-03  8295   0.352E-01    0.511E-01
DAV:   3    -0.193575576615E+03    0.10295E-03   -0.36321E-03  5595   0.472E-01    0.532E-01
DAV:   4    -0.193575033054E+03    0.54356E-03   -0.14309E-03  3903   0.321E-01    0.162E-01
DAV:   5    -0.193575153090E+03   -0.12004E-03   -0.25037E-04  3414   0.181E-01    0.181E-01
DAV:   6    -0.193575070950E+03    0.82140E-04   -0.18502E-04  3378   0.160E-01
  10 F= -.19357507E+03 E0= -.19357236E+03  d E =0.112541E-02  mag=    25.1149
quench:  g(F)=  0.000E+00 g(S)=  0.000E+00 dE (1.order)= 0.000E+00
 bond charge predicted
       N       E                     dE             d eps       ncg     rms          rms(c)
DAV:   1    -0.193574221415E+03    0.93168E-03   -0.63197E-02  5994   0.467E-01    0.125E-01
DAV:   2    -0.193577972448E+03   -0.37510E-02   -0.79936E-03  8550   0.808E-01    0.115E+00
DAV:   3    -0.193575944605E+03    0.20278E-02   -0.12931E-02  6714   0.897E-01    0.886E-01
DAV:   4    -0.193574326928E+03    0.16177E-02   -0.38045E-03  5868   0.530E-01    0.175E-01
DAV:   5    -0.193574493005E+03   -0.16608E-03   -0.44380E-04  4614   0.225E-01    0.182E-01
DAV:   6    -0.193574423329E+03    0.69676E-04   -0.26743E-04  3657   0.174E-01
  11 F= -.19357442E+03 E0= -.19357177E+03  d E =0.647621E-03  mag=    25.1142
quench:  g(F)=  0.000E+00 g(S)=  0.000E+00 dE (1.order)= 0.000E+00
 bond charge predicted
       N       E                     dE             d eps       ncg     rms          rms(c)
DAV:   1    -0.193574136426E+03    0.35658E-03   -0.20102E-02  6123   0.277E-01    0.779E-02
DAV:   2    -0.193575640674E+03   -0.15042E-02   -0.32645E-03  7557   0.503E-01    0.736E-01
DAV:   3    -0.193575063180E+03    0.57749E-03   -0.57635E-03  5604   0.600E-01    0.652E-01
DAV:   4    -0.193574145928E+03    0.91725E-03   -0.14872E-03  3912   0.323E-01    0.557E-02
DAV:   5    -0.193574253628E+03   -0.10770E-03   -0.13073E-04  3435   0.123E-01    0.129E-01
DAV:   6    -0.193574226039E+03    0.27589E-04   -0.11802E-04  3432   0.112E-01
  12 F= -.19357423E+03 E0= -.19357152E+03  d E =0.197289E-03  mag=    25.1136
quench:  g(F)=  0.000E+00 g(S)=  0.000E+00 dE (1.order)= 0.000E+00
 bond charge predicted
       N       E                     dE             d eps       ncg     rms          rms(c)
DAV:   1    -0.193573501111E+03    0.75252E-03   -0.22291E-02  6024   0.301E-01    0.590E-02
DAV:   2    -0.193574014614E+03   -0.51350E-03   -0.14413E-03  7095   0.296E-01    0.432E-01
DAV:   3    -0.193573845426E+03    0.16919E-03   -0.19095E-03  3798   0.344E-01    0.376E-01
DAV:   4    -0.193573537490E+03    0.30794E-03   -0.78741E-04  3642   0.237E-01    0.783E-02
DAV:   5    -0.193573591644E+03   -0.54154E-04   -0.10860E-04  3405   0.118E-01
  13 F= -.19357359E+03 E0= -.19357087E+03  d E =0.634396E-03  mag=    25.1131
quench:  g(F)=  0.000E+00 g(S)=  0.000E+00 dE (1.order)= 0.000E+00
 bond charge predicted
       N       E                     dE             d eps       ncg     rms          rms(c)
DAV:   1    -0.193572473650E+03    0.10638E-02   -0.51564E-02  6012   0.453E-01    0.812E-02
DAV:   2    -0.193573058532E+03   -0.58488E-03   -0.21846E-03  8394   0.329E-01    0.400E-01
DAV:   3    -0.193572606076E+03    0.45246E-03   -0.77808E-04  5631   0.335E-01    0.103E-01
DAV:   4    -0.193572937955E+03   -0.33188E-03   -0.70909E-04  3594   0.234E-01    0.376E-01
DAV:   5    -0.193572733958E+03    0.20400E-03   -0.12168E-03  3585   0.264E-01    0.231E-01
DAV:   6    -0.193572623653E+03    0.11030E-03   -0.21997E-04  3351   0.150E-01    0.456E-02
DAV:   7    -0.193572644173E+03   -0.20519E-04   -0.41022E-05  3381   0.737E-02
  14 F= -.19357264E+03 E0= -.19356994E+03  d E =0.947471E-03  mag=    25.1122
quench:  g(F)=  0.000E+00 g(S)=  0.000E+00 dE (1.order)= 0.000E+00
 bond charge predicted
       N       E                     dE             d eps       ncg     rms          rms(c)
DAV:   1    -0.193571418003E+03    0.12057E-02   -0.87179E-02  6108   0.565E-01    0.910E-02
DAV:   2    -0.193572096484E+03   -0.67848E-03   -0.34862E-03  8259   0.309E-01    0.435E-01
DAV:   3    -0.193572108401E+03   -0.11917E-04   -0.25841E-03  5493   0.411E-01    0.487E-01
DAV:   4    -0.193571702945E+03    0.40546E-03   -0.17402E-03  3909   0.336E-01    0.211E-01
DAV:   5    -0.193571718197E+03   -0.15252E-04   -0.29639E-04  3486   0.176E-01
  15 F= -.19357172E+03 E0= -.19356905E+03  d E =0.925975E-03  mag=    25.1116
quench:  g(F)=  0.000E+00 g(S)=  0.000E+00 dE (1.order)= 0.000E+00
 bond charge predicted
       N       E                     dE             d eps       ncg     rms          rms(c)
DAV:   1    -0.193570503840E+03    0.11991E-02   -0.92769E-02  5988   0.571E-01    0.104E-01
DAV:   2    -0.193571268935E+03   -0.76509E-03   -0.42692E-03  8163   0.337E-01    0.442E-01
DAV:   3    -0.193571145389E+03    0.12355E-03   -0.20880E-03  6192   0.410E-01    0.433E-01
DAV:   4    -0.193570872983E+03    0.27241E-03   -0.15759E-03  3813   0.309E-01    0.236E-01
DAV:   5    -0.193570877398E+03   -0.44150E-05   -0.35524E-04  3507   0.183E-01
  16 F= -.19357088E+03 E0= -.19356820E+03  d E =0.840799E-03  mag=    25.1110
quench:  g(F)=  0.000E+00 g(S)=  0.000E+00 dE (1.order)= 0.000E+00
 bond charge predicted
       N       E                     dE             d eps       ncg     rms          rms(c)
DAV:   1    -0.193570581572E+03    0.29141E-03   -0.26350E-02  6024   0.326E-01    0.758E-02
DAV:   2    -0.193571319121E+03   -0.73755E-03   -0.20946E-03  7968   0.374E-01    0.488E-01
DAV:   3    -0.193570687589E+03    0.63153E-03   -0.10486E-03  5739   0.358E-01    0.150E-01
DAV:   4    -0.193570854296E+03   -0.16671E-03   -0.66829E-04  3507   0.197E-01    0.275E-01
DAV:   5    -0.193570732548E+03    0.12175E-03   -0.42009E-04  3363   0.169E-01    0.124E-01
DAV:   6    -0.193570707121E+03    0.25427E-04   -0.82260E-05  3372   0.102E-01
  17 F= -.19357071E+03 E0= -.19356803E+03  d E =0.170277E-03  mag=    25.1102
quench:  g(F)=  0.000E+00 g(S)=  0.000E+00 dE (1.order)= 0.000E+00
 bond charge predicted
       N       E                     dE             d eps       ncg     rms          rms(c)
DAV:   1    -0.193570088904E+03    0.64364E-03   -0.24438E-02  5988   0.314E-01    0.896E-02
DAV:   2    -0.193571382407E+03   -0.12935E-02   -0.25130E-03  7818   0.540E-01    0.633E-01
DAV:   3    -0.193570347936E+03    0.10345E-02   -0.22310E-03  6108   0.514E-01    0.340E-01
DAV:   4    -0.193570190358E+03    0.15758E-03   -0.99802E-04  3573   0.242E-01    0.188E-01
DAV:   5    -0.193570158592E+03    0.31766E-04   -0.26189E-04  3399   0.165E-01
  18 F= -.19357016E+03 E0= -.19356750E+03  d E =0.548529E-03  mag=    25.1097
quench:  g(F)=  0.000E+00 g(S)=  0.000E+00 dE (1.order)= 0.000E+00
 bond charge predicted
       N       E                     dE             d eps       ncg     rms          rms(c)
DAV:   1    -0.193569193078E+03    0.99728E-03   -0.52536E-02  5988   0.455E-01    0.105E-01
DAV:   2    -0.193571329668E+03   -0.21366E-02   -0.50178E-03  8748   0.609E-01    0.875E-01
DAV:   3    -0.193570439119E+03    0.89055E-03   -0.80052E-03  6348   0.713E-01    0.776E-01
DAV:   4    -0.193569210779E+03    0.12283E-02   -0.28269E-03  5190   0.438E-01    0.137E-01
DAV:   5    -0.193569387080E+03   -0.17630E-03   -0.31335E-04  4008   0.201E-01    0.164E-01
DAV:   6    -0.193569332545E+03    0.54535E-04   -0.19049E-04  3444   0.153E-01
  19 F= -.19356933E+03 E0= -.19356660E+03  d E =0.826047E-03  mag=    25.1090
quench:  g(F)=  0.000E+00 g(S)=  0.000E+00 dE (1.order)= 0.000E+00
 bond charge predicted
       N       E                     dE             d eps       ncg     rms          rms(c)
DAV:   1    -0.193568309788E+03    0.10773E-02   -0.87347E-02  5976   0.563E-01    0.976E-02
DAV:   2    -0.193569009150E+03   -0.69936E-03   -0.35784E-03  8202   0.332E-01    0.422E-01
DAV:   3    -0.193569066696E+03   -0.57546E-04   -0.27005E-03  5745   0.436E-01    0.519E-01
DAV:   4    -0.193568544865E+03    0.52183E-03   -0.15940E-03  3810   0.315E-01    0.166E-01
DAV:   5    -0.193568642415E+03   -0.97550E-04   -0.23760E-04  3384   0.170E-01
  20 F= -.19356864E+03 E0= -.19356590E+03  d E =0.690130E-03  mag=    25.1082
quench:  g(F)=  0.000E+00 g(S)=  0.000E+00 dE (1.order)= 0.000E+00
 bond charge predicted
       N       E                     dE             d eps       ncg     rms          rms(c)
DAV:   1    -0.193567839686E+03    0.70518E-03   -0.77980E-02  5976   0.527E-01    0.107E-01
DAV:   2    -0.193569296824E+03   -0.14571E-02   -0.47775E-03  8721   0.480E-01    0.688E-01
DAV:   3    -0.193568788566E+03    0.50826E-03   -0.46682E-03  6567   0.573E-01    0.607E-01
DAV:   4    -0.193568117976E+03    0.67059E-03   -0.24341E-03  4500   0.388E-01    0.204E-01
DAV:   5    -0.193568167905E+03   -0.49929E-04   -0.30064E-04  3603   0.182E-01
  21 F= -.19356817E+03 E0= -.19356541E+03  d E =0.474510E-03  mag=    25.1073
quench:  g(F)=  0.000E+00 g(S)=  0.000E+00 dE (1.order)= 0.000E+00
 bond charge predicted
       N       E                     dE             d eps       ncg     rms          rms(c)
DAV:   1    -0.193567998200E+03    0.11978E-03   -0.22845E-02  6264   0.317E-01    0.839E-02
DAV:   2    -0.193569191141E+03   -0.11929E-02   -0.26017E-03  7674   0.473E-01    0.640E-01
DAV:   3    -0.193568156516E+03    0.10346E-02   -0.19422E-03  6207   0.459E-01    0.246E-01
DAV:   4    -0.193568148120E+03    0.83957E-05   -0.69471E-04  3495   0.200E-01
  22 F= -.19356815E+03 E0= -.19356545E+03  d E =0.197850E-04  mag=    25.1066
quench:  g(F)=  0.000E+00 g(S)=  0.000E+00 dE (1.order)= 0.000E+00
 bond charge predicted
       N       E                     dE             d eps       ncg     rms          rms(c)
DAV:   1    -0.193567716386E+03    0.44013E-03   -0.21356E-02  5994   0.322E-01    0.143E-01
DAV:   2    -0.193571618922E+03   -0.39025E-02   -0.63304E-03  7227   0.909E-01    0.116E+00
DAV:   3    -0.193567964513E+03    0.36544E-02   -0.63209E-03  6327   0.869E-01    0.460E-01
DAV:   4    -0.193567734200E+03    0.23031E-03   -0.13792E-03  3891   0.284E-01    0.161E-01
DAV:   5    -0.193567773721E+03   -0.39521E-04   -0.28963E-04  3534   0.164E-01
  23 F= -.19356777E+03 E0= -.19356514E+03  d E =0.374399E-03  mag=    25.1059
quench:  g(F)=  0.000E+00 g(S)=  0.000E+00 dE (1.order)= 0.000E+00
 bond charge predicted
       N       E                     dE             d eps       ncg     rms          rms(c)
DAV:   1    -0.193567136330E+03    0.59787E-03   -0.48558E-02  6000   0.435E-01    0.101E-01
DAV:   2    -0.193568497121E+03   -0.13608E-02   -0.31814E-03  8280   0.559E-01    0.617E-01
DAV:   3    -0.193568324060E+03    0.17306E-03   -0.47709E-03  6522   0.628E-01    0.733E-01
DAV:   4    -0.193567155791E+03    0.11683E-02   -0.28037E-03  4827   0.410E-01    0.147E-01
DAV:   5    -0.193567272108E+03   -0.11632E-03   -0.28131E-04  3549   0.174E-01    0.129E-01
DAV:   6    -0.193567264874E+03    0.72346E-05   -0.13676E-04  3519   0.121E-01
  24 F= -.19356726E+03 E0= -.19356455E+03  d E =0.508847E-03  mag=    25.1050
quench:  g(F)=  0.000E+00 g(S)=  0.000E+00 dE (1.order)= 0.000E+00
 bond charge predicted
       N       E                     dE             d eps       ncg     rms          rms(c)
DAV:   1    -0.193566655632E+03    0.61648E-03   -0.70158E-02  5976   0.496E-01    0.943E-02
DAV:   2    -0.193568285153E+03   -0.16295E-02   -0.48916E-03  8691   0.461E-01    0.795E-01
DAV:   3    -0.193567132939E+03    0.11522E-02   -0.49470E-03  6099   0.536E-01    0.444E-01
DAV:   4    -0.193566863129E+03    0.26981E-03   -0.12268E-03  4134   0.313E-01    0.143E-01
DAV:   5    -0.193566908776E+03   -0.45647E-04   -0.21453E-04  3525   0.143E-01
  25 F= -.19356691E+03 E0= -.19356415E+03  d E =0.356097E-03  mag=    25.1041
quench:  g(F)=  0.000E+00 g(S)=  0.000E+00 dE (1.order)= 0.000E+00
 bond charge predicted
       N       E                     dE             d eps       ncg     rms          rms(c)
DAV:   1    -0.193566581669E+03    0.28146E-03   -0.43780E-02  5976   0.393E-01    0.836E-02
DAV:   2    -0.193567396520E+03   -0.81485E-03   -0.25980E-03  7869   0.376E-01    0.495E-01
DAV:   3    -0.193566778283E+03    0.61824E-03   -0.11962E-03  5934   0.384E-01    0.212E-01
DAV:   4    -0.193566814115E+03   -0.35832E-04   -0.65899E-04  3495   0.195E-01
  26 F= -.19356681E+03 E0= -.19356417E+03  d E =0.946610E-04  mag=    25.1034
quench:  g(F)=  0.000E+00 g(S)=  0.000E+00 dE (1.order)= 0.000E+00
 bond charge predicted
       N       E                     dE             d eps       ncg     rms          rms(c)
DAV:   1    -0.193566683720E+03    0.94563E-04   -0.12348E-02  6507   0.259E-01    0.132E-01
DAV:   2    -0.193571122852E+03   -0.44391E-02   -0.75177E-03  7353   0.913E-01    0.129E+00
DAV:   3    -0.193569351843E+03    0.17710E-02   -0.16200E-02  6405   0.104E+00    0.116E+00
DAV:   4    -0.193566472480E+03    0.28794E-02   -0.54728E-03  5925   0.609E-01    0.116E-01
DAV:   5    -0.193566724532E+03   -0.25205E-03   -0.23937E-04  3747   0.155E-01    0.973E-02
DAV:   6    -0.193566739358E+03   -0.14826E-04   -0.14605E-04  3492   0.115E-01
  27 F= -.19356674E+03 E0= -.19356399E+03  d E =0.747570E-04  mag=    25.1026
quench:  g(F)=  0.000E+00 g(S)=  0.000E+00 dE (1.order)= 0.000E+00
 bond charge predicted
       N       E                     dE             d eps       ncg     rms          rms(c)
DAV:   1    -0.193566405532E+03    0.31900E-03   -0.23153E-02  6012   0.304E-01    0.613E-02
DAV:   2    -0.193567487434E+03   -0.10819E-02   -0.23800E-03  6864   0.377E-01    0.675E-01
DAV:   3    -0.193566576850E+03    0.91058E-03   -0.30378E-03  4164   0.426E-01    0.330E-01
DAV:   4    -0.193566425774E+03    0.15108E-03   -0.55370E-04  3561   0.207E-01    0.579E-02
DAV:   5    -0.193566487042E+03   -0.61268E-04   -0.93288E-05  3393   0.923E-02
  28 F= -.19356649E+03 E0= -.19356376E+03  d E =0.252316E-03  mag=    25.1018
quench:  g(F)=  0.000E+00 g(S)=  0.000E+00 dE (1.order)= 0.000E+00
 bond charge predicted
       N       E                     dE             d eps       ncg     rms          rms(c)
DAV:   1    -0.193565929153E+03    0.49662E-03   -0.51493E-02  5976   0.439E-01    0.723E-02
DAV:   2    -0.193566333921E+03   -0.40477E-03   -0.20108E-03  7980   0.234E-01    0.339E-01
DAV:   3    -0.193566324341E+03    0.95794E-05   -0.15387E-03  4398   0.320E-01    0.367E-01
DAV:   4    -0.193566113718E+03    0.21062E-03   -0.10399E-03  3609   0.257E-01    0.176E-01
DAV:   5    -0.193566113561E+03    0.15737E-06   -0.18985E-04  3321   0.147E-01
  29 F= -.19356611E+03 E0= -.19356339E+03  d E =0.373481E-03  mag=    25.1010
quench:  g(F)=  0.000E+00 g(S)=  0.000E+00 dE (1.order)= 0.000E+00
 bond charge predicted
       N       E                     dE             d eps       ncg     rms          rms(c)
DAV:   1    -0.193565563348E+03    0.55037E-03   -0.83818E-02  5976   0.549E-01    0.904E-02
DAV:   2    -0.193566159057E+03   -0.59571E-03   -0.32414E-03  7995   0.280E-01    0.396E-01
DAV:   3    -0.193566204146E+03   -0.45089E-04   -0.22696E-03  4884   0.390E-01    0.463E-01
DAV:   4    -0.193565832581E+03    0.37156E-03   -0.13730E-03  3654   0.296E-01    0.186E-01
DAV:   5    -0.193565881508E+03   -0.48926E-04   -0.25163E-04  3366   0.173E-01
  30 F= -.19356588E+03 E0= -.19356310E+03  d E =0.232053E-03  mag=    25.1000
quench:  g(F)=  0.000E+00 g(S)=  0.000E+00 dE (1.order)= 0.000E+00
 bond charge predicted
       N       E                     dE             d eps       ncg     rms          rms(c)
DAV:   1    -0.193565538502E+03    0.29408E-03   -0.55943E-02  5976   0.442E-01    0.889E-02
DAV:   2    -0.193566543162E+03   -0.10047E-02   -0.35204E-03  8577   0.373E-01    0.585E-01
DAV:   3    -0.193566136504E+03    0.40666E-03   -0.33625E-03  5802   0.461E-01    0.465E-01
DAV:   4    -0.193565779589E+03    0.35692E-03   -0.15447E-03  3735   0.318E-01    0.187E-01
DAV:   5    -0.193565781631E+03   -0.20421E-05   -0.23500E-04  3504   0.155E-01
  31 F= -.19356578E+03 E0= -.19356308E+03  d E =0.998768E-04  mag=    25.0992
quench:  g(F)=  0.000E+00 g(S)=  0.000E+00 dE (1.order)= 0.000E+00
 bond charge predicted
       N       E                     dE             d eps       ncg     rms          rms(c)
DAV:   1    -0.193565748616E+03    0.30973E-04   -0.17597E-02  6066   0.272E-01    0.646E-02
DAV:   2    -0.193566449877E+03   -0.70126E-03   -0.16533E-03  7161   0.351E-01    0.487E-01
DAV:   3    -0.193566056874E+03    0.39300E-03   -0.18232E-03  4674   0.380E-01    0.365E-01
DAV:   4    -0.193565809348E+03    0.24753E-03   -0.80706E-04  3495   0.221E-01    0.978E-02
DAV:   5    -0.193565863880E+03   -0.54532E-04   -0.11151E-04  3363   0.115E-01
  32 F= -.19356586E+03 E0= -.19356309E+03  d E =-.822489E-04  mag=    25.0983
quench:  g(F)=  0.000E+00 g(S)=  0.000E+00 dE (1.order)= 0.000E+00
 bond charge predicted
       N       E                     dE             d eps       ncg     rms          rms(c)
DAV:   1    -0.193565660923E+03    0.14842E-03   -0.19748E-02  5976   0.285E-01    0.503E-02
DAV:   2    -0.193565860150E+03   -0.19923E-03   -0.79668E-04  6348   0.197E-01    0.218E-01
DAV:   3    -0.193565729822E+03    0.13033E-03   -0.35782E-04  3666   0.208E-01    0.119E-01
DAV:   4    -0.193565816256E+03   -0.86434E-04   -0.39338E-04  3474   0.156E-01
  33 F= -.19356582E+03 E0= -.19356316E+03  d E =0.476241E-04  mag=    25.0978
quench:  g(F)=  0.000E+00 g(S)=  0.000E+00 dE (1.order)= 0.000E+00
 bond charge predicted
       N       E                     dE             d eps       ncg     rms          rms(c)
DAV:   1    -0.193565415999E+03    0.31382E-03   -0.45922E-02  5976   0.436E-01    0.121E-01
DAV:   2    -0.193571502519E+03   -0.60865E-02   -0.12198E-02  7854   0.933E-01    0.156E+00
DAV:   3    -0.193566691923E+03    0.48106E-02   -0.18235E-02  6483   0.103E+00    0.829E-01
DAV:   4    -0.193565453026E+03    0.12389E-02   -0.26590E-03  5943   0.513E-01    0.148E-01
DAV:   5    -0.193565535695E+03   -0.82669E-04   -0.30223E-04  3924   0.195E-01
  34 F= -.19356554E+03 E0= -.19356287E+03  d E =0.280561E-03  mag=    25.0970
quench:  g(F)=  0.000E+00 g(S)=  0.000E+00 dE (1.order)= 0.000E+00
 bond charge predicted
       N       E                     dE             d eps       ncg     rms          rms(c)
DAV:   1    -0.193565177212E+03    0.27581E-03   -0.65199E-02  6000   0.485E-01    0.103E-01
DAV:   2    -0.193567617362E+03   -0.24401E-02   -0.62177E-03  9069   0.589E-01    0.993E-01
DAV:   3    -0.193565959384E+03    0.16580E-02   -0.78138E-03  6492   0.671E-01    0.553E-01
DAV:   4    -0.193565328037E+03    0.63135E-03   -0.18828E-03  5583   0.406E-01    0.135E-01
DAV:   5    -0.193565453815E+03   -0.12578E-03   -0.30309E-04  3828   0.184E-01    0.188E-01
DAV:   6    -0.193565367187E+03    0.86627E-04   -0.22510E-04  3510   0.164E-01
  35 F= -.19356537E+03 E0= -.19356264E+03  d E =0.168508E-03  mag=    25.0961
quench:  g(F)=  0.000E+00 g(S)=  0.000E+00 dE (1.order)= 0.000E+00
 bond charge predicted
       N       E                     dE             d eps       ncg     rms          rms(c)
DAV:   1    -0.193565289580E+03    0.16423E-03   -0.42378E-02  5988   0.378E-01    0.109E-01
DAV:   2    -0.193566903920E+03   -0.16143E-02   -0.38178E-03  7965   0.616E-01    0.686E-01
DAV:   3    -0.193565474554E+03    0.14294E-02   -0.24526E-03  6339   0.569E-01    0.266E-01
DAV:   4    -0.193565565054E+03   -0.90500E-04   -0.10762E-03  3621   0.253E-01    0.290E-01
DAV:   5    -0.193565431150E+03    0.13390E-03   -0.49574E-04  3504   0.194E-01    0.121E-01
DAV:   6    -0.193565447786E+03   -0.16635E-04   -0.14067E-04  3387   0.129E-01
  36 F= -.19356545E+03 E0= -.19356280E+03  d E =-.805985E-04  mag=    25.0952
quench:  g(F)=  0.000E+00 g(S)=  0.000E+00 dE (1.order)= 0.000E+00
 bond charge predicted
       N       E                     dE             d eps       ncg     rms          rms(c)
DAV:   1    -0.193565420266E+03    0.10884E-04   -0.11275E-02  6138   0.223E-01    0.507E-02
DAV:   2    -0.193565900116E+03   -0.47985E-03   -0.11747E-03  6354   0.291E-01    0.407E-01
DAV:   3    -0.193565726671E+03    0.17345E-03   -0.16978E-03  3822   0.341E-01    0.382E-01
DAV:   4    -0.193565433865E+03    0.29281E-03   -0.66145E-04  3429   0.201E-01    0.364E-02
DAV:   5    -0.193565482595E+03   -0.48729E-04   -0.60409E-05  3345   0.724E-02
  37 F= -.19356548E+03 E0= -.19356282E+03  d E =-.348091E-04  mag=    25.0947
quench:  g(F)=  0.000E+00 g(S)=  0.000E+00 dE (1.order)= 0.000E+00
 bond charge predicted
       N       E                     dE             d eps       ncg     rms          rms(c)
DAV:   1    -0.193565317129E+03    0.11674E-03   -0.21442E-02  5976   0.288E-01    0.485E-02
DAV:   2    -0.193565520205E+03   -0.20308E-03   -0.77388E-04  5982   0.189E-01    0.235E-01
DAV:   3    -0.193565366203E+03    0.15400E-03   -0.29639E-04  3534   0.194E-01    0.599E-02
DAV:   4    -0.193565573951E+03   -0.20775E-03   -0.45425E-04  3615   0.168E-01    0.301E-01
DAV:   5    -0.193565388090E+03    0.18586E-03   -0.52555E-04  3522   0.175E-01    0.102E-01
DAV:   6    -0.193565378922E+03    0.91675E-05   -0.42433E-05  3345   0.803E-02
  38 F= -.19356538E+03 E0= -.19356267E+03  d E =0.103672E-03  mag=    25.0939
quench:  g(F)=  0.000E+00 g(S)=  0.000E+00 dE (1.order)= 0.000E+00
 bond charge predicted
       N       E                     dE             d eps       ncg     rms          rms(c)
DAV:   1    -0.193565073371E+03    0.31472E-03   -0.48412E-02  5976   0.415E-01    0.793E-02
DAV:   2    -0.193565986352E+03   -0.91298E-03   -0.26881E-03  8574   0.395E-01    0.571E-01
DAV:   3    -0.193565715011E+03    0.27134E-03   -0.33057E-03  5565   0.474E-01    0.524E-01
DAV:   4    -0.193565165796E+03    0.54922E-03   -0.14996E-03  3753   0.307E-01    0.117E-01
DAV:   5    -0.193565243208E+03   -0.77412E-04   -0.17952E-04  3408   0.150E-01
  39 F= -.19356524E+03 E0= -.19356256E+03  d E =0.135715E-03  mag=    25.0932
quench:  g(F)=  0.000E+00 g(S)=  0.000E+00 dE (1.order)= 0.000E+00
 bond charge predicted
       N       E                     dE             d eps       ncg     rms          rms(c)
DAV:   1    -0.193564834987E+03    0.33081E-03   -0.82497E-02  5976   0.555E-01    0.895E-02
DAV:   2    -0.193565568653E+03   -0.73367E-03   -0.32533E-03  8241   0.323E-01    0.466E-01
DAV:   3    -0.193565478762E+03    0.89891E-04   -0.26310E-03  5178   0.420E-01    0.475E-01
DAV:   4    -0.193565073709E+03    0.40505E-03   -0.13940E-03  3663   0.298E-01    0.163E-01
DAV:   5    -0.193565142969E+03   -0.69260E-04   -0.26133E-04  3354   0.173E-01
  40 F= -.19356514E+03 E0= -.19356240E+03  d E =0.100239E-03  mag=    25.0925
quench:  g(F)=  0.000E+00 g(S)=  0.000E+00 dE (1.order)= 0.000E+00
 bond charge predicted
       N       E                     dE             d eps       ncg     rms          rms(c)
DAV:   1    -0.193564744828E+03    0.32888E-03   -0.68290E-02  5976   0.486E-01    0.953E-02
DAV:   2    -0.193565963174E+03   -0.12183E-02   -0.41169E-03  8625   0.411E-01    0.652E-01
DAV:   3    -0.193565423597E+03    0.53958E-03   -0.40029E-03  6093   0.502E-01    0.492E-01
DAV:   4    -0.193565021317E+03    0.40228E-03   -0.17478E-03  3897   0.339E-01    0.201E-01
DAV:   5    -0.193565012252E+03    0.90648E-05   -0.26514E-04  3528   0.164E-01
  41 F= -.19356501E+03 E0= -.19356233E+03  d E =0.130717E-03  mag=    25.0917
quench:  g(F)=  0.000E+00 g(S)=  0.000E+00 dE (1.order)= 0.000E+00
 bond charge predicted
       N       E                     dE             d eps       ncg     rms          rms(c)
DAV:   1    -0.193564994343E+03    0.26974E-04   -0.21640E-02  6030   0.290E-01    0.633E-02
DAV:   2    -0.193565800264E+03   -0.80592E-03   -0.20576E-03  6984   0.347E-01    0.534E-01
DAV:   3    -0.193565417219E+03    0.38304E-03   -0.25921E-03  4173   0.402E-01    0.412E-01
DAV:   4    -0.193565073640E+03    0.34358E-03   -0.92457E-04  3573   0.252E-01    0.973E-02
DAV:   5    -0.193565136044E+03   -0.62404E-04   -0.11306E-04  3354   0.116E-01
  42 F= -.19356514E+03 E0= -.19356237E+03  d E =-.123791E-03  mag=    25.0910
quench:  g(F)=  0.000E+00 g(S)=  0.000E+00 dE (1.order)= 0.000E+00
 bond charge predicted
       N       E                     dE             d eps       ncg     rms          rms(c)
DAV:   1    -0.193564885956E+03    0.18768E-03   -0.15207E-02  5976   0.257E-01    0.417E-02
DAV:   2    -0.193565033470E+03   -0.14751E-03   -0.58336E-04  5370   0.154E-01    0.194E-01
DAV:   3    -0.193564994144E+03    0.39326E-04   -0.42857E-04  3621   0.189E-01
  43 F= -.19356499E+03 E0= -.19356230E+03  d E =0.141900E-03  mag=    25.0907
quench:  g(F)=  0.000E+00 g(S)=  0.000E+00 dE (1.order)= 0.000E+00
 bond charge predicted
       N       E                     dE             d eps       ncg     rms          rms(c)
DAV:   1    -0.193564499765E+03    0.53370E-03   -0.36822E-02  5976   0.390E-01    0.107E-01
DAV:   2    -0.193577369592E+03   -0.12870E-01   -0.23957E-02  7806   0.116E+00    0.243E+00
DAV:   3    -0.193563794730E+03    0.13575E-01   -0.23908E-02  6654   0.117E+00    0.340E-01
DAV:   4    -0.193564560778E+03   -0.76605E-03   -0.62088E-04  4230   0.281E-01    0.102E-01
DAV:   5    -0.193564648516E+03   -0.87738E-04   -0.18264E-04  3690   0.128E-01
  44 F= -.19356465E+03 E0= -.19356198E+03  d E =0.345628E-03  mag=    25.0900
quench:  g(F)=  0.000E+00 g(S)=  0.000E+00 dE (1.order)= 0.000E+00
 bond charge predicted
       N       E                     dE             d eps       ncg     rms          rms(c)
DAV:   1    -0.193564097524E+03    0.46325E-03   -0.54974E-02  5982   0.448E-01    0.823E-02
DAV:   2    -0.193567240010E+03   -0.31425E-02   -0.71301E-03  8424   0.593E-01    0.116E+00
DAV:   3    -0.193564123418E+03    0.31166E-02   -0.65650E-03  6159   0.612E-01    0.229E-01
DAV:   4    -0.193564295768E+03   -0.17235E-03   -0.41291E-04  3648   0.215E-01    0.144E-01
DAV:   5    -0.193564304880E+03   -0.91122E-05   -0.19572E-04  3504   0.149E-01
  45 F= -.19356430E+03 E0= -.19356157E+03  d E =0.343636E-03  mag=    25.0894
quench:  g(F)=  0.000E+00 g(S)=  0.000E+00 dE (1.order)= 0.000E+00
 bond charge predicted
       N       E                     dE             d eps       ncg     rms          rms(c)
DAV:   1    -0.193564020264E+03    0.27550E-03   -0.38684E-02  5976   0.369E-01    0.775E-02
DAV:   2    -0.193564880897E+03   -0.86063E-03   -0.25082E-03  7902   0.385E-01    0.506E-01
DAV:   3    -0.193564538063E+03    0.34283E-03   -0.24599E-03  5334   0.444E-01    0.463E-01
DAV:   4    -0.193564110713E+03    0.42735E-03   -0.10326E-03  3702   0.248E-01    0.827E-02
DAV:   5    -0.193564217560E+03   -0.10685E-03   -0.18912E-04  3399   0.141E-01    0.161E-01
DAV:   6    -0.193564146804E+03    0.70755E-04   -0.14081E-04  3423   0.130E-01
  46 F= -.19356415E+03 E0= -.19356148E+03  d E =0.158076E-03  mag=    25.0884
quench:  g(F)=  0.000E+00 g(S)=  0.000E+00 dE (1.order)= 0.000E+00
 bond charge predicted
       N       E                     dE             d eps       ncg     rms          rms(c)
DAV:   1    -0.193564078524E+03    0.13904E-03   -0.11312E-02  6063   0.202E-01    0.888E-02
DAV:   2    -0.193565535003E+03   -0.14565E-02   -0.26232E-03  7284   0.564E-01    0.719E-01
DAV:   3    -0.193564540855E+03    0.99415E-03   -0.34935E-03  6366   0.568E-01    0.498E-01
DAV:   4    -0.193564060213E+03    0.48064E-03   -0.13514E-03  3720   0.287E-01    0.107E-01
DAV:   5    -0.193564101330E+03   -0.41117E-04   -0.93507E-05  3405   0.998E-02
  47 F= -.19356410E+03 E0= -.19356145E+03  d E =0.454745E-04  mag=    25.0880
quench:  g(F)=  0.000E+00 g(S)=  0.000E+00 dE (1.order)= 0.000E+00
 bond charge predicted
       N       E                     dE             d eps       ncg     rms          rms(c)
DAV:   1    -0.193563664001E+03    0.39621E-03   -0.20797E-02  5976   0.282E-01    0.613E-02
DAV:   2    -0.193564195881E+03   -0.53188E-03   -0.12580E-03  7380   0.337E-01    0.404E-01
DAV:   3    -0.193563750413E+03    0.44547E-03   -0.86199E-04  4614   0.321E-01    0.180E-01
DAV:   4    -0.193563763430E+03   -0.13017E-04   -0.43838E-04  3372   0.162E-01
  48 F= -.19356376E+03 E0= -.19356109E+03  d E =0.337900E-03  mag=    25.0876
quench:  g(F)=  0.000E+00 g(S)=  0.000E+00 dE (1.order)= 0.000E+00
 bond charge predicted
       N       E                     dE             d eps       ncg     rms          rms(c)
DAV:   1    -0.193562915530E+03    0.83488E-03   -0.46649E-02  5976   0.430E-01    0.959E-02
DAV:   2    -0.193564867520E+03   -0.19520E-02   -0.42396E-03  8571   0.578E-01    0.857E-01
DAV:   3    -0.193564036963E+03    0.83056E-03   -0.71186E-03  6459   0.670E-01    0.711E-01
DAV:   4    -0.193562990465E+03    0.10465E-02   -0.25291E-03  5022   0.418E-01    0.136E-01
DAV:   5    -0.193563058120E+03   -0.67655E-04   -0.23092E-04  3627   0.167E-01
  49 F= -.19356306E+03 E0= -.19356034E+03  d E =0.705310E-03  mag=    25.0871
quench:  g(F)=  0.000E+00 g(S)=  0.000E+00 dE (1.order)= 0.000E+00
 bond charge predicted
       N       E                     dE             d eps       ncg     rms          rms(c)
DAV:   1    -0.193562158432E+03    0.83203E-03   -0.77330E-02  5976   0.528E-01    0.100E-01
DAV:   2    -0.193563756368E+03   -0.15979E-02   -0.46598E-03  8751   0.500E-01    0.761E-01
DAV:   3    -0.193563185811E+03    0.57056E-03   -0.60525E-03  6453   0.616E-01    0.658E-01
DAV:   4    -0.193562302098E+03    0.88371E-03   -0.20653E-03  4968   0.378E-01    0.118E-01
DAV:   5    -0.193562465691E+03   -0.16359E-03   -0.27634E-04  3642   0.197E-01    0.185E-01
DAV:   6    -0.193562388505E+03    0.77186E-04   -0.21502E-04  3393   0.169E-01
  50 F= -.19356239E+03 E0= -.19355976E+03  d E =0.669615E-03  mag=    25.0865
quench:  g(F)=  0.000E+00 g(S)=  0.000E+00 dE (1.order)= 0.000E+00
 bond charge predicted
       N       E                     dE             d eps       ncg     rms          rms(c)
DAV:   1    -0.193561723494E+03    0.74220E-03   -0.66645E-02  5976   0.468E-01    0.100E-01
DAV:   2    -0.193562890250E+03   -0.11668E-02   -0.41367E-03  8643   0.447E-01    0.612E-01
DAV:   3    -0.193562690408E+03    0.19984E-03   -0.44165E-03  6393   0.544E-01    0.632E-01
DAV:   4    -0.193561916339E+03    0.77407E-03   -0.24143E-03  4677   0.388E-01    0.178E-01
DAV:   5    -0.193561978745E+03   -0.62405E-04   -0.23513E-04  3600   0.165E-01
  51 F= -.19356198E+03 E0= -.19355936E+03  d E =0.409760E-03  mag=    25.0859
quench:  g(F)=  0.000E+00 g(S)=  0.000E+00 dE (1.order)= 0.000E+00
 bond charge predicted
       N       E                     dE             d eps       ncg     rms          rms(c)
DAV:   1    -0.193561800010E+03    0.11633E-03   -0.20538E-02  6141   0.289E-01    0.774E-02
DAV:   2    -0.193563259621E+03   -0.14596E-02   -0.26950E-03  7608   0.492E-01    0.742E-01
DAV:   3    -0.193562457254E+03    0.80237E-03   -0.39227E-03  6087   0.549E-01    0.543E-01
DAV:   4    -0.193561851174E+03    0.60608E-03   -0.15727E-03  3723   0.309E-01    0.861E-02
DAV:   5    -0.193561923400E+03   -0.72226E-04   -0.11831E-04  3375   0.118E-01
  52 F= -.19356192E+03 E0= -.19355930E+03  d E =0.553448E-04  mag=    25.0855
quench:  g(F)=  0.000E+00 g(S)=  0.000E+00 dE (1.order)= 0.000E+00
 bond charge predicted
       N       E                     dE             d eps       ncg     rms          rms(c)
DAV:   1    -0.193561363756E+03    0.48742E-03   -0.17654E-02  6012   0.275E-01    0.544E-02
DAV:   2    -0.193561740576E+03   -0.37682E-03   -0.97914E-04  6594   0.275E-01    0.338E-01
DAV:   3    -0.193561405303E+03    0.33527E-03   -0.52677E-04  3846   0.263E-01    0.824E-02
DAV:   4    -0.193561525442E+03   -0.12014E-03   -0.35561E-04  3450   0.145E-01    0.233E-01
DAV:   5    -0.193561435012E+03    0.90430E-04   -0.36389E-04  3447   0.155E-01
  53 F= -.19356144E+03 E0= -.19355880E+03  d E =0.488388E-03  mag=    25.0851
quench:  g(F)=  0.000E+00 g(S)=  0.000E+00 dE (1.order)= 0.000E+00
 bond charge predicted
       N       E                     dE             d eps       ncg     rms          rms(c)
DAV:   1    -0.193560467347E+03    0.10581E-02   -0.44062E-02  5976   0.408E-01    0.734E-02
DAV:   2    -0.193561182296E+03   -0.71495E-03   -0.22750E-03  8100   0.348E-01    0.481E-01
DAV:   3    -0.193561003471E+03    0.17883E-03   -0.26646E-03  4521   0.418E-01    0.469E-01
DAV:   4    -0.193560559336E+03    0.44414E-03   -0.11683E-03  3675   0.278E-01    0.111E-01
DAV:   5    -0.193560646280E+03   -0.86944E-04   -0.17904E-04  3462   0.158E-01
  54 F= -.19356065E+03 E0= -.19355805E+03  d E =0.788731E-03  mag=    25.0848
quench:  g(F)=  0.000E+00 g(S)=  0.000E+00 dE (1.order)= 0.000E+00
 bond charge predicted
       N       E                     dE             d eps       ncg     rms          rms(c)
DAV:   1    -0.193559440827E+03    0.11185E-02   -0.76051E-02  5976   0.536E-01    0.901E-02
DAV:   2    -0.193560239166E+03   -0.79834E-03   -0.32151E-03  8532   0.368E-01    0.472E-01
DAV:   3    -0.193560118327E+03    0.12084E-03   -0.27914E-03  5934   0.442E-01    0.497E-01
DAV:   4    -0.193559691660E+03    0.42667E-03   -0.17946E-03  3810   0.335E-01    0.215E-01
DAV:   5    -0.193559722172E+03   -0.30512E-04   -0.33748E-04  3525   0.207E-01
  55 F= -.19355972E+03 E0= -.19355713E+03  d E =0.924108E-03  mag=    25.0846
quench:  g(F)=  0.000E+00 g(S)=  0.000E+00 dE (1.order)= 0.000E+00
 bond charge predicted
       N       E                     dE             d eps       ncg     rms          rms(c)
DAV:   1    -0.193558654431E+03    0.10372E-02   -0.76695E-02  5976   0.518E-01    0.971E-02
DAV:   2    -0.193559454587E+03   -0.80016E-03   -0.36729E-03  8151   0.372E-01    0.450E-01
DAV:   3    -0.193558952251E+03    0.50234E-03   -0.13712E-03  6276   0.386E-01    0.224E-01
DAV:   4    -0.193559141443E+03   -0.18919E-03   -0.11954E-03  3636   0.261E-01    0.354E-01
DAV:   5    -0.193558994152E+03    0.14729E-03   -0.80750E-04  3666   0.254E-01    0.201E-01
DAV:   6    -0.193558909342E+03    0.84810E-04   -0.17303E-04  3357   0.159E-01
  56 F= -.19355891E+03 E0= -.19355622E+03  d E =0.812830E-03  mag=    25.0844
quench:  g(F)=  0.000E+00 g(S)=  0.000E+00 dE (1.order)= 0.000E+00
 bond charge predicted
       N       E                     dE             d eps       ncg     rms          rms(c)
DAV:   1    -0.193558770223E+03    0.22393E-03   -0.22262E-02  6015   0.285E-01    0.108E-01
DAV:   2    -0.193560531808E+03   -0.17616E-02   -0.35398E-03  7542   0.666E-01    0.718E-01
DAV:   3    -0.193558824878E+03    0.17069E-02   -0.24331E-03  6447   0.596E-01    0.205E-01
DAV:   4    -0.193558939968E+03   -0.11509E-03   -0.67152E-04  3603   0.203E-01    0.250E-01
DAV:   5    -0.193558832807E+03    0.10716E-03   -0.47570E-04  3378   0.178E-01    0.103E-01
DAV:   6    -0.193558841852E+03   -0.90449E-05   -0.95525E-05  3327   0.939E-02
  57 F= -.19355884E+03 E0= -.19355622E+03  d E =0.674902E-04  mag=    25.0841
quench:  g(F)=  0.000E+00 g(S)=  0.000E+00 dE (1.order)= 0.000E+00
 bond charge predicted
       N       E                     dE             d eps       ncg     rms          rms(c)
DAV:   1    -0.193558169238E+03    0.66357E-03   -0.21297E-02  5976   0.289E-01    0.492E-02
DAV:   2    -0.193558366935E+03   -0.19770E-03   -0.80562E-04  5742   0.190E-01    0.234E-01
DAV:   3    -0.193558263644E+03    0.10329E-03   -0.46651E-04  3477   0.207E-01    0.162E-01
DAV:   4    -0.193558265699E+03   -0.20554E-05   -0.37749E-04  3420   0.149E-01
  58 F= -.19355827E+03 E0= -.19355562E+03  d E =0.576153E-03  mag=    25.0840
quench:  g(F)=  0.000E+00 g(S)=  0.000E+00 dE (1.order)= 0.000E+00
 bond charge predicted
       N       E                     dE             d eps       ncg     rms          rms(c)
DAV:   1    -0.193557075060E+03    0.11886E-02   -0.49323E-02  5976   0.440E-01    0.110E-01
DAV:   2    -0.193559414751E+03   -0.23397E-02   -0.45236E-03  8289   0.673E-01    0.894E-01
DAV:   3    -0.193558230674E+03    0.11841E-02   -0.64308E-03  6501   0.731E-01    0.748E-01
DAV:   4    -0.193557138660E+03    0.10920E-02   -0.30139E-03  5121   0.427E-01    0.163E-01
DAV:   5    -0.193557209574E+03   -0.70914E-04   -0.28003E-04  3741   0.183E-01
  59 F= -.19355721E+03 E0= -.19355453E+03  d E =0.105613E-02  mag=    25.0838
quench:  g(F)=  0.000E+00 g(S)=  0.000E+00 dE (1.order)= 0.000E+00
 bond charge predicted
       N       E                     dE             d eps       ncg     rms          rms(c)
DAV:   1    -0.193555910809E+03    0.12279E-02   -0.85418E-02  5976   0.561E-01    0.120E-01
DAV:   2    -0.193557786143E+03   -0.18753E-02   -0.50266E-03  8553   0.615E-01    0.783E-01
DAV:   3    -0.193556917583E+03    0.86856E-03   -0.50813E-03  6543   0.661E-01    0.661E-01
DAV:   4    -0.193556086061E+03    0.83152E-03   -0.26852E-03  5325   0.404E-01    0.183E-01
DAV:   5    -0.193556201778E+03   -0.11572E-03   -0.39537E-04  3840   0.216E-01    0.174E-01
DAV:   6    -0.193556157998E+03    0.43780E-04   -0.23167E-04  3348   0.172E-01
  60 F= -.19355616E+03 E0= -.19355357E+03  d E =0.105158E-02  mag=    25.0835
quench:  g(F)=  0.000E+00 g(S)=  0.000E+00 dE (1.order)= 0.000E+00
 bond charge predicted
       N       E                     dE             d eps       ncg     rms          rms(c)
DAV:   1    -0.193554969358E+03    0.12324E-02   -0.96566E-02  5976   0.576E-01    0.999E-02
DAV:   2    -0.193555875873E+03   -0.90652E-03   -0.44209E-03  8307   0.353E-01    0.516E-01
DAV:   3    -0.193555773997E+03    0.10188E-03   -0.34046E-03  5769   0.456E-01    0.523E-01
DAV:   4    -0.193555321448E+03    0.45255E-03   -0.20625E-03  4362   0.371E-01    0.230E-01
DAV:   5    -0.193555278626E+03    0.42822E-04   -0.25753E-04  3507   0.162E-01
  61 F= -.19355528E+03 E0= -.19355267E+03  d E =0.879372E-03  mag=    25.0831
quench:  g(F)=  0.000E+00 g(S)=  0.000E+00 dE (1.order)= 0.000E+00
 bond charge predicted
       N       E                     dE             d eps       ncg     rms          rms(c)
DAV:   1    -0.193555079584E+03    0.24186E-03   -0.24669E-02  6021   0.300E-01    0.916E-02
DAV:   2    -0.193556814212E+03   -0.17346E-02   -0.30505E-03  7713   0.567E-01    0.777E-01
DAV:   3    -0.193555471728E+03    0.13425E-02   -0.28990E-03  6300   0.572E-01    0.426E-01
DAV:   4    -0.193555167652E+03    0.30408E-03   -0.11741E-03  3675   0.260E-01    0.119E-01
DAV:   5    -0.193555229144E+03   -0.61492E-04   -0.17552E-04  3378   0.131E-01
  62 F= -.19355523E+03 E0= -.19355263E+03  d E =0.494821E-04  mag=    25.0828
quench:  g(F)=  0.000E+00 g(S)=  0.000E+00 dE (1.order)= 0.000E+00
 bond charge predicted
       N       E                     dE             d eps       ncg     rms          rms(c)
DAV:   1    -0.193554487913E+03    0.67974E-03   -0.19480E-02  6030   0.293E-01    0.490E-02
DAV:   2    -0.193554705851E+03   -0.21794E-03   -0.77456E-04  6084   0.202E-01    0.242E-01
DAV:   3    -0.193554577984E+03    0.12787E-03   -0.39622E-04  3537   0.212E-01    0.150E-01
DAV:   4    -0.193554594360E+03   -0.16376E-04   -0.36796E-04  3414   0.146E-01
  63 F= -.19355459E+03 E0= -.19355191E+03  d E =0.634784E-03  mag=    25.0827
quench:  g(F)=  0.000E+00 g(S)=  0.000E+00 dE (1.order)= 0.000E+00
 bond charge predicted
       N       E                     dE             d eps       ncg     rms          rms(c)
DAV:   1    -0.193553360244E+03    0.12177E-02   -0.48196E-02  5976   0.443E-01    0.114E-01
DAV:   2    -0.193556046210E+03   -0.26860E-02   -0.52845E-03  7860   0.721E-01    0.964E-01
DAV:   3    -0.193555190362E+03    0.85585E-03   -0.10261E-02  6468   0.811E-01    0.924E-01
DAV:   4    -0.193553344063E+03    0.18463E-02   -0.40786E-03  5679   0.515E-01    0.161E-01
DAV:   5    -0.193553478125E+03   -0.13406E-03   -0.28044E-04  3804   0.190E-01    0.107E-01
DAV:   6    -0.193553485465E+03   -0.73398E-05   -0.13072E-04  3441   0.113E-01
  64 F= -.19355349E+03 E0= -.19355084E+03  d E =0.110890E-02  mag=    25.0825
quench:  g(F)=  0.000E+00 g(S)=  0.000E+00 dE (1.order)= 0.000E+00
 bond charge predicted
       N       E                     dE             d eps       ncg     rms          rms(c)
DAV:   1    -0.193552080704E+03    0.13974E-02   -0.81801E-02  5976   0.547E-01    0.889E-02
DAV:   2    -0.193552627826E+03   -0.54712E-03   -0.30380E-03  8445   0.307E-01    0.327E-01
DAV:   3    -0.193552332817E+03    0.29501E-03   -0.95805E-04  6147   0.339E-01    0.171E-01
DAV:   4    -0.193552899165E+03   -0.56635E-03   -0.16904E-03  3831   0.311E-01    0.534E-01
DAV:   5    -0.193552299295E+03    0.59987E-03   -0.14182E-03  3720   0.288E-01    0.146E-01
DAV:   6    -0.193552308156E+03   -0.88605E-05   -0.11645E-04  3438   0.124E-01
  65 F= -.19355231E+03 E0= -.19354967E+03  d E =0.117731E-02  mag=    25.0822
quench:  g(F)=  0.000E+00 g(S)=  0.000E+00 dE (1.order)= 0.000E+00
 bond charge predicted
       N       E                     dE             d eps       ncg     rms          rms(c)
DAV:   1    -0.193551384130E+03    0.91517E-03   -0.69110E-02  6063   0.473E-01    0.145E-01
DAV:   2    -0.193554918638E+03   -0.35345E-02   -0.71365E-03  7887   0.856E-01    0.109E+00
DAV:   3    -0.193551704504E+03    0.32141E-02   -0.53077E-03  6537   0.817E-01    0.396E-01
DAV:   4    -0.193551613718E+03    0.90786E-04   -0.15010E-03  3981   0.292E-01    0.240E-01
DAV:   5    -0.193551641135E+03   -0.27417E-04   -0.57881E-04  3756   0.238E-01
  66 F= -.19355164E+03 E0= -.19354908E+03  d E =0.667021E-03  mag=    25.0820
quench:  g(F)=  0.000E+00 g(S)=  0.000E+00 dE (1.order)= 0.000E+00
 bond charge predicted
       N       E                     dE             d eps       ncg     rms          rms(c)
DAV:   1    -0.193551254147E+03    0.35957E-03   -0.22213E-02  6072   0.315E-01    0.899E-02
DAV:   2    -0.193552649495E+03   -0.13953E-02   -0.29370E-03  7791   0.556E-01    0.635E-01
DAV:   3    -0.193551345879E+03    0.13036E-02   -0.19360E-03  6345   0.515E-01    0.206E-01
DAV:   4    -0.193551458043E+03   -0.11216E-03   -0.72104E-04  3534   0.204E-01    0.243E-01
DAV:   5    -0.193551350063E+03    0.10798E-03   -0.31480E-04  3363   0.154E-01    0.780E-02
DAV:   6    -0.193551354948E+03   -0.48854E-05   -0.62481E-05  3423   0.773E-02
  67 F= -.19355135E+03 E0= -.19354871E+03  d E =0.286187E-03  mag=    25.0818
quench:  g(F)=  0.000E+00 g(S)=  0.000E+00 dE (1.order)= 0.000E+00
 bond charge predicted
       N       E                     dE             d eps       ncg     rms          rms(c)
DAV:   1    -0.193550483858E+03    0.86621E-03   -0.24860E-02  5976   0.308E-01    0.566E-02
DAV:   2    -0.193550883500E+03   -0.39964E-03   -0.12218E-03  6435   0.264E-01    0.364E-01
DAV:   3    -0.193550813310E+03    0.70190E-04   -0.16429E-03  3858   0.330E-01    0.376E-01
DAV:   4    -0.193550518769E+03    0.29454E-03   -0.70493E-04  3492   0.209E-01    0.656E-02
DAV:   5    -0.193550577093E+03   -0.58324E-04   -0.76730E-05  3345   0.976E-02
  68 F= -.19355058E+03 E0= -.19354787E+03  d E =0.777856E-03  mag=    25.0817
quench:  g(F)=  0.000E+00 g(S)=  0.000E+00 dE (1.order)= 0.000E+00
 bond charge predicted
       N       E                     dE             d eps       ncg     rms          rms(c)
DAV:   1    -0.193549049150E+03    0.14696E-02   -0.60671E-02  5976   0.484E-01    0.803E-02
DAV:   2    -0.193550503158E+03   -0.14540E-02   -0.38828E-03  8391   0.434E-01    0.749E-01
DAV:   3    -0.193549370488E+03    0.11327E-02   -0.39468E-03  5751   0.483E-01    0.364E-01
DAV:   4    -0.193549225908E+03    0.14458E-03   -0.93357E-04  3696   0.271E-01    0.144E-01
DAV:   5    -0.193549272765E+03   -0.46856E-04   -0.21883E-04  3360   0.166E-01
  69 F= -.19354927E+03 E0= -.19354661E+03  d E =0.130433E-02  mag=    25.0815
quench:  g(F)=  0.000E+00 g(S)=  0.000E+00 dE (1.order)= 0.000E+00
 bond charge predicted
       N       E                     dE             d eps       ncg     rms          rms(c)
DAV:   1    -0.193547482016E+03    0.17439E-02   -0.99422E-02  5976   0.610E-01    0.994E-02
DAV:   2    -0.193548645163E+03   -0.11631E-02   -0.44489E-03  8442   0.384E-01    0.642E-01
DAV:   3    -0.193548127640E+03    0.51752E-03   -0.39459E-03  6018   0.491E-01    0.471E-01
DAV:   4    -0.193547800148E+03    0.32749E-03   -0.15863E-03  3978   0.336E-01    0.195E-01
DAV:   5    -0.193547841828E+03   -0.41680E-04   -0.27548E-04  3384   0.189E-01
  70 F= -.19354784E+03 E0= -.19354509E+03  d E =0.143094E-02  mag=    25.0814
quench:  g(F)=  0.000E+00 g(S)=  0.000E+00 dE (1.order)= 0.000E+00
 bond charge predicted
       N       E                     dE             d eps       ncg     rms          rms(c)
DAV:   1    -0.193546576198E+03    0.12239E-02   -0.84348E-02  5976   0.552E-01    0.106E-01
DAV:   2    -0.193549077246E+03   -0.25010E-02   -0.67629E-03  8727   0.579E-01    0.963E-01
DAV:   3    -0.193547261819E+03    0.18154E-02   -0.69077E-03  6630   0.639E-01    0.517E-01
DAV:   4    -0.193546880170E+03    0.38165E-03   -0.17895E-03  4716   0.366E-01    0.188E-01
DAV:   5    -0.193546940440E+03   -0.60270E-04   -0.34006E-04  3597   0.196E-01
  71 F= -.19354694E+03 E0= -.19354428E+03  d E =0.901388E-03  mag=    25.0811
quench:  g(F)=  0.000E+00 g(S)=  0.000E+00 dE (1.order)= 0.000E+00
 bond charge predicted
       N       E                     dE             d eps       ncg     rms          rms(c)
DAV:   1    -0.193546497398E+03    0.38277E-03   -0.25522E-02  6084   0.332E-01    0.756E-02
DAV:   2    -0.193547720755E+03   -0.12234E-02   -0.29309E-03  7884   0.446E-01    0.648E-01
DAV:   3    -0.193547188973E+03    0.53178E-03   -0.42162E-03  5733   0.514E-01    0.549E-01
DAV:   4    -0.193546562926E+03    0.62605E-03   -0.14436E-03  3675   0.309E-01    0.102E-01
DAV:   5    -0.193546657955E+03   -0.95030E-04   -0.15486E-04  3402   0.145E-01
  72 F= -.19354666E+03 E0= -.19354393E+03  d E =0.282485E-03  mag=    25.0809
quench:  g(F)=  0.000E+00 g(S)=  0.000E+00 dE (1.order)= 0.000E+00
 bond charge predicted
       N       E                     dE             d eps       ncg     rms          rms(c)
DAV:   1    -0.193545612883E+03    0.95004E-03   -0.29439E-02  5976   0.355E-01    0.765E-02
DAV:   2    -0.193546805810E+03   -0.11929E-02   -0.25846E-03  7812   0.464E-01    0.630E-01
DAV:   3    -0.193546359596E+03    0.44621E-03   -0.43000E-03  6147   0.536E-01    0.588E-01
DAV:   4    -0.193545643031E+03    0.71657E-03   -0.16999E-03  3849   0.331E-01    0.105E-01
DAV:   5    -0.193545717472E+03   -0.74441E-04   -0.15668E-04  3411   0.143E-01
  73 F= -.19354572E+03 E0= -.19354303E+03  d E =0.940483E-03  mag=    25.0807
quench:  g(F)=  0.000E+00 g(S)=  0.000E+00 dE (1.order)= 0.000E+00
 bond charge predicted
       N       E                     dE             d eps       ncg     rms          rms(c)
DAV:   1    -0.193543896301E+03    0.17467E-02   -0.75149E-02  5976   0.542E-01    0.107E-01
DAV:   2    -0.193545177600E+03   -0.12813E-02   -0.37855E-03  8580   0.520E-01    0.607E-01
DAV:   3    -0.193544319041E+03    0.85856E-03   -0.26979E-03  6408   0.537E-01    0.389E-01
DAV:   4    -0.193544165415E+03    0.15363E-03   -0.15215E-03  3726   0.295E-01    0.259E-01
DAV:   5    -0.193544167170E+03   -0.17553E-05   -0.54112E-04  3765   0.241E-01
  74 F= -.19354417E+03 E0= -.19354142E+03  d E =0.155030E-02  mag=    25.0805
quench:  g(F)=  0.000E+00 g(S)=  0.000E+00 dE (1.order)= 0.000E+00
 bond charge predicted
       N       E                     dE             d eps       ncg     rms          rms(c)
DAV:   1    -0.193541958912E+03    0.22065E-02   -0.13395E-01  5976   0.726E-01    0.143E-01
DAV:   2    -0.193546560490E+03   -0.46016E-02   -0.10676E-02  9294   0.858E-01    0.127E+00
DAV:   3    -0.193544107768E+03    0.24527E-02   -0.15389E-02  6702   0.981E-01    0.989E-01
DAV:   4    -0.193542178368E+03    0.19294E-02   -0.51034E-03  6255   0.586E-01    0.203E-01
DAV:   5    -0.193542447439E+03   -0.26907E-03   -0.66887E-04  5280   0.285E-01    0.237E-01
DAV:   6    -0.193542328925E+03    0.11851E-03   -0.40854E-04  4224   0.229E-01    0.121E-01
DAV:   7    -0.193542318083E+03    0.10842E-04   -0.15789E-04  3348   0.145E-01
  75 F= -.19354232E+03 E0= -.19353969E+03  d E =0.184909E-02  mag=    25.0800
quench:  g(F)=  0.000E+00 g(S)=  0.000E+00 dE (1.order)= 0.000E+00
 bond charge predicted
       N       E                     dE             d eps       ncg     rms          rms(c)
DAV:   1    -0.193540511200E+03    0.18177E-02   -0.12948E-01  5976   0.646E-01    0.112E-01
DAV:   2    -0.193541157272E+03   -0.64607E-03   -0.50440E-03  7857   0.277E-01    0.339E-01
DAV:   3    -0.193541631461E+03   -0.47419E-03   -0.31758E-03  6000   0.447E-01    0.615E-01
DAV:   4    -0.193540975326E+03    0.65613E-03   -0.23846E-03  4554   0.392E-01    0.270E-01
DAV:   5    -0.193540945714E+03    0.29612E-04   -0.39891E-04  3708   0.216E-01
  76 F= -.19354095E+03 E0= -.19353831E+03  d E =0.137237E-02  mag=    25.0800
quench:  g(F)=  0.000E+00 g(S)=  0.000E+00 dE (1.order)= 0.000E+00
 bond charge predicted
       N       E                     dE             d eps       ncg     rms          rms(c)
DAV:   1    -0.193540513203E+03    0.46212E-03   -0.41065E-02  5994   0.398E-01    0.945E-02
DAV:   2    -0.193542236720E+03   -0.17235E-02   -0.41488E-03  8517   0.541E-01    0.787E-01
DAV:   3    -0.193541402727E+03    0.83399E-03   -0.50885E-03  6501   0.607E-01    0.616E-01
DAV:   4    -0.193540639252E+03    0.76348E-03   -0.21238E-03  4059   0.363E-01    0.140E-01
DAV:   5    -0.193540742564E+03   -0.10331E-03   -0.18740E-04  3435   0.145E-01    0.144E-01
DAV:   6    -0.193540686790E+03    0.55774E-04   -0.15446E-04  3369   0.130E-01
  77 F= -.19354069E+03 E0= -.19353801E+03  d E =0.258924E-03  mag=    25.0799
quench:  g(F)=  0.000E+00 g(S)=  0.000E+00 dE (1.order)= 0.000E+00
 bond charge predicted
       N       E                     dE             d eps       ncg     rms          rms(c)
DAV:   1    -0.193539480437E+03    0.12621E-02   -0.38925E-02  5976   0.391E-01    0.974E-02
DAV:   2    -0.193541425491E+03   -0.19451E-02   -0.36172E-03  7884   0.619E-01    0.799E-01
DAV:   3    -0.193540693752E+03    0.73174E-03   -0.65534E-03  6339   0.700E-01    0.776E-01
DAV:   4    -0.193539480647E+03    0.12131E-02   -0.28765E-03  4722   0.417E-01    0.124E-01
DAV:   5    -0.193539595052E+03   -0.11440E-03   -0.24382E-04  3675   0.171E-01    0.123E-01
DAV:   6    -0.193539577067E+03    0.17985E-04   -0.13175E-04  3423   0.121E-01
  78 F= -.19353958E+03 E0= -.19353695E+03  d E =0.110972E-02  mag=    25.0798
quench:  g(F)=  0.000E+00 g(S)=  0.000E+00 dE (1.order)= 0.000E+00
 bond charge predicted
       N       E                     dE             d eps       ncg     rms          rms(c)
DAV:   1    -0.193537282912E+03    0.23121E-02   -0.10123E-01  5976   0.622E-01    0.958E-02
DAV:   2    -0.193538049011E+03   -0.76610E-03   -0.37861E-03  8424   0.315E-01    0.462E-01
DAV:   3    -0.193537935678E+03    0.11333E-03   -0.29358E-03  5586   0.425E-01    0.469E-01
DAV:   4    -0.193537601843E+03    0.33384E-03   -0.15538E-03  3867   0.328E-01    0.219E-01
DAV:   5    -0.193537589783E+03    0.12059E-04   -0.26611E-04  3420   0.166E-01
  79 F= -.19353759E+03 E0= -.19353497E+03  d E =0.198728E-02  mag=    25.0797
quench:  g(F)=  0.000E+00 g(S)=  0.000E+00 dE (1.order)= 0.000E+00
 bond charge predicted
       N       E                     dE             d eps       ncg     rms          rms(c)
DAV:   1    -0.193534643417E+03    0.29584E-02   -0.17908E-01  5976   0.822E-01    0.131E-01
DAV:   2    -0.193536317812E+03   -0.16744E-02   -0.73548E-03  8319   0.455E-01    0.752E-01
DAV:   3    -0.193535656343E+03    0.66147E-03   -0.62140E-03  6384   0.598E-01    0.580E-01
DAV:   4    -0.193535242175E+03    0.41417E-03   -0.23838E-03  5484   0.444E-01    0.308E-01
DAV:   5    -0.193535174818E+03    0.67357E-04   -0.45905E-04  3714   0.236E-01
  80 F= -.19353517E+03 E0= -.19353254E+03  d E =0.241497E-02  mag=    25.0797
quench:  g(F)=  0.000E+00 g(S)=  0.000E+00 dE (1.order)= 0.000E+00
 bond charge predicted
       N       E                     dE             d eps       ncg     rms          rms(c)
DAV:   1    -0.193532465613E+03    0.27766E-02   -0.20211E-01  5976   0.857E-01    0.151E-01
DAV:   2    -0.193536132795E+03   -0.36672E-02   -0.12364E-02  8712   0.676E-01    0.114E+00
DAV:   3    -0.193533608755E+03    0.25240E-02   -0.10643E-02  6564   0.781E-01    0.625E-01
DAV:   4    -0.193533171161E+03    0.43759E-03   -0.27565E-03  6192   0.489E-01    0.299E-01
DAV:   5    -0.193533202329E+03   -0.31169E-04   -0.64968E-04  4569   0.266E-01
  81 F= -.19353320E+03 E0= -.19353067E+03  d E =0.197249E-02  mag=    25.0795
quench:  g(F)=  0.000E+00 g(S)=  0.000E+00 dE (1.order)= 0.000E+00
 bond charge predicted
       N       E                     dE             d eps       ncg     rms          rms(c)
DAV:   1    -0.193532698125E+03    0.47304E-03   -0.50373E-02  6057   0.450E-01    0.106E-01
DAV:   2    -0.193534351481E+03   -0.16534E-02   -0.41836E-03  8472   0.554E-01    0.703E-01
DAV:   3    -0.193532866747E+03    0.14847E-02   -0.19593E-03  6348   0.528E-01    0.994E-02
DAV:   4    -0.193533207554E+03   -0.34081E-03   -0.65773E-04  3582   0.231E-01    0.340E-01
DAV:   5    -0.193533161606E+03    0.45947E-04   -0.14311E-03  3699   0.286E-01    0.334E-01
DAV:   6    -0.193532933805E+03    0.22780E-03   -0.47444E-04  3387   0.192E-01    0.535E-02
DAV:   7    -0.193532984894E+03   -0.51089E-04   -0.92348E-05  3315   0.113E-01
  82 F= -.19353298E+03 E0= -.19353031E+03  d E =0.217435E-03  mag=    25.0793
quench:  g(F)=  0.000E+00 g(S)=  0.000E+00 dE (1.order)= 0.000E+00
 bond charge predicted
       N       E                     dE             d eps       ncg     rms          rms(c)
DAV:   1    -0.193531578339E+03    0.13555E-02   -0.44907E-02  5976   0.424E-01    0.706E-02
DAV:   2    -0.193532031670E+03   -0.45333E-03   -0.17571E-03  7785   0.289E-01    0.362E-01
DAV:   3    -0.193531663966E+03    0.36770E-03   -0.68887E-04  4920   0.292E-01    0.777E-02
DAV:   4    -0.193532138751E+03   -0.47479E-03   -0.96808E-04  3699   0.240E-01    0.446E-01
DAV:   5    -0.193531705869E+03    0.43288E-03   -0.10088E-03  3609   0.241E-01    0.141E-01
DAV:   6    -0.193531693437E+03    0.12432E-04   -0.85118E-05  3330   0.101E-01
  83 F= -.19353169E+03 E0= -.19352903E+03  d E =0.129146E-02  mag=    25.0792
quench:  g(F)=  0.000E+00 g(S)=  0.000E+00 dE (1.order)= 0.000E+00
 bond charge predicted
       N       E                     dE             d eps       ncg     rms          rms(c)
DAV:   1    -0.193529030515E+03    0.26754E-02   -0.12387E-01  5976   0.685E-01    0.122E-01
DAV:   2    -0.193530354746E+03   -0.13242E-02   -0.49801E-03  8658   0.513E-01    0.623E-01
DAV:   3    -0.193529487543E+03    0.86720E-03   -0.25137E-03  6375   0.529E-01    0.373E-01
DAV:   4    -0.193529638697E+03   -0.15115E-03   -0.23107E-03  3912   0.364E-01    0.410E-01
DAV:   5    -0.193529462163E+03    0.17653E-03   -0.11319E-03  4056   0.295E-01    0.241E-01
DAV:   6    -0.193529334555E+03    0.12761E-03   -0.23163E-04  3342   0.189E-01    0.673E-02
DAV:   7    -0.193529366175E+03   -0.31619E-04   -0.87488E-05  3390   0.107E-01
  84 F= -.19352937E+03 E0= -.19352671E+03  d E =0.232726E-02  mag=    25.0791
quench:  g(F)=  0.000E+00 g(S)=  0.000E+00 dE (1.order)= 0.000E+00
 bond charge predicted
       N       E                     dE             d eps       ncg     rms          rms(c)
DAV:   1    -0.193525452462E+03    0.38821E-02   -0.25139E-01  5976   0.977E-01    0.151E-01
DAV:   2    -0.193526884575E+03   -0.14321E-02   -0.80566E-03  8439   0.510E-01    0.552E-01
DAV:   3    -0.193526066461E+03    0.81811E-03   -0.21772E-03  6384   0.549E-01    0.215E-01
DAV:   4    -0.193526371920E+03   -0.30546E-03   -0.80450E-04  5412   0.329E-01    0.322E-01
DAV:   5    -0.193526083002E+03    0.28892E-03   -0.51914E-04  4380   0.280E-01    0.926E-02
DAV:   6    -0.193526202168E+03   -0.11917E-03   -0.31816E-04  3456   0.162E-01    0.230E-01
DAV:   7    -0.193526244237E+03   -0.42069E-04   -0.77398E-04  3525   0.211E-01
  85 F= -.19352624E+03 E0= -.19352356E+03  d E =0.312194E-02  mag=    25.0791
quench:  g(F)=  0.000E+00 g(S)=  0.000E+00 dE (1.order)= 0.000E+00
 bond charge predicted
       N       E                     dE             d eps       ncg     rms          rms(c)
DAV:   1    -0.193521825106E+03    0.43771E-02   -0.36368E-01  5976   0.116E+00    0.191E-01
DAV:   2    -0.193525766441E+03   -0.39413E-02   -0.15597E-02  8892   0.799E-01    0.111E+00
DAV:   3    -0.193525324030E+03    0.44241E-03   -0.16924E-02  6678   0.102E+00    0.117E+00
DAV:   4    -0.193522631799E+03    0.26922E-02   -0.76954E-03  6414   0.714E-01    0.347E-01
DAV:   5    -0.193523069049E+03   -0.43725E-03   -0.13118E-03  6306   0.398E-01    0.341E-01
DAV:   6    -0.193522732420E+03    0.33663E-03   -0.68315E-04  5763   0.327E-01    0.122E-01
DAV:   7    -0.193522816642E+03   -0.84222E-04   -0.28902E-04  3438   0.199E-01
  86 F= -.19352282E+03 E0= -.19352008E+03  d E =0.342760E-02  mag=    25.0791
quench:  g(F)=  0.000E+00 g(S)=  0.000E+00 dE (1.order)= 0.000E+00
 bond charge predicted
       N       E                     dE             d eps       ncg     rms          rms(c)
DAV:   1    -0.193520608256E+03    0.21242E-02   -0.21497E-01  5994   0.832E-01    0.195E-01
DAV:   2    -0.193526447379E+03   -0.58391E-02   -0.16656E-02  8844   0.102E+00    0.139E+00
DAV:   3    -0.193524611758E+03    0.18356E-02   -0.22055E-02  6669   0.120E+00    0.134E+00
DAV:   4    -0.193521172472E+03    0.34393E-02   -0.10145E-02  6540   0.793E-01    0.329E-01
DAV:   5    -0.193521520272E+03   -0.34780E-03   -0.12484E-03  6174   0.365E-01    0.334E-01
DAV:   6    -0.193521223917E+03    0.29636E-03   -0.73171E-04  6057   0.300E-01    0.117E-01
DAV:   7    -0.193521342496E+03   -0.11858E-03   -0.35923E-04  3669   0.225E-01    0.208E-01
DAV:   8    -0.193521273908E+03    0.68588E-04   -0.33135E-04  3654   0.200E-01
  87 F= -.19352127E+03 E0= -.19351861E+03  d E =0.154273E-02  mag=    25.0784
quench:  g(F)=  0.000E+00 g(S)=  0.000E+00 dE (1.order)= 0.000E+00
 bond charge predicted
       N       E                     dE             d eps       ncg     rms          rms(c)
DAV:   1    -0.193520823317E+03    0.51918E-03   -0.76714E-02  6006   0.482E-01    0.111E-01
DAV:   2    -0.193521803503E+03   -0.98019E-03   -0.47600E-03  8397   0.421E-01    0.502E-01
DAV:   3    -0.193521662358E+03    0.14115E-03   -0.32431E-03  6690   0.499E-01    0.539E-01
DAV:   4    -0.193521144443E+03    0.51791E-03   -0.20519E-03  4344   0.348E-01    0.220E-01
DAV:   5    -0.193521193819E+03   -0.49375E-04   -0.43759E-04  3654   0.217E-01
  88 F= -.19352119E+03 E0= -.19351857E+03  d E =0.800891E-04  mag=    25.0782
quench:  g(F)=  0.000E+00 g(S)=  0.000E+00 dE (1.order)= 0.000E+00
 bond charge predicted
       N       E                     dE             d eps       ncg     rms          rms(c)
DAV:   1    -0.193519365342E+03    0.17791E-02   -0.58996E-02  5976   0.511E-01    0.933E-02
DAV:   2    -0.193521548036E+03   -0.21827E-02   -0.52289E-03  8457   0.549E-01    0.912E-01
DAV:   3    -0.193520011014E+03    0.15370E-02   -0.67885E-03  6267   0.628E-01    0.553E-01
DAV:   4    -0.193519493387E+03    0.51763E-03   -0.14757E-03  4089   0.347E-01    0.126E-01
DAV:   5    -0.193519614551E+03   -0.12116E-03   -0.25477E-04  3546   0.184E-01    0.167E-01
DAV:   6    -0.193519533507E+03    0.81044E-04   -0.16931E-04  3429   0.156E-01
  89 F= -.19351953E+03 E0= -.19351683E+03  d E =0.166031E-02  mag=    25.0782
quench:  g(F)=  0.000E+00 g(S)=  0.000E+00 dE (1.order)= 0.000E+00
 bond charge predicted
       N       E                     dE             d eps       ncg     rms          rms(c)
DAV:   1    -0.193516366625E+03    0.32479E-02   -0.16230E-01  5976   0.782E-01    0.138E-01
DAV:   2    -0.193518777625E+03   -0.24110E-02   -0.78792E-03  8997   0.632E-01    0.881E-01
DAV:   3    -0.193518184679E+03    0.59295E-03   -0.98645E-03  6498   0.783E-01    0.877E-01
DAV:   4    -0.193516705528E+03    0.14792E-02   -0.40597E-03  6099   0.524E-01    0.218E-01
DAV:   5    -0.193516953470E+03   -0.24794E-03   -0.64565E-04  5112   0.285E-01    0.244E-01
DAV:   6    -0.193516777888E+03    0.17558E-03   -0.39972E-04  4209   0.243E-01    0.873E-02
DAV:   7    -0.193516810605E+03   -0.32717E-04   -0.13250E-04  3414   0.131E-01
  90 F= -.19351681E+03 E0= -.19351412E+03  d E =0.272290E-02  mag=    25.0780
quench:  g(F)=  0.000E+00 g(S)=  0.000E+00 dE (1.order)= 0.000E+00
 bond charge predicted
       N       E                     dE             d eps       ncg     rms          rms(c)
DAV:   1    -0.193512646354E+03    0.41315E-02   -0.30812E-01  5976   0.108E+00    0.184E-01
DAV:   2    -0.193517632495E+03   -0.49861E-02   -0.13957E-02  8952   0.889E-01    0.132E+00
DAV:   3    -0.193515725298E+03    0.19072E-02   -0.16910E-02  6561   0.107E+00    0.115E+00
DAV:   4    -0.193513321246E+03    0.24041E-02   -0.83911E-03  6372   0.713E-01    0.331E-01
DAV:   5    -0.193513761314E+03   -0.44007E-03   -0.14835E-03  6054   0.392E-01    0.369E-01
DAV:   6    -0.193513370385E+03    0.39093E-03   -0.66321E-04  5304   0.313E-01    0.956E-02
DAV:   7    -0.193513451873E+03   -0.81488E-04   -0.20651E-04  3384   0.169E-01
  91 F= -.19351345E+03 E0= -.19351073E+03  d E =0.335873E-02  mag=    25.0777
quench:  g(F)=  0.000E+00 g(S)=  0.000E+00 dE (1.order)= 0.000E+00
 bond charge predicted
       N       E                     dE             d eps       ncg     rms          rms(c)
DAV:   1    -0.193508794843E+03    0.45755E-02   -0.40296E-01  5976   0.120E+00    0.219E-01
DAV:   2    -0.193512770406E+03   -0.39756E-02   -0.16713E-02  8643   0.899E-01    0.103E+00
DAV:   3    -0.193509697892E+03    0.30725E-02   -0.65400E-03  6525   0.908E-01    0.319E-01
DAV:   4    -0.193511950327E+03   -0.22524E-02   -0.57190E-03  6531   0.638E-01    0.100E+00
DAV:   5    -0.193510246644E+03    0.17037E-02   -0.78636E-03  6285   0.659E-01    0.520E-01
DAV:   6    -0.193509759526E+03    0.48712E-03   -0.11034E-03  5178   0.360E-01    0.112E-01
DAV:   7    -0.193510001003E+03   -0.24148E-03   -0.43477E-04  3897   0.247E-01    0.267E-01
DAV:   8    -0.193509874626E+03    0.12638E-03   -0.44032E-04  3690   0.233E-01    0.145E-01
DAV:   9    -0.193509843052E+03    0.31574E-04   -0.16018E-04  3405   0.147E-01
  92 F= -.19350984E+03 E0= -.19350713E+03  d E =0.360882E-02  mag=    25.0775
quench:  g(F)=  0.000E+00 g(S)=  0.000E+00 dE (1.order)= 0.000E+00
 bond charge predicted
       N       E                     dE             d eps       ncg     rms          rms(c)
DAV:   1    -0.193508484836E+03    0.13898E-02   -0.17372E-01  6000   0.712E-01    0.155E-01
DAV:   2    -0.193511107341E+03   -0.26225E-02   -0.10713E-02  8532   0.595E-01    0.936E-01
DAV:   3    -0.193510049248E+03    0.10581E-02   -0.91648E-03  6708   0.735E-01    0.735E-01
DAV:   4    -0.193509167090E+03    0.88216E-03   -0.41092E-03  6174   0.536E-01    0.327E-01
DAV:   5    -0.193509104578E+03    0.62512E-04   -0.70470E-04  4401   0.254E-01
  93 F= -.19350910E+03 E0= -.19350642E+03  d E =0.738474E-03  mag=    25.0772
quench:  g(F)=  0.000E+00 g(S)=  0.000E+00 dE (1.order)= 0.000E+00
 bond charge predicted
       N       E                     dE             d eps       ncg     rms          rms(c)
DAV:   1    -0.193508009730E+03    0.11574E-02   -0.47894E-02  6027   0.465E-01    0.124E-01
DAV:   2    -0.193511012642E+03   -0.30029E-02   -0.57316E-03  8019   0.751E-01    0.105E+00
DAV:   3    -0.193508324084E+03    0.26886E-02   -0.43013E-03  6504   0.728E-01    0.405E-01
DAV:   4    -0.193508229218E+03    0.94866E-04   -0.13398E-03  3831   0.277E-01    0.172E-01
DAV:   5    -0.193508287843E+03   -0.58625E-04   -0.35574E-04  3486   0.181E-01
  94 F= -.19350829E+03 E0= -.19350552E+03  d E =0.816735E-03  mag=    25.0769
quench:  g(F)=  0.000E+00 g(S)=  0.000E+00 dE (1.order)= 0.000E+00
 bond charge predicted
       N       E                     dE             d eps       ncg     rms          rms(c)
DAV:   1    -0.193505561106E+03    0.26681E-02   -0.10746E-01  5976   0.649E-01    0.109E-01
DAV:   2    -0.193507749282E+03   -0.21882E-02   -0.61416E-03  9126   0.549E-01    0.891E-01
DAV:   3    -0.193506257338E+03    0.14919E-02   -0.66566E-03  6471   0.626E-01    0.538E-01
DAV:   4    -0.193505851038E+03    0.40630E-03   -0.18014E-03  4719   0.369E-01    0.180E-01
DAV:   5    -0.193505989569E+03   -0.13853E-03   -0.42382E-04  3660   0.229E-01    0.223E-01
DAV:   6    -0.193505841172E+03    0.14840E-03   -0.24659E-04  3357   0.193E-01    0.442E-02
DAV:   7    -0.193505906051E+03   -0.64879E-04   -0.10018E-04  3384   0.116E-01
  95 F= -.19350591E+03 E0= -.19350326E+03  d E =0.238179E-02  mag=    25.0765
quench:  g(F)=  0.000E+00 g(S)=  0.000E+00 dE (1.order)= 0.000E+00
 bond charge predicted
       N       E                     dE             d eps       ncg     rms          rms(c)
DAV:   1    -0.193501774370E+03    0.40668E-02   -0.25203E-01  5976   0.972E-01    0.146E-01
DAV:   2    -0.193503883976E+03   -0.21096E-02   -0.92845E-03  8643   0.531E-01    0.806E-01
DAV:   3    -0.193503268874E+03    0.61510E-03   -0.77508E-03  6438   0.685E-01    0.709E-01
DAV:   4    -0.193502531637E+03    0.73724E-03   -0.38335E-03  6252   0.511E-01    0.322E-01
DAV:   5    -0.193502603841E+03   -0.72204E-04   -0.97101E-04  5019   0.310E-01
  96 F= -.19350260E+03 E0= -.19349992E+03  d E =0.330221E-02  mag=    25.0762
quench:  g(F)=  0.000E+00 g(S)=  0.000E+00 dE (1.order)= 0.000E+00
[...]
 202 F= -.19349010E+03 E0= -.19348894E+03  d E =-.109197E-02  mag=    24.9667
quench:  g(F)=  0.000E+00 g(S)=  0.000E+00 dE (1.order)= 0.000E+00
 bond charge predicted
       N       E                     dE             d eps       ncg     rms          rms(c)
DAV:   1    -0.193490933414E+03   -0.86488E-03   -0.14555E-01  5976   0.690E-01    0.119E-01
DAV:   2    -0.193492415350E+03   -0.14819E-02   -0.59841E-03  8388   0.502E-01    0.653E-01
DAV:   3    -0.193491911653E+03    0.50370E-03   -0.40605E-03  6372   0.566E-01    0.590E-01
DAV:   4    -0.193491324176E+03    0.58748E-03   -0.27057E-03  4536   0.395E-01    0.234E-01
DAV:   5    -0.193491394805E+03   -0.70629E-04   -0.46151E-04  3495   0.196E-01
 203 F= -.19349139E+03 E0= -.19349031E+03  d E =-.129585E-02  mag=    24.9665
quench:  g(F)=  0.000E+00 g(S)=  0.000E+00 dE (1.order)= 0.000E+00
 bond charge predicted
       N       E                     dE             d eps       ncg     rms          rms(c)
DAV:   1    -0.193491764756E+03   -0.44058E-03   -0.13937E-01  5988   0.669E-01    0.139E-01
DAV:   2    -0.193493682659E+03   -0.19179E-02   -0.76213E-03  8550   0.549E-01    0.793E-01
DAV:   3    -0.193493229375E+03    0.45328E-03   -0.67223E-03  7146   0.685E-01    0.749E-01
DAV:   4    -0.193492243170E+03    0.98621E-03   -0.39064E-03  5835   0.471E-01    0.266E-01
DAV:   5    -0.193492212595E+03    0.30574E-04   -0.50830E-04  3978   0.196E-01
 204 F= -.19349221E+03 E0= -.19349106E+03  d E =-.817790E-03  mag=    24.9667
quench:  g(F)=  0.000E+00 g(S)=  0.000E+00 dE (1.order)= 0.000E+00
 bond charge predicted
       N       E                     dE             d eps       ncg     rms          rms(c)
DAV:   1    -0.193492695156E+03   -0.45199E-03   -0.46612E-02  6003   0.414E-01    0.132E-01
DAV:   2    -0.193497522396E+03   -0.48272E-02   -0.89956E-03  8121   0.899E-01    0.136E+00
DAV:   3    -0.193495040839E+03    0.24816E-02   -0.16035E-02  6642   0.103E+00    0.107E+00
DAV:   4    -0.193492711768E+03    0.23291E-02   -0.54520E-03  5859   0.577E-01    0.137E-01
DAV:   5    -0.193492974975E+03   -0.26321E-03   -0.37136E-04  4248   0.202E-01    0.184E-01
DAV:   6    -0.193492896594E+03    0.78380E-04   -0.25608E-04  3420   0.163E-01
 205 F= -.19349290E+03 E0= -.19349183E+03  d E =-.683999E-03  mag=    24.9667
quench:  g(F)=  0.000E+00 g(S)=  0.000E+00 dE (1.order)= 0.000E+00
 bond charge predicted
       N       E                     dE             d eps       ncg     rms          rms(c)
DAV:   1    -0.193493451194E+03   -0.47622E-03   -0.32426E-02  6072   0.345E-01    0.783E-02
DAV:   2    -0.193494767925E+03   -0.13167E-02   -0.29407E-03  7203   0.480E-01    0.683E-01
DAV:   3    -0.193494157330E+03    0.61059E-03   -0.47582E-03  5526   0.549E-01    0.596E-01
DAV:   4    -0.193493441520E+03    0.71581E-03   -0.15531E-03  3951   0.319E-01    0.698E-02
DAV:   5    -0.193493557092E+03   -0.11557E-03   -0.14731E-04  3540   0.134E-01    0.127E-01
DAV:   6    -0.193493522842E+03    0.34251E-04   -0.11382E-04  3471   0.116E-01
 206 F= -.19349352E+03 E0= -.19349242E+03  d E =-.626247E-03  mag=    24.9667
quench:  g(F)=  0.000E+00 g(S)=  0.000E+00 dE (1.order)= 0.000E+00
 bond charge predicted
       N       E                     dE             d eps       ncg     rms          rms(c)
DAV:   1    -0.193494268086E+03   -0.71099E-03   -0.77540E-02  5976   0.505E-01    0.847E-02
DAV:   2    -0.193494911788E+03   -0.64370E-03   -0.27967E-03  8127   0.344E-01    0.405E-01
DAV:   3    -0.193494415715E+03    0.49607E-03   -0.79840E-04  5931   0.330E-01    0.844E-02
DAV:   4    -0.193494736188E+03   -0.32047E-03   -0.61848E-04  3573   0.224E-01    0.349E-01
DAV:   5    -0.193494594066E+03    0.14212E-03   -0.11941E-03  3537   0.257E-01    0.266E-01
DAV:   6    -0.193494460232E+03    0.13383E-03   -0.32688E-04  3408   0.164E-01    0.574E-02
DAV:   7    -0.193494483679E+03   -0.23447E-04   -0.58549E-05  3501   0.901E-02
 207 F= -.19349448E+03 E0= -.19349338E+03  d E =-.960837E-03  mag=    24.9666
quench:  g(F)=  0.000E+00 g(S)=  0.000E+00 dE (1.order)= 0.000E+00
 bond charge predicted
       N       E                     dE             d eps       ncg     rms          rms(c)
DAV:   1    -0.193495293755E+03   -0.83352E-03   -0.13135E-01  6078   0.650E-01    0.101E-01
DAV:   2    -0.193496003176E+03   -0.70942E-03   -0.46583E-03  8004   0.326E-01    0.368E-01
DAV:   3    -0.193495723245E+03    0.27993E-03   -0.12852E-03  6564   0.376E-01    0.244E-01
DAV:   4    -0.193496277414E+03   -0.55417E-03   -0.22664E-03  3840   0.354E-01    0.559E-01
DAV:   5    -0.193495611809E+03    0.66561E-03   -0.16224E-03  3843   0.307E-01    0.142E-01
DAV:   6    -0.193495620587E+03   -0.87783E-05   -0.13332E-04  3651   0.140E-01
 208 F= -.19349562E+03 E0= -.19349456E+03  d E =-.113691E-02  mag=    24.9668
quench:  g(F)=  0.000E+00 g(S)=  0.000E+00 dE (1.order)= 0.000E+00
 bond charge predicted
       N       E                     dE             d eps       ncg     rms          rms(c)
DAV:   1    -0.193495970653E+03   -0.35884E-03   -0.14272E-01  6078   0.675E-01    0.178E-01
DAV:   2    -0.193501052141E+03   -0.50815E-02   -0.12254E-02  8181   0.105E+00    0.124E+00
DAV:   3    -0.193496229185E+03    0.48230E-02   -0.68711E-03  6525   0.958E-01    0.239E-01
DAV:   4    -0.193496866406E+03   -0.63722E-03   -0.21093E-03  5106   0.366E-01    0.524E-01
DAV:   5    -0.193496406257E+03    0.46015E-03   -0.20241E-03  4638   0.339E-01    0.235E-01
DAV:   6    -0.193496415916E+03   -0.96585E-05   -0.39048E-04  3936   0.206E-01
 209 F= -.19349642E+03 E0= -.19349526E+03  d E =-.795328E-03  mag=    24.9665
quench:  g(F)=  0.000E+00 g(S)=  0.000E+00 dE (1.order)= 0.000E+00
 bond charge predicted
       N       E                     dE             d eps       ncg     rms          rms(c)
DAV:   1    -0.193496826889E+03   -0.42063E-03   -0.43850E-02  6099   0.392E-01    0.952E-02
DAV:   2    -0.193498017455E+03   -0.11906E-02   -0.37004E-03  8289   0.481E-01    0.605E-01
DAV:   3    -0.193497107447E+03    0.91001E-03   -0.22531E-03  6402   0.469E-01    0.280E-01
DAV:   4    -0.193497124706E+03   -0.17259E-04   -0.11161E-03  3582   0.250E-01    0.253E-01
DAV:   5    -0.193497045879E+03    0.78827E-04   -0.32145E-04  3432   0.165E-01
 210 F= -.19349705E+03 E0= -.19349593E+03  d E =-.629964E-03  mag=    24.9665
quench:  g(F)=  0.000E+00 g(S)=  0.000E+00 dE (1.order)= 0.000E+00
 bond charge predicted
       N       E                     dE             d eps       ncg     rms          rms(c)
DAV:   1    -0.193497480045E+03   -0.35534E-03   -0.30039E-02  5976   0.341E-01    0.701E-02
DAV:   2    -0.193498895867E+03   -0.14158E-02   -0.26849E-03  6804   0.460E-01    0.742E-01
DAV:   3    -0.193497948529E+03    0.94734E-03   -0.43076E-03  5760   0.523E-01    0.484E-01
DAV:   4    -0.193497525596E+03    0.42293E-03   -0.11874E-03  3714   0.273E-01    0.673E-02
DAV:   5    -0.193497599908E+03   -0.74312E-04   -0.13871E-04  3492   0.126E-01
 211 F= -.19349760E+03 E0= -.19349651E+03  d E =-.554029E-03  mag=    24.9665
quench:  g(F)=  0.000E+00 g(S)=  0.000E+00 dE (1.order)= 0.000E+00
 bond charge predicted
       N       E                     dE             d eps       ncg     rms          rms(c)
DAV:   1    -0.193498200335E+03   -0.67474E-03   -0.67810E-02  5976   0.480E-01    0.808E-02
DAV:   2    -0.193499268718E+03   -0.10684E-02   -0.32029E-03  8172   0.396E-01    0.606E-01
DAV:   3    -0.193498760535E+03    0.50818E-03   -0.35704E-03  5553   0.471E-01    0.469E-01
DAV:   4    -0.193498349971E+03    0.41056E-03   -0.12781E-03  3759   0.287E-01    0.117E-01
DAV:   5    -0.193498430328E+03   -0.80357E-04   -0.22105E-04  3492   0.161E-01
 212 F= -.19349843E+03 E0= -.19349733E+03  d E =-.830420E-03  mag=    24.9665
quench:  g(F)=  0.000E+00 g(S)=  0.000E+00 dE (1.order)= 0.000E+00
 bond charge predicted
       N       E                     dE             d eps       ncg     rms          rms(c)
DAV:   1    -0.193499042707E+03   -0.69274E-03   -0.12493E-01  5976   0.650E-01    0.101E-01
DAV:   2    -0.193500010738E+03   -0.96803E-03   -0.43988E-03  8307   0.372E-01    0.507E-01
DAV:   3    -0.193499809447E+03    0.20129E-03   -0.29478E-03  5832   0.456E-01    0.497E-01
DAV:   4    -0.193499406789E+03    0.40266E-03   -0.19826E-03  3783   0.341E-01    0.217E-01
DAV:   5    -0.193499480490E+03   -0.73701E-04   -0.43336E-04  3483   0.211E-01
 213 F= -.19349948E+03 E0= -.19349836E+03  d E =-.105016E-02  mag=    24.9665
quench:  g(F)=  0.000E+00 g(S)=  0.000E+00 dE (1.order)= 0.000E+00
 bond charge predicted
       N       E                     dE             d eps       ncg     rms          rms(c)
DAV:   1    -0.193499669786E+03   -0.26300E-03   -0.12682E-01  5976   0.647E-01    0.126E-01
DAV:   2    -0.193500942337E+03   -0.12726E-02   -0.60259E-03  8505   0.448E-01    0.577E-01
DAV:   3    -0.193501039276E+03   -0.96939E-04   -0.50573E-03  7002   0.598E-01    0.706E-01
DAV:   4    -0.193500111197E+03    0.92808E-03   -0.32617E-03  5466   0.433E-01    0.255E-01
DAV:   5    -0.193500158407E+03   -0.47210E-04   -0.60195E-04  4110   0.240E-01
 214 F= -.19350016E+03 E0= -.19349903E+03  d E =-.677918E-03  mag=    24.9667
quench:  g(F)=  0.000E+00 g(S)=  0.000E+00 dE (1.order)= 0.000E+00
 bond charge predicted
       N       E                     dE             d eps       ncg     rms          rms(c)
DAV:   1    -0.193500433317E+03   -0.32212E-03   -0.42483E-02  6018   0.404E-01    0.946E-02
DAV:   2    -0.193502551474E+03   -0.21182E-02   -0.47523E-03  8550   0.569E-01    0.898E-01
DAV:   3    -0.193501395363E+03    0.11561E-02   -0.67278E-03  6402   0.654E-01    0.646E-01
DAV:   4    -0.193500586323E+03    0.80904E-03   -0.23442E-03  4206   0.380E-01    0.119E-01
DAV:   5    -0.193500717325E+03   -0.13100E-03   -0.25567E-04  3591   0.160E-01    0.187E-01
DAV:   6    -0.193500626227E+03    0.91099E-04   -0.20628E-04  3432   0.149E-01
 215 F= -.19350063E+03 E0= -.19349959E+03  d E =-.467819E-03  mag=    24.9668
quench:  g(F)=  0.000E+00 g(S)=  0.000E+00 dE (1.order)= 0.000E+00
 bond charge predicted
       N       E                     dE             d eps       ncg     rms          rms(c)
DAV:   1    -0.193501016303E+03   -0.29898E-03   -0.21170E-02  5976   0.265E-01    0.706E-02
DAV:   2    -0.193502205098E+03   -0.11888E-02   -0.26534E-03  7128   0.461E-01    0.665E-01
DAV:   3    -0.193501687201E+03    0.51790E-03   -0.47426E-03  5319   0.532E-01    0.576E-01
DAV:   4    -0.193501008725E+03    0.67848E-03   -0.14366E-03  3870   0.317E-01    0.716E-02
DAV:   5    -0.193501070115E+03   -0.61391E-04   -0.10589E-04  3486   0.108E-01
 216 F= -.19350107E+03 E0= -.19350001E+03  d E =-.443889E-03  mag=    24.9668
quench:  g(F)=  0.000E+00 g(S)=  0.000E+00 dE (1.order)= 0.000E+00
 bond charge predicted
       N       E                     dE             d eps       ncg     rms          rms(c)
DAV:   1    -0.193501556943E+03   -0.54822E-03   -0.50788E-02  5976   0.410E-01    0.733E-02
DAV:   2    -0.193502223746E+03   -0.66680E-03   -0.21509E-03  7812   0.346E-01    0.460E-01
DAV:   3    -0.193501894910E+03    0.32884E-03   -0.17569E-03  4914   0.379E-01    0.365E-01
DAV:   4    -0.193501663517E+03    0.23139E-03   -0.89815E-04  3594   0.229E-01    0.120E-01
DAV:   5    -0.193501722913E+03   -0.59396E-04   -0.18576E-04  3501   0.146E-01
 217 F= -.19350172E+03 E0= -.19350070E+03  d E =-.652798E-03  mag=    24.9669
quench:  g(F)=  0.000E+00 g(S)=  0.000E+00 dE (1.order)= 0.000E+00
 bond charge predicted
       N       E                     dE             d eps       ncg     rms          rms(c)
DAV:   1    -0.193502220157E+03   -0.55664E-03   -0.86013E-02  5976   0.534E-01    0.938E-02
DAV:   2    -0.193502991065E+03   -0.77091E-03   -0.33447E-03  8433   0.366E-01    0.461E-01
DAV:   3    -0.193502725350E+03    0.26571E-03   -0.20399E-03  6378   0.422E-01    0.406E-01
DAV:   4    -0.193502519197E+03    0.20615E-03   -0.16724E-03  3717   0.305E-01    0.256E-01
DAV:   5    -0.193502477288E+03    0.41909E-04   -0.40757E-04  3525   0.195E-01
 218 F= -.19350248E+03 E0= -.19350144E+03  d E =-.754375E-03  mag=    24.9669
quench:  g(F)=  0.000E+00 g(S)=  0.000E+00 dE (1.order)= 0.000E+00
 bond charge predicted
       N       E                     dE             d eps       ncg     rms          rms(c)
DAV:   1    -0.193502627703E+03   -0.10851E-03   -0.93254E-02  5976   0.548E-01    0.102E-01
DAV:   2    -0.193503703925E+03   -0.10762E-02   -0.45217E-03  8415   0.400E-01    0.560E-01
DAV:   3    -0.193503437324E+03    0.26660E-03   -0.34679E-03  6219   0.484E-01    0.532E-01
DAV:   4    -0.193502930086E+03    0.50724E-03   -0.19659E-03  3846   0.344E-01    0.195E-01
DAV:   5    -0.193503022836E+03   -0.92750E-04   -0.33914E-04  3606   0.187E-01
 219 F= -.19350302E+03 E0= -.19350207E+03  d E =-.545547E-03  mag=    24.9668
quench:  g(F)=  0.000E+00 g(S)=  0.000E+00 dE (1.order)= 0.000E+00
 bond charge predicted
       N       E                     dE             d eps       ncg     rms          rms(c)
DAV:   1    -0.193503240533E+03   -0.31045E-03   -0.26936E-02  6054   0.329E-01    0.686E-02
DAV:   2    -0.193503894458E+03   -0.65393E-03   -0.19040E-03  7983   0.334E-01    0.451E-01
DAV:   3    -0.193503597191E+03    0.29727E-03   -0.16170E-03  4674   0.368E-01    0.356E-01
DAV:   4    -0.193503381458E+03    0.21573E-03   -0.98098E-04  3705   0.235E-01    0.140E-01
DAV:   5    -0.193503397060E+03   -0.15601E-04   -0.15657E-04  3456   0.127E-01
 220 F= -.19350340E+03 E0= -.19350235E+03  d E =-.374224E-03  mag=    24.9668
quench:  g(F)=  0.000E+00 g(S)=  0.000E+00 dE (1.order)= 0.000E+00
 bond charge predicted
       N       E                     dE             d eps       ncg     rms          rms(c)
DAV:   1    -0.193503682315E+03   -0.30086E-03   -0.22190E-02  5988   0.284E-01    0.520E-02
DAV:   2    -0.193504064002E+03   -0.38169E-03   -0.10757E-03  5292   0.246E-01    0.367E-01
DAV:   3    -0.193503916906E+03    0.14710E-03   -0.14404E-03  3654   0.301E-01    0.326E-01
DAV:   4    -0.193503715923E+03    0.20098E-03   -0.57088E-04  3504   0.190E-01    0.628E-02
DAV:   5    -0.193503773107E+03   -0.57184E-04   -0.90002E-05  3492   0.994E-02
 221 F= -.19350377E+03 E0= -.19350279E+03  d E =-.376047E-03  mag=    24.9668
quench:  g(F)=  0.000E+00 g(S)=  0.000E+00 dE (1.order)= 0.000E+00
 bond charge predicted
       N       E                     dE             d eps       ncg     rms          rms(c)
DAV:   1    -0.193504129822E+03   -0.41390E-03   -0.48017E-02  5976   0.393E-01    0.595E-02
DAV:   2    -0.193504604984E+03   -0.47516E-03   -0.19110E-03  6714   0.233E-01    0.404E-01
DAV:   3    -0.193504286308E+03    0.31868E-03   -0.14136E-03  4077   0.278E-01    0.209E-01
DAV:   4    -0.193504262325E+03    0.23983E-04   -0.33400E-04  3480   0.178E-01
 222 F= -.19350426E+03 E0= -.19350316E+03  d E =-.489218E-03  mag=    24.9668
quench:  g(F)=  0.000E+00 g(S)=  0.000E+00 dE (1.order)= 0.000E+00
 bond charge predicted
       N       E                     dE             d eps       ncg     rms          rms(c)
DAV:   1    -0.193504631531E+03   -0.34522E-03   -0.83460E-02  5976   0.519E-01    0.105E-01
DAV:   2    -0.193506397086E+03   -0.17656E-02   -0.48749E-03  8595   0.574E-01    0.747E-01
DAV:   3    -0.193505954023E+03    0.44306E-03   -0.68645E-03  6543   0.662E-01    0.754E-01
DAV:   4    -0.193504762919E+03    0.11911E-02   -0.29434E-03  5223   0.435E-01    0.144E-01
DAV:   5    -0.193504899263E+03   -0.13634E-03   -0.32444E-04  4014   0.194E-01    0.169E-01
DAV:   6    -0.193504851596E+03    0.47667E-04   -0.19021E-04  3492   0.152E-01
 223 F= -.19350485E+03 E0= -.19350385E+03  d E =-.589272E-03  mag=    24.9668
quench:  g(F)=  0.000E+00 g(S)=  0.000E+00 dE (1.order)= 0.000E+00
 bond charge predicted
       N       E                     dE             d eps       ncg     rms          rms(c)
DAV:   1    -0.193505045835E+03   -0.14657E-03   -0.66116E-02  5976   0.442E-01    0.108E-01
DAV:   2    -0.193507144833E+03   -0.20990E-02   -0.57861E-03  8739   0.578E-01    0.849E-01
DAV:   3    -0.193506305256E+03    0.83958E-03   -0.84526E-03  6678   0.704E-01    0.759E-01
DAV:   4    -0.193505129401E+03    0.11759E-02   -0.23777E-03  5202   0.401E-01    0.931E-02
DAV:   5    -0.193505262593E+03   -0.13319E-03   -0.18075E-04  3801   0.124E-01    0.131E-01
DAV:   6    -0.193505234010E+03    0.28584E-04   -0.20489E-04  3879   0.143E-01
 224 F= -.19350523E+03 E0= -.19350416E+03  d E =-.382413E-03  mag=    24.9671
quench:  g(F)=  0.000E+00 g(S)=  0.000E+00 dE (1.order)= 0.000E+00
 bond charge predicted
       N       E                     dE             d eps       ncg     rms          rms(c)
DAV:   1    -0.193505563801E+03   -0.30121E-03   -0.25022E-02  6024   0.306E-01    0.155E-01
DAV:   2    -0.193510433994E+03   -0.48702E-02   -0.82390E-03  7065   0.103E+00    0.129E+00
DAV:   3    -0.193506832189E+03    0.36018E-02   -0.99678E-03  6573   0.102E+00    0.817E-01
DAV:   4    -0.193505585107E+03    0.12471E-02   -0.38400E-03  5742   0.477E-01    0.231E-01
DAV:   5    -0.193505595704E+03   -0.10597E-04   -0.38183E-04  3873   0.189E-01
 225 F= -.19350560E+03 E0= -.19350456E+03  d E =-.361694E-03  mag=    24.9672
quench:  g(F)=  0.000E+00 g(S)=  0.000E+00 dE (1.order)= 0.000E+00
 bond charge predicted
       N       E                     dE             d eps       ncg     rms          rms(c)
DAV:   1    -0.193505860156E+03   -0.27505E-03   -0.15041E-02  6105   0.240E-01    0.107E-01
DAV:   2    -0.193508046612E+03   -0.21865E-02   -0.39464E-03  6954   0.703E-01    0.850E-01
DAV:   3    -0.193506715367E+03    0.13312E-02   -0.57477E-03  6555   0.712E-01    0.662E-01
DAV:   4    -0.193505785093E+03    0.93027E-03   -0.22197E-03  4185   0.356E-01    0.114E-01
DAV:   5    -0.193505866671E+03   -0.81578E-04   -0.12948E-04  3534   0.123E-01
 226 F= -.19350587E+03 E0= -.19350479E+03  d E =-.270967E-03  mag=    24.9672
quench:  g(F)=  0.000E+00 g(S)=  0.000E+00 dE (1.order)= 0.000E+00
 bond charge predicted
       N       E                     dE             d eps       ncg     rms          rms(c)
DAV:   1    -0.193506174491E+03   -0.38940E-03   -0.34542E-02  6012   0.335E-01    0.896E-02
DAV:   2    -0.193507627585E+03   -0.14531E-02   -0.29022E-03  7560   0.553E-01    0.679E-01
DAV:   3    -0.193506410651E+03    0.12169E-02   -0.23303E-03  6444   0.534E-01    0.335E-01
DAV:   4    -0.193506265258E+03    0.14539E-03   -0.88473E-04  3630   0.226E-01    0.158E-01
DAV:   5    -0.193506246974E+03    0.18284E-04   -0.20531E-04  3381   0.135E-01
 227 F= -.19350625E+03 E0= -.19350520E+03  d E =-.380303E-03  mag=    24.9673
quench:  g(F)=  0.000E+00 g(S)=  0.000E+00 dE (1.order)= 0.000E+00
 bond charge predicted
       N       E                     dE             d eps       ncg     rms          rms(c)
DAV:   1    -0.193506525056E+03   -0.25980E-03   -0.45273E-02  5976   0.372E-01    0.101E-01
DAV:   2    -0.193508032089E+03   -0.15070E-02   -0.37913E-03  8289   0.564E-01    0.689E-01
DAV:   3    -0.193507437154E+03    0.59493E-03   -0.48886E-03  6537   0.612E-01    0.641E-01
DAV:   4    -0.193506580738E+03    0.85642E-03   -0.23992E-03  4368   0.370E-01    0.152E-01
DAV:   5    -0.193506666593E+03   -0.85854E-04   -0.22986E-04  3570   0.168E-01
 228 F= -.19350667E+03 E0= -.19350556E+03  d E =-.419618E-03  mag=    24.9674
quench:  g(F)=  0.000E+00 g(S)=  0.000E+00 dE (1.order)= 0.000E+00
 bond charge predicted
       N       E                     dE             d eps       ncg     rms          rms(c)
DAV:   1    -0.193506821757E+03   -0.24102E-03   -0.29145E-02  5976   0.317E-01    0.861E-02
DAV:   2    -0.193508818812E+03   -0.19971E-02   -0.40878E-03  7857   0.574E-01    0.855E-01
DAV:   3    -0.193507760219E+03    0.10586E-02   -0.65531E-03  6561   0.648E-01    0.662E-01
DAV:   4    -0.193506876440E+03    0.88378E-03   -0.22158E-03  4224   0.370E-01    0.108E-01
DAV:   5    -0.193506956404E+03   -0.79964E-04   -0.18340E-04  3573   0.145E-01
