 vasp.5.4.4.18Apr17-6-g9f103f2a35 (build Feb 06 2024 13:54:16) complex          
  
 POSCAR found type information on POSCAR  Rh N  O 
 04/POSCAR found :  3 types and      40 ions
 scaLAPACK will be used

 ----------------------------------------------------------------------------- 
|                                                                             |
|  ADVICE TO THIS USER RUNNING 'VASP/VAMP'   (HEAR YOUR MASTER'S VOICE ...):  |
|                                                                             |
|      You enforced a specific xc-type in the INCAR file,                     |
|      a different type was found on the POTCAR file                          |
|          I HOPE YOU KNOW, WHAT YOU ARE  DOING                               |
|                                                                             |
 ----------------------------------------------------------------------------- 

 LDA part: xc-table for Pade appr. of Perdew
 POSCAR found type information on POSCAR  Rh N  O 
 00/POSCAR found :  3 types and      40 ions
 POSCAR found type information on POSCAR  Rh N  O 
 06/POSCAR found :  3 types and      40 ions
 Jacobian:    20.6739712607859     
 POSCAR, INCAR and KPOINTS ok, starting setup
 FFT: planning ...
 WAVECAR not read
 entering main loop
       N       E                     dE             d eps       ncg     rms          rms(c)
  Solvation turned off during non-self-consistent phase (first NELMDL steps)
DAV:   1     0.639614539409E+04    0.63961E+04   -0.35966E+05 19620   0.166E+03
DAV:   2    -0.142771617232E+02   -0.64104E+04   -0.62167E+04 17652   0.493E+02
DAV:   3    -0.260615560761E+03   -0.24634E+03   -0.22768E+03 18027   0.952E+01
DAV:   4    -0.267473620747E+03   -0.68581E+01   -0.67503E+01 17847   0.145E+01
DAV:   5    -0.267708416197E+03   -0.23480E+00   -0.23454E+00 20340   0.246E+00    0.509E+01
 Begin Solvation calculations
  rms_SCF =    2.04572947381735      tol =   0.204572947381735     
 Begin minimization
 Creating dielectric and ionic cavities
  area:      157.691798231202     
  volume:    748.515924948595     
  Acav:     8.278819407138127E-002
  Solving linear dielectric/ionic screening model
        iter                  A_solv                     rms
   LPB:       -0.729611055233901E+03   0.380720079286356E+03
   LPB:    0  -0.196968584174725E+01   0.954653413412852E+01  -0.691789E+01   0.000000E+00   0.304088E+02  -0.210365E+03
   LPB:    1  -0.552984297505418E+00   0.462348631909534E+01   0.153154E-01   0.000000E+00   0.940543E+02   0.804056E-14
   LPB:    2  -0.334975656095708E+00   0.195636704694606E+01   0.144598E-01   0.162990E+00   0.119309E+03   0.519613E-13
   LPB:    3  -0.218564917142771E+00   0.720592857312653E+00   0.227434E-01   0.339489E+00   0.180357E+03   0.587899E-13
   LPB:    4  -0.171440802715097E+00   0.601733359807192E+00   0.295603E-01   0.311455E+00   0.654228E+02   0.643653E-13
   LPB:    5  -0.150022610517112E+00   0.688372739379343E+00   0.254940E-01   0.527001E+00   0.387620E+03   0.603982E-13
   LPB:    6  -0.136316656068971E+00   0.233737283994100E+00   0.262071E-01   0.622507E+00   0.510093E+02   0.581533E-13
   LPB:    7  -0.127402969781429E+00   0.116586734491682E+00   0.331232E-01   0.514559E+00   0.144353E+03   0.505658E-13
  Finished solving LPB equations
  A_corr:   -4.461477571004724E-002
 End minimization
 Ecorr=   3681.93357315113     
 A_corr= -4.461477571004724E-002
 Ecorr_band=  -3681.97818792684     
 End Solvation calculations
RMM:   6    -0.253284176722E+03    0.14424E+02   -0.68062E+01 16278   0.169E+01    0.249E+01
 Begin Solvation calculations
  rms_SCF =    2.04572947381735      tol =   0.204572947381735     
 Begin minimization
 Creating dielectric and ionic cavities
  area:      144.237873636968     
  volume:    765.528872584057     
  Acav:     7.572488365940808E-002
  Solving linear dielectric/ionic screening model
        iter                  A_solv                     rms
   LPB:       -0.155369235388180E+02   0.707892840529838E+02
   LPB:    0  -0.122242013559427E+02   0.632629574560659E+02   0.473020E+00   0.000000E+00   0.296112E+02   0.140067E+02
   LPB:    1  -0.134060672402786E+01   0.594949773810717E+01   0.897626E-02   0.000000E+00   0.667105E+02  -0.655290E-15
   LPB:    2  -0.502109834583871E+00   0.124080534646688E+01   0.159091E-01   0.434689E-01   0.122434E+03   0.684147E-14
   LPB:    3  -0.377409020252811E+00   0.749646111490037E+00   0.217722E-01   0.108670E+00   0.190939E+03   0.989512E-14
   LPB:    4  -0.340259192313367E+00   0.801534434985293E+00   0.238528E-01   0.271927E+00   0.166238E+03   0.118613E-13
   LPB:    5  -0.323807248809874E+00   0.313202130841303E+00   0.233863E-01   0.451687E+00   0.885228E+02   0.174845E-13
   LPB:    6  -0.315089290597145E+00   0.161246910681470E+00   0.294188E-01   0.421244E+00   0.351519E+03   0.121324E-13
  Finished solving LPB equations
  A_corr:   -0.239364406937737     
 End minimization
 Ecorr=   3484.73271655903     
 A_corr= -0.239364406937737     
 Ecorr_band=  -3484.97208096597     
 End Solvation calculations
RMM:   7    -0.319782865376E+03   -0.66499E+02   -0.40869E+01 16278   0.882E+00    0.677E+01
 Begin Solvation calculations
  rms_SCF =    2.04572947381735      tol =   0.204572947381735     
 Begin minimization
 Creating dielectric and ionic cavities
  area:      161.783579374028     
  volume:    765.191756916972     
  Acav:     8.493637917136475E-002
  Solving linear dielectric/ionic screening model
        iter                  A_solv                     rms
   LPB:       -0.228924353901768E+02   0.883502351408286E+02
   LPB:    0  -0.228798706041712E+02   0.882981506622007E+02  -0.291238E-01   0.000000E+00   0.296271E+02  -0.862853E+00
   LPB:    1  -0.207450926107166E+01   0.825704029667333E+01   0.893416E-02   0.000000E+00   0.668185E+02  -0.303434E-16
   LPB:    2  -0.471428178336023E+00   0.145586032111457E+01   0.160694E-01   0.428384E-01   0.119623E+03  -0.692847E-14
   LPB:    3  -0.238569835206462E+00   0.484214294952246E+00   0.227678E-01   0.102522E+00   0.200140E+03  -0.146477E-13
   LPB:    4  -0.178475877860635E+00   0.232174747189244E+00   0.271652E-01   0.216295E+00   0.269671E+03  -0.169889E-13
   LPB:    5  -0.157645395912606E+00   0.171681735470910E+00   0.288128E-01   0.326811E+00   0.322749E+03  -0.169356E-13
  Finished solving LPB equations
  A_corr:   -7.270901674124154E-002
 End minimization
 Ecorr=   3450.50405951817     
 A_corr= -7.270901674124154E-002
 Ecorr_band=  -3450.57676853491     
 End Solvation calculations
RMM:   8    -0.272408453309E+03    0.47374E+02   -0.16232E+01 16296   0.603E+00    0.426E+01
 Begin Solvation calculations
  rms_SCF =    2.04572947381735      tol =   0.204572947381735     
 Begin minimization
 Creating dielectric and ionic cavities
  area:      160.525401855436     
  volume:    756.201414427588     
  Acav:     8.427583597410414E-002
  Solving linear dielectric/ionic screening model
        iter                  A_solv                     rms
   LPB:       -0.277404871306287E+01   0.299143435839374E+02
   LPB:    0  -0.218891353818317E+01   0.258702968580695E+02  -0.197347E+00   0.000000E+00   0.300485E+02  -0.593000E+01
   LPB:    1  -0.314095201050073E+00   0.230736819247056E+01   0.899718E-02   0.000000E+00   0.666914E+02   0.408494E-15
   LPB:    2  -0.184316523465069E+00   0.641678771746350E+00   0.146057E-01   0.426412E-01   0.137548E+03   0.783772E-14
   LPB:    3  -0.165889142452239E+00   0.500486135571720E+00   0.202742E-01   0.102291E+00   0.171265E+03   0.100010E-13
   LPB:    4  -0.160854349976857E+00   0.164793577441099E+00   0.200916E-01   0.275707E+00   0.909086E+02   0.103316E-13
  Finished solving LPB equations
  A_corr:   -7.657851400275319E-002
 End minimization
 Ecorr=   3489.10945684585     
 A_corr= -7.657851400275319E-002
 Ecorr_band=  -3489.18603535985     
 End Solvation calculations
RMM:   9    -0.254069067638E+03    0.18339E+02   -0.13484E+01 16272   0.573E+00    0.213E+01
 Begin Solvation calculations
  rms_SCF =    2.04572947381735      tol =   0.204572947381735     
 Begin minimization
 Creating dielectric and ionic cavities
  area:      146.377749184747     
  volume:    754.004054011923     
  Acav:     7.684831832199206E-002
  Solving linear dielectric/ionic screening model
        iter                  A_solv                     rms
   LPB:       -0.980932955135987E+00   0.146815947708069E+02
   LPB:    0  -0.824500878281173E+00   0.134553534263575E+02   0.101865E+00   0.000000E+00   0.301516E+02   0.307137E+01
   LPB:    1  -0.284878320926757E+00   0.129530778602068E+01   0.926644E-02   0.000000E+00   0.693475E+02  -0.192522E-15
   LPB:    2  -0.224414123767563E+00   0.341667283977816E+00   0.160861E-01   0.645460E-01   0.214348E+03  -0.518221E-15
   LPB:    3  -0.207883733195393E+00   0.191156904705029E+00   0.279892E-01   0.157125E+00   0.194810E+03  -0.190885E-14
   LPB:    4  -0.201775466067882E+00   0.340872814487766E+00   0.286006E-01   0.361618E+00   0.444655E+03  -0.559141E-14
   LPB:    5  -0.198038035533702E+00   0.208120600913388E+00   0.283916E-01   0.616368E+00   0.430362E+02  -0.718574E-14
   LPB:    6  -0.195052245951916E+00   0.154273451002513E+00   0.311866E-01   0.727289E+00   0.151286E+03  -0.833017E-14
  Finished solving LPB equations
  A_corr:   -0.118203927629924     
 End minimization
 Ecorr=   3405.33440250701     
 A_corr= -0.118203927629924     
 Ecorr_band=  -3405.45260643464     
 End Solvation calculations
RMM:  10    -0.252785875727E+03    0.12832E+01   -0.68457E+00 16273   0.409E+00    0.165E+01
 Begin Solvation calculations
  rms_SCF =    2.04572947381735      tol =   0.204572947381735     
 Begin minimization
 Creating dielectric and ionic cavities
  area:      139.773415531910     
  volume:    747.471908400099     
  Acav:     7.338104315425262E-002
  Solving linear dielectric/ionic screening model
        iter                  A_solv                     rms
   LPB:       -0.356320063743692E+00   0.652233728865690E+01
   LPB:    0  -0.293728712702438E+00   0.349003746518053E+01  -0.641096E-01   0.000000E+00   0.304578E+02  -0.195264E+01
   LPB:    1  -0.226900084019681E+00   0.592706549181185E+00   0.110601E-01   0.000000E+00   0.598619E+02   0.105793E-15
   LPB:    2  -0.217458531803403E+00   0.402033279166725E+00   0.163215E-01   0.957375E-01   0.182201E+03  -0.306104E-14
   LPB:    3  -0.214640428831956E+00   0.332849851828609E+00   0.206136E-01   0.236330E+00   0.975808E+02  -0.348436E-14
   LPB:    4  -0.212085017542428E+00   0.109804144845768E+00   0.283976E-01   0.658229E+00   0.861495E+02  -0.330623E-14
  Finished solving LPB equations
  A_corr:   -0.138703974388175     
 End minimization
 Ecorr=   3401.17464870409     
 A_corr= -0.138703974388175     
 Ecorr_band=  -3401.31335267848     
 End Solvation calculations
RMM:  11    -0.250886404088E+03    0.18995E+01   -0.24330E+00 16273   0.251E+00    0.100E+01
 Begin Solvation calculations
  rms_SCF =    2.04572947381735      tol =   0.204572947381735     
 Begin minimization
 Creating dielectric and ionic cavities
  area:      137.868815138394     
  volume:    745.910225468000     
  Acav:     7.238112794765697E-002
  Solving linear dielectric/ionic screening model
        iter                  A_solv                     rms
   LPB:       -0.232067267702084E+00   0.151108996772839E+01
   LPB:    0  -0.229294636473031E+00   0.142711225841242E+01   0.134769E-01   0.000000E+00   0.305310E+02   0.411464E+00
   LPB:    1  -0.219344058368336E+00   0.355652435394103E+00   0.107701E-01   0.000000E+00   0.830293E+02  -0.962694E-17
   LPB:    2  -0.216461786062762E+00   0.993620165556753E-01   0.186263E-01   0.167487E+00   0.182390E+03  -0.329823E-15
   LPB:    3  -0.214288058153612E+00   0.915032389229139E-01   0.452056E-01   0.310745E+00   0.114353E+03  -0.379085E-15
   LPB:    4  -0.212310449597351E+00   0.111063596992445E+00   0.435598E-01   0.944150E+00   0.926023E+02  -0.498088E-17
  Finished solving LPB equations
  A_corr:   -0.139929321649694     
 End minimization
 Ecorr=   3379.97261556674     
 A_corr= -0.139929321649694     
 Ecorr_band=  -3380.11254488839     
 End Solvation calculations
RMM:  12    -0.250036779965E+03    0.84962E+00   -0.95429E-01 16276   0.162E+00    0.369E+00
 Begin Solvation calculations
  rms_SCF =    1.31134725217819      tol =   0.131134725217819     
 Begin minimization
 Creating dielectric and ionic cavities
  area:      137.877219798427     
  volume:    742.459871673722     
  Acav:     7.238554039417397E-002
  Solving linear dielectric/ionic screening model
        iter                  A_solv                     rms
   LPB:       -0.260378190139274E+00   0.144501197973141E+01
   LPB:    0  -0.258695498229107E+00   0.164875241883160E+01   0.104713E-01   0.000000E+00   0.306928E+02   0.321392E+00
   LPB:    1  -0.234632612500844E+00   0.649947473214001E+00   0.123032E-01   0.000000E+00   0.979339E+02  -0.227696E-16
   LPB:    2  -0.230764060650478E+00   0.148809983791166E+00   0.139625E-01   0.141663E+00   0.150370E+03   0.361198E-14
   LPB:    3  -0.229139049639565E+00   0.159157050054301E+00   0.265646E-01   0.220784E+00   0.303619E+03   0.424917E-14
   LPB:    4  -0.228072016169900E+00   0.143726628400110E+00   0.280694E-01   0.621428E+00   0.663786E+02   0.449321E-14
   LPB:    5  -0.226881362989012E+00   0.141348573358533E+00   0.353765E-01   0.885371E+00   0.169413E+03   0.541606E-14
   LPB:    6  -0.225715978847637E+00   0.580537012858678E-01   0.384200E-01   0.901243E+00   0.397655E+02   0.776458E-14
  Finished solving LPB equations
  A_corr:   -0.153330438453463     
 End minimization
 Ecorr=   3349.54495374546     
 A_corr= -0.153330438453463     
 Ecorr_band=  -3349.69828418391     
 End Solvation calculations
RMM:  13    -0.250148001473E+03   -0.11122E+00   -0.32091E-01 16278   0.925E-01    0.521E+00
 Begin Solvation calculations
  rms_SCF =    1.31134725217819      tol =   0.131134725217819     
 Begin minimization
 Creating dielectric and ionic cavities
  area:      138.028156718106     
  volume:    739.358964523273     
  Acav:     7.246478227700583E-002
  Solving linear dielectric/ionic screening model
        iter                  A_solv                     rms
   LPB:       -0.259032061183929E+00   0.745922795128710E+00
   LPB:    0  -0.258728377672827E+00   0.919328440955713E+00   0.443794E-02   0.000000E+00   0.308381E+02   0.136858E+00
   LPB:    1  -0.242743708692103E+00   0.416347555149132E+00   0.147004E-01   0.000000E+00   0.120441E+03  -0.340989E-17
   LPB:    2  -0.240602369932077E+00   0.153956602920201E+00   0.159003E-01   0.123853E+00   0.121653E+03   0.382075E-14
   LPB:    3  -0.239878797635309E+00   0.998142588068436E-01   0.205398E-01   0.261580E+00   0.228563E+03   0.315104E-14
   LPB:    4  -0.239465571990100E+00   0.124742761020132E+00   0.253510E-01   0.462707E+00   0.996849E+02   0.217230E-14
  Finished solving LPB equations
  A_corr:   -0.167000789713095     
 End minimization
 Ecorr=   3334.94315506724     
 A_corr= -0.167000789713095     
 Ecorr_band=  -3335.11015585695     
 End Solvation calculations
RMM:  14    -0.249935949686E+03    0.21205E+00   -0.18432E-01 16276   0.726E-01    0.194E+00
 Begin Solvation calculations
  rms_SCF =   0.684511497022602      tol =   6.845114970226021E-002
 Begin minimization
 Creating dielectric and ionic cavities
  area:      138.276303013135     
  volume:    737.131651495240     
  Acav:     7.259505908189602E-002
  Solving linear dielectric/ionic screening model
        iter                  A_solv                     rms
   LPB:       -0.268231136992139E+00   0.158804389851064E+01
   LPB:    0  -0.265409510618278E+00   0.154812226517625E+01   0.135048E-01   0.000000E+00   0.309426E+02   0.417872E+00
   LPB:    1  -0.252283165021722E+00   0.391357025775166E+00   0.102236E-01   0.000000E+00   0.103018E+03  -0.492943E-17
   LPB:    2  -0.250535611307403E+00   0.656952717086456E-01   0.137079E-01   0.992934E-01   0.215171E+03  -0.684121E-15
   LPB:    3  -0.249848506779143E+00   0.716024446456036E-01   0.360680E-01   0.149431E+00   0.167504E+03  -0.658624E-15
   LPB:    4  -0.249197507971248E+00   0.974654717819728E-01   0.398520E-01   0.857489E+00   0.749926E+02  -0.557834E-15
   LPB:    5  -0.248648043310401E+00   0.113347551269006E+00   0.297437E-01   0.113088E+01   0.220239E+03  -0.498357E-15
   LPB:    6  -0.248175570014603E+00   0.504931993703843E-01   0.315383E-01   0.810950E+00   0.404257E+02  -0.102401E-14
  Finished solving LPB equations
  A_corr:   -0.175580510932707     
 End minimization
 Ecorr=   3315.11376005573     
 A_corr= -0.175580510932707     
 Ecorr_band=  -3315.28934056666     
 End Solvation calculations
RMM:  15    -0.249964834679E+03   -0.28885E-01   -0.81567E-02 16276   0.485E-01    0.276E+00
 Begin Solvation calculations
  rms_SCF =   0.684511497022602      tol =   6.845114970226021E-002
 Begin minimization
 Creating dielectric and ionic cavities
  area:      138.874598550189     
  volume:    733.599653600035     
  Acav:     7.290916423884944E-002
  Solving linear dielectric/ionic screening model
        iter                  A_solv                     rms
   LPB:       -0.296549904219802E+00   0.109429263296407E+01
   LPB:    0  -0.296442858131921E+00   0.119290054691525E+01   0.262339E-02   0.000000E+00   0.311081E+02   0.816089E-01
   LPB:    1  -0.269057436389433E+00   0.443463644163577E+00   0.150674E-01   0.000000E+00   0.125630E+03  -0.286378E-18
   LPB:    2  -0.265750173309372E+00   0.152380711869454E+00   0.155235E-01   0.117219E+00   0.139738E+03   0.449876E-14
   LPB:    3  -0.264892656828807E+00   0.566004128821245E-01   0.220670E-01   0.182398E+00   0.127796E+03   0.517438E-14
   LPB:    4  -0.264483628364107E+00   0.580741275808007E-01   0.331606E-01   0.317418E+00   0.425810E+03   0.643856E-14
  Finished solving LPB equations
  A_corr:   -0.191574464125258     
 End minimization
 Ecorr=   3301.87576351330     
 A_corr= -0.191574464125258     
 Ecorr_band=  -3302.06733797742     
 End Solvation calculations
RMM:  16    -0.249922667610E+03    0.42167E-01   -0.36329E-02 16275   0.300E-01    0.148E+00
 Begin Solvation calculations
  rms_SCF =   0.636193639198440      tol =   6.361936391984403E-002
 Begin minimization
 Creating dielectric and ionic cavities
  area:      139.161186971289     
  volume:    732.104845770280     
  Acav:     7.305962315992651E-002
  Solving linear dielectric/ionic screening model
        iter                  A_solv                     rms
   LPB:       -0.281576863276126E+00   0.735114458027491E+00
   LPB:    0  -0.280945732025849E+00   0.811022705586177E+00   0.636281E-02   0.000000E+00   0.311782E+02   0.198381E+00
   LPB:    1  -0.274622782286137E+00   0.378473311724462E+00   0.114789E-01   0.000000E+00   0.131825E+03   0.667376E-17
   LPB:    2  -0.273566212053369E+00   0.675292684435174E-01   0.138770E-01   0.138224E+00   0.113148E+03  -0.131504E-14
   LPB:    3  -0.273116839961517E+00   0.865388355625013E-01   0.304663E-01   0.193725E+00   0.175832E+03  -0.147020E-14
   LPB:    4  -0.272688158630824E+00   0.984781555699578E-01   0.325561E-01   0.892720E+00   0.665545E+02  -0.163238E-14
   LPB:    5  -0.272304338730468E+00   0.675336630099405E-01   0.294671E-01   0.989209E+00   0.239951E+03  -0.133724E-14
   LPB:    6  -0.271993803165184E+00   0.281134559200231E-01   0.372245E-01   0.640461E+00   0.649626E+02  -0.144242E-14
  Finished solving LPB equations
  A_corr:   -0.198934180005258     
 End minimization
 Ecorr=   3288.98278771310     
 A_corr= -0.198934180005258     
 Ecorr_band=  -3289.18172189310     
 End Solvation calculations
RMM:  17    -0.249914563459E+03    0.81042E-02   -0.21021E-02 16274   0.247E-01    0.140E+00
 Begin Solvation calculations
  rms_SCF =   0.636193639198440      tol =   6.361936391984403E-002
 Begin minimization
 Creating dielectric and ionic cavities
  area:      139.513160020440     
  volume:    730.559435851876     
  Acav:     7.324440901073126E-002
  Solving linear dielectric/ionic screening model
        iter                  A_solv                     rms
   LPB:       -0.289871707111623E+00   0.596896328836089E+00
   LPB:    0  -0.289860398662304E+00   0.626535470975989E+00   0.850720E-03   0.000000E+00   0.312507E+02   0.265856E-01
   LPB:    1  -0.281527041136756E+00   0.298512334780605E+00   0.147947E-01   0.000000E+00   0.153461E+03  -0.145383E-17
   LPB:    2  -0.280501174749685E+00   0.936379247731439E-01   0.149163E-01   0.122100E+00   0.991461E+02  -0.387227E-14
   LPB:    3  -0.280261051862713E+00   0.579721742752275E-01   0.195214E-01   0.178851E+00   0.197466E+03  -0.374118E-14
   LPB:    4  -0.280144221378313E+00   0.671502741107987E-01   0.237266E-01   0.400313E+00   0.119094E+03  -0.334734E-14
   LPB:    5  -0.280015311917917E+00   0.613507270137065E-01   0.295612E-01   0.885607E+00   0.201308E+03  -0.313714E-14
  Finished solving LPB equations
  A_corr:   -0.206770902907186     
 End minimization
 Ecorr=   3282.80615755421     
 A_corr= -0.206770902907186     
 Ecorr_band=  -3283.01292845712     
 End Solvation calculations
RMM:  18    -0.249908334341E+03    0.62291E-02   -0.63997E-03 16236   0.123E-01    0.104E+00
 Begin Solvation calculations
  rms_SCF =   0.636193639198440      tol =   6.361936391984403E-002
 Begin minimization
 Creating dielectric and ionic cavities
  area:      140.036894087800     
  volume:    728.581339615412     
  Acav:     7.351936939609510E-002
  Solving linear dielectric/ionic screening model
        iter                  A_solv                     rms
   LPB:       -0.313914298012442E+00   0.841556772223411E+00
   LPB:    0  -0.313799623721269E+00   0.932873177533840E+00   0.270505E-02   0.000000E+00   0.313434E+02   0.847854E-01
   LPB:    1  -0.296341756530239E+00   0.512705174368792E+00   0.143637E-01   0.000000E+00   0.153622E+03  -0.484230E-17
   LPB:    2  -0.294130059913765E+00   0.143967910373439E+00   0.140626E-01   0.129400E+00   0.843360E+02  -0.237086E-14
   LPB:    3  -0.293517993573297E+00   0.113120269722817E+00   0.206006E-01   0.188911E+00   0.246644E+03  -0.156888E-14
   LPB:    4  -0.293172602385611E+00   0.948411312759308E-01   0.224433E-01   0.517972E+00   0.997063E+02  -0.120526E-14
   LPB:    5  -0.292874821407528E+00   0.641216570540526E-01   0.284895E-01   0.679185E+00   0.221883E+03  -0.108060E-14
   LPB:    6  -0.292611571643687E+00   0.239772858337101E-01   0.374336E-01   0.672812E+00   0.815940E+02  -0.104299E-14
  Finished solving LPB equations
  A_corr:   -0.219092202247592     
 End minimization
 Ecorr=   3271.61279213692     
 A_corr= -0.219092202247592     
 Ecorr_band=  -3271.83188433916     
 End Solvation calculations
RMM:  19    -0.249902863557E+03    0.54708E-02   -0.59846E-03 16080   0.116E-01    0.652E-01
 Begin Solvation calculations
  rms_SCF =   0.636193639198440      tol =   6.361936391984403E-002
 Begin minimization
 Creating dielectric and ionic cavities
  area:      140.190249200377     
  volume:    728.129158845941     
  Acav:     7.359988083019781E-002
  Solving linear dielectric/ionic screening model
        iter                  A_solv                     rms
   LPB:       -0.298458220251768E+00   0.307995702731665E+00
   LPB:    0  -0.298457870399403E+00   0.312069395692105E+00   0.149361E-03   0.000000E+00   0.313646E+02   0.468465E-02
   LPB:    1  -0.296419196539319E+00   0.139462332492395E+00   0.150584E-01   0.000000E+00   0.162244E+03   0.274760E-18
   LPB:    2  -0.296164848856103E+00   0.596563567497531E-01   0.153239E-01   0.122599E+00   0.954156E+02   0.229641E-14
   LPB:    3  -0.296081842133387E+00   0.439355488868066E-01   0.223762E-01   0.223496E+00   0.135800E+03   0.274111E-14
   LPB:    4  -0.295976044107559E+00   0.707427578765296E-01   0.382085E-01   0.746433E+00   0.792414E+02   0.257661E-14
   LPB:    5  -0.295811190431512E+00   0.655301928184717E-01   0.330996E-01   0.179870E+01   0.130973E+03   0.239446E-14
   LPB:    6  -0.295659139925035E+00   0.212109585718401E-01   0.296161E-01   0.103082E+01   0.451900E+02   0.238881E-14
  Finished solving LPB equations
  A_corr:   -0.222059259094837     
 End minimization
 Ecorr=   3266.58117683888     
 A_corr= -0.222059259094837     
 Ecorr_band=  -3266.80323609798     
 End Solvation calculations
RMM:  20    -0.249904218113E+03   -0.13546E-02   -0.18884E-03 14006   0.664E-02    0.811E-01
 Begin Solvation calculations
  rms_SCF =   0.636193639198440      tol =   6.361936391984403E-002
 Begin minimization
 Creating dielectric and ionic cavities
  area:      140.414010783334     
  volume:    727.594686550821     
  Acav:     7.371735566125041E-002
  Solving linear dielectric/ionic screening model
        iter                  A_solv                     rms
   LPB:       -0.307248942373346E+00   0.673347730145104E+00
   LPB:    0  -0.307248927832880E+00   0.673920422506612E+00   0.304376E-04   0.000000E+00   0.313897E+02   0.955427E-03
   LPB:    1  -0.301403396188393E+00   0.153708969170748E+00   0.153276E-01   0.000000E+00   0.103252E+03   0.320092E-20
   LPB:    2  -0.300828385724115E+00   0.776383153970038E-01   0.146421E-01   0.102973E+00   0.194822E+03  -0.885751E-15
   LPB:    3  -0.300702725128363E+00   0.435582330444589E-01   0.186524E-01   0.171551E+00   0.101488E+03  -0.666673E-15
   LPB:    4  -0.300650185073908E+00   0.453989383247654E-01   0.218700E-01   0.356597E+00   0.243892E+03  -0.592706E-15
  Finished solving LPB equations
  A_corr:   -0.226932829412658     
 End minimization
 Ecorr=   3263.61683346089     
 A_corr= -0.226932829412658     
 Ecorr_band=  -3263.84376629031     
 End Solvation calculations
RMM:  21    -0.249901203235E+03    0.30149E-02   -0.13313E-03 13547   0.467E-02    0.451E-01
 Begin Solvation calculations
  rms_SCF =   0.636193639198440      tol =   6.361936391984403E-002
 Begin minimization
 Creating dielectric and ionic cavities
  area:      140.537395414966     
  volume:    727.385662954112     
  Acav:     7.378213259285697E-002
  Solving linear dielectric/ionic screening model
        iter                  A_solv                     rms
   LPB:       -0.305141451637178E+00   0.341416163125223E+00
   LPB:    0  -0.305139165378134E+00   0.333855379419506E+00  -0.381607E-03   0.000000E+00   0.313995E+02  -0.119823E-01
   LPB:    1  -0.303495127108214E+00   0.833994603143804E-01   0.154062E-01   0.000000E+00   0.117902E+03  -0.812139E-18
   LPB:    2  -0.303327781470443E+00   0.454750862736934E-01   0.166823E-01   0.940027E-01   0.124773E+03   0.219670E-15
   LPB:    3  -0.303250570515233E+00   0.326409293824266E-01   0.270719E-01   0.284316E+00   0.886698E+02   0.283919E-15
   LPB:    4  -0.303191846865775E+00   0.229551384581619E-01   0.326598E-01   0.630434E+00   0.127786E+03   0.367553E-15
  Finished solving LPB equations
  A_corr:   -0.229409714272918     
 End minimization
 Ecorr=   3262.32299342578     
 A_corr= -0.229409714272918     
 Ecorr_band=  -3262.55240314005     
 End Solvation calculations
RMM:  22    -0.249902490966E+03   -0.12877E-02   -0.70620E-04 13344   0.424E-02    0.567E-01
 Begin Solvation calculations
  rms_SCF =   0.636193639198440      tol =   6.361936391984403E-002
 Begin minimization
 Creating dielectric and ionic cavities
  area:      140.980489677057     
  volume:    726.699969560126     
  Acav:     7.401475708045499E-002
  Solving linear dielectric/ionic screening model
        iter                  A_solv                     rms
   LPB:       -0.338666507573844E+00   0.134972831363774E+01
   LPB:    0  -0.338651964778413E+00   0.133095109517038E+01  -0.961957E-03   0.000000E+00   0.314316E+02  -0.302359E-01
   LPB:    1  -0.316528125358787E+00   0.291772458000625E+00   0.153271E-01   0.000000E+00   0.100297E+03   0.999333E-18
   LPB:    2  -0.314451907388737E+00   0.143050498445658E+00   0.150482E-01   0.955849E-01   0.169017E+03   0.263742E-14
   LPB:    3  -0.313890570949190E+00   0.821335906214251E-01   0.213539E-01   0.190527E+00   0.966188E+02   0.445424E-14
   LPB:    4  -0.313622677668490E+00   0.971872848269161E-01   0.250918E-01   0.406148E+00   0.243196E+03   0.483511E-14
   LPB:    5  -0.313469037142614E+00   0.760126982816758E-01   0.213224E-01   0.674900E+00   0.833758E+02   0.435426E-14
   LPB:    6  -0.313328740530550E+00   0.274691001965183E-01   0.274113E-01   0.710309E+00   0.134023E+03   0.405481E-14
  Finished solving LPB equations
  A_corr:   -0.239313983450095     
 End minimization
 Ecorr=   3256.70723218580     
 A_corr= -0.239313983450095     
 Ecorr_band=  -3256.94654616925     
 End Solvation calculations
RMM:  23    -0.249903233397E+03   -0.74243E-03   -0.17075E-03 13563   0.544E-02    0.490E-01
 Begin Solvation calculations
  rms_SCF =   0.636193639198440      tol =   6.361936391984403E-002
 Begin minimization
 Creating dielectric and ionic cavities
  area:      141.218224106613     
  volume:    726.415666782765     
  Acav:     7.413956765597202E-002
  Solving linear dielectric/ionic screening model
        iter                  A_solv                     rms
   LPB:       -0.326349691037546E+00   0.757653383938085E+00
   LPB:    0  -0.326343689771978E+00   0.747296730282063E+00  -0.617819E-03   0.000000E+00   0.314449E+02  -0.194273E-01
   LPB:    1  -0.319978271061074E+00   0.145257750240792E+00   0.152828E-01   0.000000E+00   0.938199E+02  -0.742689E-18
   LPB:    2  -0.319371231054680E+00   0.887128496206001E-01   0.150183E-01   0.970450E-01   0.220155E+03   0.158775E-14
   LPB:    3  -0.319214268036022E+00   0.551768458039386E-01   0.194819E-01   0.199328E+00   0.861561E+02   0.157186E-14
   LPB:    4  -0.319100288665250E+00   0.719155231825328E-01   0.281736E-01   0.502133E+00   0.195255E+03   0.213456E-14
   LPB:    5  -0.318984577181392E+00   0.615299501906259E-01   0.281620E-01   0.101561E+01   0.676670E+02   0.277804E-14
  Finished solving LPB equations
  A_corr:   -0.244845009525420     
 End minimization
 Ecorr=   3254.28250452006     
 A_corr= -0.244845009525420     
 Ecorr_band=  -3254.52734952959     
 End Solvation calculations
RMM:  24    -0.249903856588E+03   -0.62319E-03   -0.81338E-04 13019   0.403E-02    0.485E-01
 Begin Solvation calculations
  rms_SCF =   0.636193639198440      tol =   6.361936391984403E-002
 Begin minimization
 Creating dielectric and ionic cavities
  area:      141.535245214367     
  volume:    726.191264471617     
  Acav:     7.430600373754286E-002
  Solving linear dielectric/ionic screening model
        iter                  A_solv                     rms
   LPB:       -0.342203177123613E+00   0.122624488227405E+01
   LPB:    0  -0.342138582709348E+00   0.118791388188260E+01  -0.202658E-02   0.000000E+00   0.314555E+02  -0.637471E-01
   LPB:    1  -0.328913648518717E+00   0.234293752874290E+00   0.149709E-01   0.000000E+00   0.793529E+02  -0.125818E-17
   LPB:    2  -0.327735684463503E+00   0.127315106951820E+00   0.138203E-01   0.964867E-01   0.224794E+03   0.222246E-14
   LPB:    3  -0.327436885061338E+00   0.725634626149283E-01   0.189077E-01   0.185408E+00   0.947133E+02   0.265468E-14
   LPB:    4  -0.327257405598926E+00   0.822420252547398E-01   0.247069E-01   0.459678E+00   0.173269E+03   0.254223E-14
   LPB:    5  -0.327105232443463E+00   0.575850180556394E-01   0.270347E-01   0.774857E+00   0.768318E+02   0.247780E-14
  Finished solving LPB equations
  A_corr:   -0.252799228705921     
 End minimization
 Ecorr=   3250.75812124016     
 A_corr= -0.252799228705921     
 Ecorr_band=  -3251.01092046886     
 End Solvation calculations
RMM:  25    -0.249904605849E+03   -0.74926E-03   -0.10110E-03 12962   0.393E-02    0.386E-01
 Begin Solvation calculations
  rms_SCF =   0.636193639198440      tol =   6.361936391984403E-002
 Begin minimization
 Creating dielectric and ionic cavities
  area:      141.663803083590     
  volume:    726.166046836959     
  Acav:     7.437349661888500E-002
  Solving linear dielectric/ionic screening model
        iter                  A_solv                     rms
   LPB:       -0.334027462783590E+00   0.634528731164220E+00
   LPB:    0  -0.334002459033071E+00   0.610679332790502E+00  -0.126084E-02   0.000000E+00   0.314566E+02  -0.396619E-01
   LPB:    1  -0.331076868826629E+00   0.127405826065882E+00   0.146316E-01   0.000000E+00   0.694230E+02   0.161448E-17
   LPB:    2  -0.330801497347724E+00   0.646606159175180E-01   0.131123E-01   0.105031E+00   0.235980E+03  -0.309673E-14
   LPB:    3  -0.330704170224293E+00   0.463598221199719E-01   0.225678E-01   0.205354E+00   0.913186E+02  -0.355439E-14
   LPB:    4  -0.330581689577613E+00   0.693941322174452E-01   0.367032E-01   0.773784E+00   0.891845E+02  -0.373669E-14
   LPB:    5  -0.330443396176234E+00   0.501732580033407E-01   0.302904E-01   0.136815E+01   0.644393E+02  -0.377894E-14
  Finished solving LPB equations
  A_corr:   -0.256069899557349     
 End minimization
 Ecorr=   3248.58574587967     
 A_corr= -0.256069899557349     
 Ecorr_band=  -3248.84181577923     
 End Solvation calculations
RMM:  26    -0.249905580191E+03   -0.97434E-03   -0.29965E-04 10954   0.261E-02    0.479E-01
 Begin Solvation calculations
  rms_SCF =   0.636193639198440      tol =   6.361936391984403E-002
 Begin minimization
 Creating dielectric and ionic cavities
  area:      141.817458804776     
  volume:    726.169793225907     
  Acav:     7.445416587250756E-002
  Solving linear dielectric/ionic screening model
        iter                  A_solv                     rms
   LPB:       -0.341710001391719E+00   0.985063105725799E+00
   LPB:    0  -0.341628590084466E+00   0.948269912513151E+00  -0.227511E-02   0.000000E+00   0.314565E+02  -0.715669E-01
   LPB:    1  -0.335976169882890E+00   0.213619373775930E+00   0.138329E-01   0.000000E+00   0.634458E+02  -0.105280E-17
   LPB:    2  -0.335406242740294E+00   0.752335907544579E-01   0.118027E-01   0.118172E+00   0.256271E+03  -0.104419E-14
   LPB:    3  -0.335289832698774E+00   0.312888448957666E-01   0.179037E-01   0.134651E+00   0.137121E+03  -0.115082E-14
   LPB:    4  -0.335225271642144E+00   0.426854265955859E-01   0.293213E-01   0.338642E+00   0.113003E+03  -0.112638E-14
  Finished solving LPB equations
  A_corr:   -0.260771105769637     
 End minimization
 Ecorr=   3246.43604894943     
 A_corr= -0.260771105769637     
 Ecorr_band=  -3246.69682005520     
 End Solvation calculations
RMM:  27    -0.249904852715E+03    0.72748E-03   -0.49917E-04 11776   0.234E-02    0.212E-01
 Begin Solvation calculations
  rms_SCF =   0.372387184909393      tol =   3.723871849093933E-002
 Begin minimization
 Creating dielectric and ionic cavities
  area:      141.961320744308     
  volume:    726.218755043930     
  Acav:     7.452969339076178E-002
  Solving linear dielectric/ionic screening model
        iter                  A_solv                     rms
   LPB:       -0.346421938708728E+00   0.983471529750997E+00
   LPB:    0  -0.346320262020139E+00   0.951650466162065E+00  -0.254265E-02   0.000000E+00   0.314542E+02  -0.799769E-01
   LPB:    1  -0.340840809964471E+00   0.208356325360378E+00   0.137557E-01   0.000000E+00   0.629915E+02   0.124880E-17
   LPB:    2  -0.340290276120576E+00   0.873030929416588E-01   0.121098E-01   0.114128E+00   0.241587E+03   0.129327E-15
   LPB:    3  -0.340118937680951E+00   0.307030853700422E-01   0.204786E-01   0.184039E+00   0.110203E+03   0.389947E-16
   LPB:    4  -0.340001455663100E+00   0.426780388658516E-01   0.337726E-01   0.415768E+00   0.133189E+03   0.576167E-16
   LPB:    5  -0.339911351729284E+00   0.492004285130901E-01   0.306667E-01   0.844637E+00   0.915649E+02   0.904075E-16
   LPB:    6  -0.339829819543902E+00   0.255220337338985E-01   0.309016E-01   0.897991E+00   0.797193E+02   0.138700E-15
  Finished solving LPB equations
  A_corr:   -0.265300126153140     
 End minimization
 Ecorr=   3244.48864044309     
 A_corr= -0.265300126153140     
 Ecorr_band=  -3244.75394056925     
 End Solvation calculations
RMM:  28    -0.249905413236E+03   -0.56052E-03   -0.29905E-04 10839   0.231E-02    0.243E-01
 Begin Solvation calculations
  rms_SCF =   0.372387184909393      tol =   3.723871849093933E-002
 Begin minimization
 Creating dielectric and ionic cavities
  area:      142.037834194693     
  volume:    726.291597210364     
  Acav:     7.456986295221391E-002
  Solving linear dielectric/ionic screening model
        iter                  A_solv                     rms
   LPB:       -0.345631647165884E+00   0.713067440682914E+00
   LPB:    0  -0.345566363993777E+00   0.688803109714958E+00  -0.203751E-02   0.000000E+00   0.314508E+02  -0.640813E-01
   LPB:    1  -0.343034385342620E+00   0.148304211746798E+00   0.130880E-01   0.000000E+00   0.614953E+02  -0.564921E-17
   LPB:    2  -0.342760437601059E+00   0.507603849530092E-01   0.118722E-01   0.119274E+00   0.249108E+03  -0.406243E-16
   LPB:    3  -0.342703192156743E+00   0.129256380326579E-01   0.175641E-01   0.141247E+00   0.144742E+03  -0.472757E-16
   LPB:    4  -0.342671833145709E+00   0.216333020360097E-01   0.382771E-01   0.251366E+00   0.145617E+03  -0.625043E-16
  Finished solving LPB equations
  A_corr:   -0.268101970193495     
 End minimization
 Ecorr=   3243.72087997724     
 A_corr= -0.268101970193495     
 Ecorr_band=  -3243.98898194744     
 End Solvation calculations
RMM:  29    -0.249905390989E+03    0.22247E-04   -0.21577E-04 10388   0.161E-02
 Begin Solvation calculations
  rms_SCF =   0.372387184909393      tol =   3.723871849093933E-002
 Begin minimization
 Creating dielectric and ionic cavities
  area:      142.081025503947     
  volume:    726.377162274834     
  Acav:     7.459253838957226E-002
  Solving linear dielectric/ionic screening model
        iter                  A_solv                     rms
   LPB:       -0.346241903236394E+00   0.566012202461852E+00
   LPB:    0  -0.346198208545302E+00   0.547678139775337E+00  -0.166702E-02   0.000000E+00   0.314467E+02  -0.524224E-01
   LPB:    1  -0.344768080269291E+00   0.112801859914052E+00   0.125604E-01   0.000000E+00   0.597772E+02  -0.149150E-17
   LPB:    2  -0.344617234435086E+00   0.366127381238391E-01   0.115986E-01   0.114223E+00   0.234224E+03   0.568290E-16
   LPB:    3  -0.344575246692431E+00   0.122432180755349E-01   0.230344E-01   0.140159E+00   0.104070E+03   0.218016E-16
   LPB:    4  -0.344531875888478E+00   0.199706488084479E-01   0.471296E-01   0.504844E+00   0.860548E+02   0.120214E-15
  Finished solving LPB equations
  A_corr:   -0.269939337498906     
 End minimization
 Ecorr=   3242.97570157670     
 A_corr= -0.269939337498906     
 Ecorr_band=  -3243.24564091420     
 End Solvation calculations
   1 F= -.24990539E+03 E0= -.24990846E+03  d E =-.249905E+03
quench:  g(F)=  0.000E+00 g(S)=  0.000E+00 dE (1.order)= 0.000E+00
 bond charge predicted
       N       E                     dE             d eps       ncg     rms          rms(c)
 Begin Solvation calculations
  rms_SCF =   0.372387184909393      tol =   3.723871849093933E-002
 Begin minimization
 Creating dielectric and ionic cavities
  area:      142.081306048334     
  volume:    726.374746071003     
  Acav:     7.459268567537550E-002
  Solving linear dielectric/ionic screening model
        iter                  A_solv                     rms
   LPB:       -0.344563010446018E+00   0.199678442744446E-01
   LPB:    0  -0.344563010445985E+00   0.199697834963401E-01  -0.461393E-07   0.000000E+00   0.314469E+02  -0.145094E-05
   LPB:    1  -0.344499435094581E+00   0.139506230109761E-01   0.165735E-01   0.000000E+00   0.797371E+03  -0.160085E-22
   LPB:    2  -0.344481183697962E+00   0.224785555157761E-01   0.303602E-01   0.156718E+00   0.234394E+03  -0.371467E-16
   LPB:    3  -0.344461387713566E+00   0.215431616084379E-01   0.327538E-01   0.100536E+01   0.175841E+03   0.154456E-15
   LPB:    4  -0.344430477218608E+00   0.381057184183673E-01   0.424416E-01   0.120503E+01   0.105629E+03   0.273244E-15
   LPB:    5  -0.344407966376019E+00   0.290811623630886E-01   0.232018E-01   0.133216E+01   0.376932E+02   0.574128E-15
  Finished solving LPB equations
  A_corr:   -0.269815280700644     
 End minimization
 Ecorr=   3242.52485056843     
 A_corr= -0.269815280700644     
 Ecorr_band=  -3242.79466584913     
 End Solvation calculations
DAV:   1    -0.249905863466E+03   -0.45023E-03   -0.60049E-03 16716   0.264E-01    0.270E-01
 Begin Solvation calculations
  rms_SCF =   0.372387184909393      tol =   3.723871849093933E-002
 Begin minimization
 Creating dielectric and ionic cavities
  area:      142.001621980846     
  volume:    726.450095839234     
  Acav:     7.455085153994423E-002
  Solving linear dielectric/ionic screening model
        iter                  A_solv                     rms
   LPB:       -0.381777301057868E+00   0.351864984198806E+01
   LPB:    0  -0.381674327722990E+00   0.351196690716493E+01  -0.255925E-02   0.000000E+00   0.314433E+02  -0.804714E-01
   LPB:    1  -0.350237359825716E+00   0.355182234086351E+00   0.877717E-02   0.000000E+00   0.661081E+02  -0.426086E-17
   LPB:    2  -0.347324920599275E+00   0.642431934852004E-01   0.151102E-01   0.538146E-01   0.133303E+03  -0.479398E-15
   LPB:    3  -0.347002464697519E+00   0.208358891820158E-01   0.210694E-01   0.794022E-01   0.186722E+03  -0.594779E-15
   LPB:    4  -0.346918151908313E+00   0.114088442108488E-01   0.266066E-01   0.207055E+00   0.360124E+03  -0.540899E-15
  Finished solving LPB equations
  A_corr:   -0.272367300368369     
 End minimization
 Ecorr=   3241.85241374428     
 A_corr= -0.272367300368369     
 Ecorr_band=  -3242.12478104465     
 End Solvation calculations
RMM:   2    -0.250063873041E+03   -0.15801E+00   -0.20418E-02 16338   0.213E-01    0.455E+00
 Begin Solvation calculations
  rms_SCF =   0.372387184909393      tol =   3.723871849093933E-002
 Begin minimization
 Creating dielectric and ionic cavities
  area:      142.122629660997     
  volume:    726.494484467038     
  Acav:     7.461438057202362E-002
  Solving linear dielectric/ionic screening model
        iter                  A_solv                     rms
   LPB:       -0.370335314908375E+00   0.305852784075679E+01
   LPB:    0  -0.370266883735226E+00   0.305309536069077E+01   0.208637E-02   0.000000E+00   0.314412E+02   0.655982E-01
   LPB:    1  -0.346777067090662E+00   0.291286859664868E+00   0.861753E-02   0.000000E+00   0.678054E+02   0.473455E-18
   LPB:    2  -0.344739142522572E+00   0.457209319197804E-01   0.157870E-01   0.473577E-01   0.126314E+03  -0.229774E-16
   LPB:    3  -0.344538771217074E+00   0.137329877700618E-01   0.200187E-01   0.775377E-01   0.266245E+03  -0.656351E-17
   LPB:    4  -0.344500538897906E+00   0.574758928487331E-02   0.241620E-01   0.158087E+00   0.639733E+03  -0.426679E-16
  Finished solving LPB equations
  A_corr:   -0.269886158325883     
 End minimization
 Ecorr=   3242.24744369417     
 A_corr= -0.269886158325883     
 Ecorr_band=  -3242.51732985250     
 End Solvation calculations
RMM:   3    -0.249906895191E+03    0.15698E+00   -0.15339E-02 16263   0.189E-01    0.303E-01
 Begin Solvation calculations
  rms_SCF =   0.369975656743885      tol =   3.699756567438854E-002
 Begin minimization
 Creating dielectric and ionic cavities
  area:      142.069423795596     
  volume:    726.448615015186     
  Acav:     7.458644749268800E-002
  Solving linear dielectric/ionic screening model
        iter                  A_solv                     rms
   LPB:       -0.344981693177216E+00   0.163331717608600E+00
   LPB:    0  -0.344926701863798E+00   0.865987540419108E-01  -0.187024E-02   0.000000E+00   0.314434E+02  -0.588067E-01
   LPB:    1  -0.344885069367141E+00   0.171169680395320E-01   0.114679E-01   0.000000E+00   0.690596E+02  -0.179461E-17
   LPB:    2  -0.344877779412756E+00   0.962630849480675E-02   0.163640E-01   0.122712E+00   0.318385E+03  -0.346180E-16
   LPB:    3  -0.344873829802635E+00   0.988139757010392E-02   0.235391E-01   0.376641E+00   0.342498E+03  -0.345100E-16
   LPB:    4  -0.344870565833186E+00   0.886491871545548E-02   0.331958E-01   0.586002E+00   0.112919E+03  -0.428374E-16
  Finished solving LPB equations
  A_corr:   -0.270284118340498     
 End minimization
 Ecorr=   3242.64266856752     
 A_corr= -0.270284118340498     
 Ecorr_band=  -3242.91295268586     
 End Solvation calculations
RMM:   4    -0.249905770048E+03    0.11251E-02   -0.87090E-04 13474   0.545E-02    0.158E-01
 Begin Solvation calculations
  rms_SCF =   0.235844590551519      tol =   2.358445905515190E-002
 Begin minimization
 Creating dielectric and ionic cavities
  area:      142.058225669112     
  volume:    726.525201580619     
  Acav:     7.458056847628383E-002
  Solving linear dielectric/ionic screening model
        iter                  A_solv                     rms
   LPB:       -0.345420143715693E+00   0.280600724140480E+00
   LPB:    0  -0.345417396499330E+00   0.278733240949720E+00  -0.418044E-03   0.000000E+00   0.314398E+02  -0.131432E-01
   LPB:    1  -0.345125107237237E+00   0.435174861544264E-01   0.105209E-01   0.000000E+00   0.677697E+02   0.135672E-18
   LPB:    2  -0.345098845662074E+00   0.116342116396761E-01   0.114251E-01   0.827370E-01   0.233368E+03   0.163853E-16
   LPB:    3  -0.345095268425537E+00   0.238902831667364E-02   0.199098E-01   0.781667E-01   0.945945E+02   0.921122E-17
   LPB:    4  -0.345093618805718E+00   0.316261217700596E-02   0.371953E-01   0.246839E+00   0.242133E+03  -0.477348E-16
  Finished solving LPB equations
  A_corr:   -0.270513050329434     
 End minimization
 Ecorr=   3242.41328238181     
 A_corr= -0.270513050329434     
 Ecorr_band=  -3242.68379543214     
 End Solvation calculations
RMM:   5    -0.249905851639E+03   -0.81591E-04   -0.14233E-04  9520   0.221E-02
 Begin Solvation calculations
  rms_SCF =   0.235844590551519      tol =   2.358445905515190E-002
 Begin minimization
 Creating dielectric and ionic cavities
  area:      142.059258192064     
  volume:    726.534602217155     
  Acav:     7.458111055083334E-002
  Solving linear dielectric/ionic screening model
        iter                  A_solv                     rms
   LPB:       -0.345180474186895E+00   0.906393637242248E-01
   LPB:    0  -0.345177322194409E+00   0.831412980223416E-01  -0.447786E-03   0.000000E+00   0.314394E+02  -0.140781E-01
   LPB:    1  -0.345151396730946E+00   0.128562540040234E-01   0.105369E-01   0.000000E+00   0.655387E+02  -0.564792E-19
   LPB:    2  -0.345148883841406E+00   0.351363119540852E-02   0.118833E-01   0.859457E-01   0.238637E+03   0.350586E-16
   LPB:    3  -0.345147946491368E+00   0.295819732148941E-02   0.350791E-01   0.126362E+00   0.951568E+02   0.426687E-16
   LPB:    4  -0.345145963364168E+00   0.653738310058775E-02   0.637497E-01   0.116418E+01   0.507927E+02   0.391749E-16
  Finished solving LPB equations
  A_corr:   -0.270564852813335     
 End minimization
 Ecorr=   3242.24062314678     
 A_corr= -0.270564852813335     
 Ecorr_band=  -3242.51118799959     
 End Solvation calculations
   2 F= -.24990585E+03 E0= -.24990889E+03  d E =-.460650E-03
quench:  g(F)=  0.000E+00 g(S)=  0.000E+00 dE (1.order)= 0.000E+00
 bond charge predicted
       N       E                     dE             d eps       ncg     rms          rms(c)
 Begin Solvation calculations
  rms_SCF =   0.235844590551519      tol =   2.358445905515190E-002
 Begin minimization
 Creating dielectric and ionic cavities
  area:      142.063438702311     
  volume:    726.536246574850     
  Acav:     7.458330531871311E-002
  Solving linear dielectric/ionic screening model
        iter                  A_solv                     rms
   LPB:       -0.345213369669797E+00   0.654133190115881E-02
   LPB:    0  -0.345213369669151E+00   0.653203091100788E-02   0.202679E-06   0.000000E+00   0.314393E+02   0.637209E-05
   LPB:    1  -0.345147445267852E+00   0.324788116467800E-02   0.152968E-01   0.000000E+00   0.847212E+04  -0.401698E-21
   LPB:    2  -0.345141158502257E+00   0.526760986138362E-02   0.264436E-01   0.551646E-01   0.160185E+04   0.334457E-17
   LPB:    3  -0.345139100943459E+00   0.704129041414257E-02   0.263847E-01   0.328015E+00   0.209636E+03   0.154242E-16
   LPB:    4  -0.345137878997598E+00   0.433343585089154E-02   0.234652E-01   0.667771E+00   0.170372E+03   0.293515E-16
  Finished solving LPB equations
  A_corr:   -0.270554573678885     
 End minimization
 Ecorr=   3242.29143931262     
 A_corr= -0.270554573678885     
 Ecorr_band=  -3242.56199388630     
 End Solvation calculations
DAV:   1    -0.249905873848E+03   -0.10380E-03   -0.42353E-03 15411   0.146E-01    0.128E-01
 Begin Solvation calculations
  rms_SCF =   0.232530039022676      tol =   2.325300390226756E-002
 Begin minimization
 Creating dielectric and ionic cavities
  area:      142.040686686684     
  volume:    726.547401647945     
  Acav:     7.457136051050921E-002
  Solving linear dielectric/ionic screening model
        iter                  A_solv                     rms
   LPB:       -0.353969015474321E+00   0.162280703519465E+01
   LPB:    0  -0.353876286072851E+00   0.161044615780269E+01  -0.242880E-02   0.000000E+00   0.314388E+02  -0.763583E-01
   LPB:    1  -0.347223975272410E+00   0.165463131856313E+00   0.882102E-02   0.000000E+00   0.657372E+02  -0.499817E-17
   LPB:    2  -0.346602234265471E+00   0.286821027356629E-01   0.149125E-01   0.552849E-01   0.134392E+03   0.354297E-15
   LPB:    3  -0.346536059588249E+00   0.812997993290371E-02   0.205449E-01   0.772553E-01   0.205759E+03   0.223181E-15
   LPB:    4  -0.346518999953658E+00   0.546313432880753E-02   0.270029E-01   0.196142E+00   0.325345E+03   0.350650E-15
  Finished solving LPB equations
  A_corr:   -0.271947639443149     
 End minimization
 Ecorr=   3242.14644689756     
 A_corr= -0.271947639443149     
 Ecorr_band=  -3242.41839453700     
 End Solvation calculations
RMM:   2    -0.249937113217E+03   -0.31239E-01   -0.41608E-03 15682   0.990E-02    0.204E+00
 Begin Solvation calculations
  rms_SCF =   0.232530039022676      tol =   2.325300390226756E-002
 Begin minimization
 Creating dielectric and ionic cavities
  area:      142.076955364829     
  volume:    726.577791258866     
  Acav:     7.459040156653497E-002
  Solving linear dielectric/ionic screening model
        iter                  A_solv                     rms
   LPB:       -0.350720631832144E+00   0.138983671852417E+01
   LPB:    0  -0.350695635564360E+00   0.138555406294182E+01   0.126104E-02   0.000000E+00   0.314373E+02   0.396438E-01
   LPB:    1  -0.345857272838979E+00   0.132394182840304E+00   0.861711E-02   0.000000E+00   0.677851E+02  -0.326436E-17
   LPB:    2  -0.345435788743752E+00   0.198338991010410E-01   0.158279E-01   0.474266E-01   0.125506E+03  -0.122365E-15
   LPB:    3  -0.345394413695170E+00   0.571717209317451E-02   0.200287E-01   0.775760E-01   0.295050E+03  -0.177281E-15
   LPB:    4  -0.345386467271969E+00   0.274674352257512E-02   0.242275E-01   0.158773E+00   0.689090E+03  -0.165152E-15
  Finished solving LPB equations
  A_corr:   -0.270796065705434     
 End minimization
 Ecorr=   3242.27100395844     
 A_corr= -0.270796065705434     
 Ecorr_band=  -3242.54180002414     
 End Solvation calculations
RMM:   3    -0.249906276429E+03    0.30837E-01   -0.32566E-03 14968   0.879E-02    0.175E-01
 Begin Solvation calculations
  rms_SCF =   0.232530039022676      tol =   2.325300390226756E-002
 Begin minimization
 Creating dielectric and ionic cavities
  area:      142.063863734201     
  volume:    726.589231124145     
  Acav:     7.458352846045571E-002
  Solving linear dielectric/ionic screening model
        iter                  A_solv                     rms
   LPB:       -0.345492238517805E+00   0.876182668122751E-01
   LPB:    0  -0.345492223319703E+00   0.875124945555888E-01  -0.310950E-04   0.000000E+00   0.314368E+02  -0.977527E-03
   LPB:    1  -0.345466238016331E+00   0.120473538351742E-01   0.987088E-02   0.000000E+00   0.694024E+02   0.500645E-19
   LPB:    2  -0.345462810009342E+00   0.309707215189041E-02   0.142313E-01   0.915007E-01   0.253664E+03   0.212329E-16
   LPB:    3  -0.345461765037995E+00   0.233338509001852E-02   0.248802E-01   0.174363E+00   0.308471E+03   0.134541E-16
   LPB:    4  -0.345461033145788E+00   0.152624529612802E-02   0.439628E-01   0.396380E+00   0.332891E+03   0.288693E-16
  Finished solving LPB equations
  A_corr:   -0.270877504685332     
 End minimization
 Ecorr=   3242.15113345615     
 A_corr= -0.270877504685332     
 Ecorr_band=  -3242.42201096083     
 End Solvation calculations
RMM:   4    -0.249906031870E+03    0.24456E-03   -0.22058E-04 10538   0.284E-02    0.118E-01
 Begin Solvation calculations
  rms_SCF =   0.179946522301681      tol =   1.799465223016815E-002
 Begin minimization
 Creating dielectric and ionic cavities
  area:      142.063505143011     
  volume:    726.614611964039     
  Acav:     7.458334020008063E-002
  Solving linear dielectric/ionic screening model
        iter                  A_solv                     rms
   LPB:       -0.345896099456362E+00   0.197270105696392E+00
   LPB:    0  -0.345885284048672E+00   0.184660698064821E+00  -0.829517E-03   0.000000E+00   0.314356E+02  -0.260764E-01
   LPB:    1  -0.345762987089631E+00   0.282572922529197E-01   0.104257E-01   0.000000E+00   0.641682E+02  -0.137150E-17
   LPB:    2  -0.345751194020649E+00   0.689196705879462E-02   0.116941E-01   0.859707E-01   0.214985E+03   0.244466E-16
   LPB:    3  -0.345749739823883E+00   0.181747664674580E-02   0.188372E-01   0.765503E-01   0.130094E+03   0.358395E-17
   LPB:    4  -0.345749260825367E+00   0.188725557244651E-02   0.323768E-01   0.191643E+00   0.995415E+02   0.584367E-17
  Finished solving LPB equations
  A_corr:   -0.271165920625286     
 End minimization
 Ecorr=   3242.04492156531     
 A_corr= -0.271165920625286     
 Ecorr_band=  -3242.31608748593     
 End Solvation calculations
RMM:   5    -0.249906050783E+03   -0.18913E-04   -0.37624E-05  8670   0.124E-02
 Begin Solvation calculations
  rms_SCF =   0.179946522301681      tol =   1.799465223016815E-002
 Begin minimization
 Creating dielectric and ionic cavities
  area:      142.064187396712     
  volume:    726.623718152758     
  Acav:     7.458369838327386E-002
  Solving linear dielectric/ionic screening model
        iter                  A_solv                     rms
   LPB:       -0.345862343077209E+00   0.606867710135804E-01
   LPB:    0  -0.345861540719563E+00   0.577390616030298E-01  -0.225939E-03   0.000000E+00   0.314352E+02  -0.710243E-02
   LPB:    1  -0.345849343273078E+00   0.906340957789113E-02   0.104588E-01   0.000000E+00   0.654956E+02  -0.414267E-18
   LPB:    2  -0.345848163471963E+00   0.255343202925192E-02   0.118173E-01   0.856054E-01   0.204714E+03  -0.170549E-16
   LPB:    3  -0.345847864352510E+00   0.107713928544731E-02   0.280414E-01   0.106845E+00   0.771137E+02  -0.242333E-16
   LPB:    4  -0.345847431680259E+00   0.135017165425126E-02   0.586066E-01   0.692099E+00   0.571057E+02  -0.232636E-16
  Finished solving LPB equations
  A_corr:   -0.271263733296986     
 End minimization
 Ecorr=   3241.92160479006     
 A_corr= -0.271263733296986     
 Ecorr_band=  -3242.19286852335     
 End Solvation calculations
   3 F= -.24990605E+03 E0= -.24990912E+03  d E =-.199144E-03
quench:  g(F)=  0.000E+00 g(S)=  0.000E+00 dE (1.order)= 0.000E+00
 bond charge predicted
       N       E                     dE             d eps       ncg     rms          rms(c)
 Begin Solvation calculations
  rms_SCF =   0.179946522301681      tol =   1.799465223016815E-002
 Begin minimization
 Creating dielectric and ionic cavities
  area:      142.075408282462     
  volume:    726.624217499902     
  Acav:     7.458958934829264E-002
  Solving linear dielectric/ionic screening model
        iter                  A_solv                     rms
   LPB:       -0.346011952698698E+00   0.189626408575610E-02
   LPB:    0  -0.346011952698682E+00   0.189724610096100E-02  -0.316156E-07   0.000000E+00   0.314352E+02  -0.993842E-06
   LPB:    1  -0.345882574242231E+00   0.807077496984258E-03   0.151956E-01   0.000000E+00   0.248995E+06  -0.645210E-22
   LPB:    2  -0.345870894318393E+00   0.864373932176972E-03   0.268257E-01   0.511381E-01   0.474944E+05   0.961121E-18
   LPB:    3  -0.345867057444274E+00   0.179030935448312E-02   0.332311E-01   0.265182E+00   0.112955E+05   0.703123E-18
   LPB:    4  -0.345865298133441E+00   0.514753238501193E-02   0.350594E-01   0.434615E+00   0.926735E+03  -0.245856E-18
  Finished solving LPB equations
  A_corr:   -0.271275708785148     
 End minimization
 Ecorr=   3241.91606194394     
 A_corr= -0.271275708785148     
 Ecorr_band=  -3242.18733765273     
 End Solvation calculations
DAV:   1    -0.249906095517E+03   -0.63647E-04   -0.84652E-03 16515   0.218E-01    0.870E-02
 Begin Solvation calculations
  rms_SCF =   0.157512940040607      tol =   1.575129400406074E-002
 Begin minimization
 Creating dielectric and ionic cavities
  area:      142.060569404245     
  volume:    726.622941506076     
  Acav:     7.458179893722848E-002
  Solving linear dielectric/ionic screening model
        iter                  A_solv                     rms
   LPB:       -0.350326716530639E+00   0.110192458032626E+01
   LPB:    0  -0.350283972753032E+00   0.109308858863065E+01  -0.164909E-02   0.000000E+00   0.314352E+02  -0.518394E-01
   LPB:    1  -0.347227852089920E+00   0.111829479459165E+00   0.879070E-02   0.000000E+00   0.659734E+02  -0.238103E-17
   LPB:    2  -0.346945691599788E+00   0.190426994863699E-01   0.150202E-01   0.540348E-01   0.131143E+03  -0.306843E-15
   LPB:    3  -0.346915660928999E+00   0.553642942755096E-02   0.205333E-01   0.778549E-01   0.210690E+03  -0.420970E-15
   LPB:    4  -0.346907687958841E+00   0.399413195831504E-02   0.272638E-01   0.199953E+00   0.310615E+03  -0.448085E-15
  Finished solving LPB equations
  A_corr:   -0.272325889021613     
 End minimization
 Ecorr=   3241.73299906592     
 A_corr= -0.272325889021613     
 Ecorr_band=  -3242.00532495494     
 End Solvation calculations
RMM:   2    -0.249920463077E+03   -0.14368E-01   -0.23052E-03 14546   0.765E-02    0.138E+00
 Begin Solvation calculations
  rms_SCF =   0.157512940040607      tol =   1.575129400406074E-002
 Begin minimization
 Creating dielectric and ionic cavities
  area:      142.083269978593     
  volume:    726.642109645651     
  Acav:     7.459371673876129E-002
  Solving linear dielectric/ionic screening model
        iter                  A_solv                     rms
   LPB:       -0.348580104702542E+00   0.938484209404347E+00
   LPB:    0  -0.348569909200253E+00   0.935859854080095E+00   0.805410E-03   0.000000E+00   0.314343E+02   0.253175E-01
   LPB:    1  -0.346362549840353E+00   0.893455906664058E-01   0.861704E-02   0.000000E+00   0.677918E+02   0.448255E-18
   LPB:    2  -0.346170564744904E+00   0.133769981939380E-01   0.158255E-01   0.473583E-01   0.125638E+03   0.396500E-16
   LPB:    3  -0.346151587498727E+00   0.393333259911575E-02   0.200727E-01   0.779322E-01   0.296294E+03   0.225300E-16
   LPB:    4  -0.346147881387167E+00   0.188048659109911E-02   0.244188E-01   0.160534E+00   0.681645E+03   0.162022E-16
  Finished solving LPB equations
  A_corr:   -0.271554164648405     
 End minimization
 Ecorr=   3241.82043549052     
 A_corr= -0.271554164648405     
 Ecorr_band=  -3242.09198965516     
 End Solvation calculations
RMM:   3    -0.249906269242E+03    0.14194E-01   -0.14803E-03 13694   0.609E-02    0.984E-02
 Begin Solvation calculations
  rms_SCF =   0.157512940040607      tol =   1.575129400406074E-002
 Begin minimization
 Creating dielectric and ionic cavities
  area:      142.076100969159     
  volume:    726.651905068136     
  Acav:     7.458995300880844E-002
  Solving linear dielectric/ionic screening model
        iter                  A_solv                     rms
   LPB:       -0.346347738943430E+00   0.810991860935839E-01
   LPB:    0  -0.346347195407508E+00   0.790517999751626E-01  -0.185965E-03   0.000000E+00   0.314339E+02  -0.584559E-02
   LPB:    1  -0.346325883433400E+00   0.117125019684511E-01   0.100471E-01   0.000000E+00   0.662481E+02   0.106012E-18
   LPB:    2  -0.346323209241124E+00   0.272757073953418E-02   0.135091E-01   0.933221E-01   0.200974E+03  -0.526666E-16
   LPB:    3  -0.346322619917081E+00   0.143442752475926E-02   0.217842E-01   0.136661E+00   0.242270E+03  -0.549405E-16
   LPB:    4  -0.346322238921064E+00   0.109290152060684E-02   0.456277E-01   0.308660E+00   0.259357E+03  -0.559142E-16
  Finished solving LPB equations
  A_corr:   -0.271732285912256     
 End minimization
 Ecorr=   3241.67918142256     
 A_corr= -0.271732285912256     
 Ecorr_band=  -3241.95091370847     
 End Solvation calculations
RMM:   4    -0.249906224055E+03    0.45187E-04   -0.92846E-05  9052   0.200E-02
 Begin Solvation calculations
  rms_SCF =   0.157512940040607      tol =   1.575129400406074E-002
 Begin minimization
 Creating dielectric and ionic cavities
  area:      142.076141280898     
  volume:    726.660705153598     
  Acav:     7.458997417247119E-002
  Solving linear dielectric/ionic screening model
        iter                  A_solv                     rms
   LPB:       -0.346617700144944E+00   0.106163776114047E+00
   LPB:    0  -0.346613310204744E+00   0.960643705171482E-01  -0.528504E-03   0.000000E+00   0.314335E+02  -0.166127E-01
   LPB:    1  -0.346580776573037E+00   0.150206087659729E-01   0.103812E-01   0.000000E+00   0.624894E+02   0.466958E-19
   LPB:    2  -0.346577393301457E+00   0.358914431285944E-02   0.120512E-01   0.895825E-01   0.188017E+03  -0.927123E-16
   LPB:    3  -0.346576929544681E+00   0.131997119831523E-02   0.194436E-01   0.849582E-01   0.138596E+03  -0.117753E-15
   LPB:    4  -0.346576697142086E+00   0.175429120922872E-02   0.379821E-01   0.256536E+00   0.705340E+02  -0.129145E-15
  Finished solving LPB equations
  A_corr:   -0.271986722969615     
 End minimization
 Ecorr=   3241.57846555014     
 A_corr= -0.271986722969615     
 Ecorr_band=  -3241.85045227311     
 End Solvation calculations
   4 F= -.24990622E+03 E0= -.24990935E+03  d E =-.173272E-03
quench:  g(F)=  0.000E+00 g(S)=  0.000E+00 dE (1.order)= 0.000E+00
 bond charge predicted
       N       E                     dE             d eps       ncg     rms          rms(c)
 Begin Solvation calculations
  rms_SCF =   0.157512940040607      tol =   1.575129400406074E-002
 Begin minimization
 Creating dielectric and ionic cavities
  area:      142.079645436672     
  volume:    726.661304826856     
  Acav:     7.459181385425301E-002
  Solving linear dielectric/ionic screening model
        iter                  A_solv                     rms
   LPB:       -0.346765733432707E+00   0.217634488297084E-02
   LPB:    0  -0.346765733432596E+00   0.217356371412572E-02   0.838674E-07   0.000000E+00   0.314334E+02   0.263624E-05
   LPB:    1  -0.346599545640723E+00   0.122674999838199E-02   0.153164E-01   0.000000E+00   0.237627E+06   0.547732E-22
   LPB:    2  -0.346583659373398E+00   0.163402322618537E-02   0.272515E-01   0.537267E-01   0.216996E+05  -0.129557E-16
   LPB:    3  -0.346578310810342E+00   0.363920533534363E-02   0.329617E-01   0.278353E+00   0.405955E+04  -0.260631E-16
   LPB:    4  -0.346575927316689E+00   0.647664864711718E-02   0.323705E-01   0.453771E+00   0.306160E+03  -0.325395E-16
  Finished solving LPB equations
  A_corr:   -0.271984113462436     
 End minimization
 Ecorr=   3241.51600634994     
 A_corr= -0.271984113462436     
 Ecorr_band=  -3241.78799046340     
 End Solvation calculations
DAV:   1    -0.249906226077E+03    0.43165E-04   -0.10732E-02 16449   0.210E-01    0.603E-02
 Begin Solvation calculations
  rms_SCF =   9.535506368981857E-002 tol =   9.535506368981856E-003
 Begin minimization
 Creating dielectric and ionic cavities
  area:      142.074903618341     
  volume:    726.671300370669     
  Acav:     7.458932439962912E-002
  Solving linear dielectric/ionic screening model
        iter                  A_solv                     rms
   LPB:       -0.348471438830486E+00   0.674867628833650E+00
   LPB:    0  -0.348461121559448E+00   0.671186764536905E+00  -0.810223E-03   0.000000E+00   0.314330E+02  -0.254677E-01
   LPB:    1  -0.347304251019159E+00   0.682872296106168E-01   0.880309E-02   0.000000E+00   0.660914E+02  -0.164886E-17
   LPB:    2  -0.347199018213073E+00   0.120082912254626E-01   0.148564E-01   0.538997E-01   0.135069E+03   0.366175E-16
   LPB:    3  -0.347187637762895E+00   0.330266169467367E-02   0.206773E-01   0.777016E-01   0.197673E+03   0.449402E-16
   LPB:    4  -0.347184388461105E+00   0.198647916310908E-02   0.284181E-01   0.207744E+00   0.339039E+03   0.984251E-16
  Finished solving LPB equations
  A_corr:   -0.272595064061475     
 End minimization
 Ecorr=   3241.32850288258     
 A_corr= -0.272595064061475     
 Ecorr_band=  -3241.60109794664     
 End Solvation calculations
RMM:   2    -0.249911383761E+03   -0.51577E-02   -0.11038E-03 13713   0.554E-02    0.825E-01
 Begin Solvation calculations
  rms_SCF =   9.535506368981857E-002 tol =   9.535506368981856E-003
 Begin minimization
 Creating dielectric and ionic cavities
  area:      142.088289042138     
  volume:    726.680515656928     
  Acav:     7.459635174712231E-002
  Solving linear dielectric/ionic screening model
        iter                  A_solv                     rms
   LPB:       -0.347633019897952E+00   0.569980279710647E+00
   LPB:    0  -0.347630389754044E+00   0.568852038962515E+00   0.409086E-03   0.000000E+00   0.314325E+02   0.128586E-01
   LPB:    1  -0.346814964371158E+00   0.542669326538106E-01   0.861602E-02   0.000000E+00   0.678204E+02  -0.487308E-18
   LPB:    2  -0.346743886419404E+00   0.830570231698854E-02   0.158646E-01   0.473401E-01   0.125572E+03  -0.439927E-16
   LPB:    3  -0.346736621836814E+00   0.263986329086323E-02   0.203109E-01   0.798314E-01   0.286801E+03  -0.385557E-16
   LPB:    4  -0.346735047255928E+00   0.113536327692495E-02   0.255817E-01   0.172090E+00   0.646097E+03  -0.266675E-16
  Finished solving LPB equations
  A_corr:   -0.272138695508806     
 End minimization
 Ecorr=   3241.38718535370     
 A_corr= -0.272138695508806     
 Ecorr_band=  -3241.65932404921     
 End Solvation calculations
RMM:   3    -0.249906354194E+03    0.50296E-02   -0.56165E-04 12985   0.391E-02    0.897E-02
 Begin Solvation calculations
  rms_SCF =   9.535506368981857E-002 tol =   9.535506368981856E-003
 Begin minimization
 Creating dielectric and ionic cavities
  area:      142.086507837869     
  volume:    726.677618939695     
  Acav:     7.459541661488148E-002
  Solving linear dielectric/ionic screening model
        iter                  A_solv                     rms
   LPB:       -0.346875198678008E+00   0.521488444092433E-01
   LPB:    0  -0.346873714660352E+00   0.454263128470072E-01  -0.307287E-03   0.000000E+00   0.314327E+02  -0.965884E-02
   LPB:    1  -0.346866748059991E+00   0.663013722651519E-02   0.997256E-02   0.000000E+00   0.642204E+02  -0.318450E-18
   LPB:    2  -0.346865763919382E+00   0.180259846611822E-02   0.146010E-01   0.964852E-01   0.177753E+03   0.197299E-16
   LPB:    3  -0.346865434798937E+00   0.174238498630642E-02   0.253911E-01   0.192309E+00   0.323352E+03   0.178729E-16
   LPB:    4  -0.346865062289483E+00   0.296042288585649E-02   0.511360E-01   0.562001E+00   0.122577E+03   0.181475E-16
  Finished solving LPB equations
  A_corr:   -0.272269645674602     
 End minimization
 Ecorr=   3241.33281031040     
 A_corr= -0.272269645674602     
 Ecorr_band=  -3241.60507995608     
 End Solvation calculations
RMM:   4    -0.249906310028E+03    0.44166E-04   -0.62669E-05  8742   0.159E-02
 Begin Solvation calculations
  rms_SCF =   9.535506368981857E-002 tol =   9.535506368981856E-003
 Begin minimization
 Creating dielectric and ionic cavities
  area:      142.085246375199     
  volume:    726.690529481120     
  Acav:     7.459475434697935E-002
  Solving linear dielectric/ionic screening model
        iter                  A_solv                     rms
   LPB:       -0.347018256869451E+00   0.860289396304843E-01
   LPB:    0  -0.347017905123168E+00   0.846689379277195E-01  -0.149604E-03   0.000000E+00   0.314321E+02  -0.470236E-02
   LPB:    1  -0.346994154306340E+00   0.118576554764352E-01   0.994907E-02   0.000000E+00   0.658831E+02  -0.408274E-18
   LPB:    2  -0.346991834069745E+00   0.268059564828812E-02   0.121640E-01   0.799024E-01   0.203439E+03  -0.179744E-16
   LPB:    3  -0.346991527969096E+00   0.670635801217840E-03   0.209795E-01   0.764916E-01   0.127161E+03  -0.249099E-16
   LPB:    4  -0.346991321775875E+00   0.587181682684302E-03   0.462819E-01   0.305347E+00   0.137651E+03  -0.400821E-16
  Finished solving LPB equations
  A_corr:   -0.272396567428896     
 End minimization
 Ecorr=   3241.18600424269     
 A_corr= -0.272396567428896     
 Ecorr_band=  -3241.45840081012     
 End Solvation calculations
   5 F= -.24990631E+03 E0= -.24990936E+03  d E =-.859729E-04
quench:  g(F)=  0.000E+00 g(S)=  0.000E+00 dE (1.order)= 0.000E+00
 bond charge predicted
       N       E                     dE             d eps       ncg     rms          rms(c)
 Begin Solvation calculations
  rms_SCF =   9.535506368981857E-002 tol =   9.535506368981856E-003
 Begin minimization
 Creating dielectric and ionic cavities
  area:      142.095530658839     
  volume:    726.696070636534     
  Acav:     7.460015359589055E-002
  Solving linear dielectric/ionic screening model
        iter                  A_solv                     rms
   LPB:       -0.347120444194413E+00   0.138831491002933E-02
   LPB:    0  -0.347120444190550E+00   0.138718848294320E-02   0.495756E-06   0.000000E+00   0.314318E+02   0.155825E-04
   LPB:    1  -0.347001072744394E+00   0.605313162481583E-03   0.153665E-01   0.000000E+00   0.524966E+06   0.807841E-21
   LPB:    2  -0.346989140671110E+00   0.640881303355734E-03   0.272082E-01   0.564534E-01   0.801925E+05  -0.108879E-18
   LPB:    3  -0.346985194303072E+00   0.874565693958962E-03   0.332552E-01   0.270597E+00   0.143623E+05   0.722476E-19
   LPB:    4  -0.346983365287639E+00   0.296609986313600E-02   0.363774E-01   0.423689E+00   0.473792E+04   0.583835E-18
  Finished solving LPB equations
  A_corr:   -0.272383211691749     
 End minimization
 Ecorr=   3241.17849935562     
 A_corr= -0.272383211691749     
 Ecorr_band=  -3241.45088256731     
 End Solvation calculations
DAV:   1    -0.249906318263E+03    0.35931E-04   -0.77098E-03 15867   0.158E-01    0.510E-02
 Begin Solvation calculations
  rms_SCF =   6.618244907551786E-002 tol =   6.618244907551786E-003
 Begin minimization
 Creating dielectric and ionic cavities
  area:      142.091248017785     
  volume:    726.672498316403     
  Acav:     7.459790520933687E-002
  Solving linear dielectric/ionic screening model
        iter                  A_solv                     rms
   LPB:       -0.348305861324099E+00   0.461206637276658E+00
   LPB:    0  -0.348276282943037E+00   0.446713680426146E+00  -0.137186E-02   0.000000E+00   0.314329E+02  -0.431216E-01
   LPB:    1  -0.347761481265701E+00   0.477582565920139E-01   0.883010E-02   0.000000E+00   0.653977E+02   0.205150E-17
   LPB:    2  -0.347710881660831E+00   0.789237743403748E-02   0.152745E-01   0.568204E-01   0.121301E+03  -0.921103E-16
   LPB:    3  -0.347705232871902E+00   0.373939762798084E-02   0.202335E-01   0.842765E-01   0.254204E+03  -0.932495E-16
   LPB:    4  -0.347703502178960E+00   0.431402998465305E-02   0.268622E-01   0.230778E+00   0.170881E+03  -0.960374E-16
  Finished solving LPB equations
  A_corr:   -0.273105596969623     
 End minimization
 Ecorr=   3241.14133625936     
 A_corr= -0.273105596969623     
 Ecorr_band=  -3241.41444185633     
 End Solvation calculations
RMM:   2    -0.249908924817E+03   -0.26066E-02   -0.77850E-04 13141   0.452E-02    0.588E-01
 Begin Solvation calculations
  rms_SCF =   6.618244907551786E-002 tol =   6.618244907551786E-003
 Begin minimization
 Creating dielectric and ionic cavities
  area:      142.099200618945     
  volume:    726.686052706011     
  Acav:     7.460208032494613E-002
  Solving linear dielectric/ionic screening model
        iter                  A_solv                     rms
   LPB:       -0.347828405724057E+00   0.416495038874630E+00
   LPB:    0  -0.347824355450804E+00   0.414199955647372E+00   0.507656E-03   0.000000E+00   0.314323E+02   0.159568E-01
   LPB:    1  -0.347391840482894E+00   0.397191548867076E-01   0.861964E-02   0.000000E+00   0.677013E+02  -0.405009E-18
   LPB:    2  -0.347353701137975E+00   0.559405307861628E-02   0.159187E-01   0.477479E-01   0.124178E+03   0.173250E-15
   LPB:    3  -0.347349805714448E+00   0.179589026760806E-02   0.203951E-01   0.797189E-01   0.342528E+03   0.175106E-15
   LPB:    4  -0.347348924619089E+00   0.178430272846687E-02   0.257359E-01   0.179249E+00   0.630865E+03   0.175623E-15
  Finished solving LPB equations
  A_corr:   -0.272746844294143     
 End minimization
 Ecorr=   3241.14938051079     
 A_corr= -0.272746844294143     
 Ecorr_band=  -3241.42212735508     
 End Solvation calculations
RMM:   3    -0.249906467925E+03    0.24569E-02   -0.31514E-04 11656   0.296E-02    0.118E-01
 Begin Solvation calculations
  rms_SCF =   6.618244907551786E-002 tol =   6.618244907551786E-003
 Begin minimization
 Creating dielectric and ionic cavities
  area:      142.096172208929     
  volume:    726.696251072587     
  Acav:     7.460049040968766E-002
  Solving linear dielectric/ionic screening model
        iter                  A_solv                     rms
   LPB:       -0.347414602958750E+00   0.527872418372819E-01
   LPB:    0  -0.347414010141835E+00   0.516573918994592E-01   0.194219E-03   0.000000E+00   0.314318E+02   0.610464E-02
   LPB:    1  -0.347406635232979E+00   0.539488770951501E-02   0.901480E-02   0.000000E+00   0.680158E+02   0.401237E-18
   LPB:    2  -0.347405762507284E+00   0.159872810646056E-02   0.160292E-01   0.665526E-01   0.168433E+03   0.251424E-17
   LPB:    3  -0.347405539525379E+00   0.121459938667292E-02   0.253523E-01   0.161542E+00   0.162533E+03   0.100900E-17
   LPB:    4  -0.347405300046613E+00   0.200885929581842E-02   0.522134E-01   0.521475E+00   0.539531E+03   0.238006E-18
  Finished solving LPB equations
  A_corr:   -0.272804809636925     
 End minimization
 Ecorr=   3240.99441759708     
 A_corr= -0.272804809636925     
 Ecorr_band=  -3241.26722240672     
 End Solvation calculations
RMM:   4    -0.249906360908E+03    0.10702E-03   -0.62145E-05  8650   0.148E-02    0.440E-02
 Begin Solvation calculations
  rms_SCF =   6.417831953872254E-002 tol =   6.417831953872253E-003
 Begin minimization
 Creating dielectric and ionic cavities
  area:      142.097890100933     
  volume:    726.693687069026     
  Acav:     7.460139230298961E-002
  Solving linear dielectric/ionic screening model
        iter                  A_solv                     rms
   LPB:       -0.347631688289288E+00   0.584146622811813E-01
   LPB:    0  -0.347628368791820E+00   0.424941347607460E-01  -0.459585E-03   0.000000E+00   0.314319E+02  -0.144456E-01
   LPB:    1  -0.347621394816624E+00   0.700794588853558E-02   0.106970E-01   0.000000E+00   0.568429E+02  -0.320332E-18
   LPB:    2  -0.347620613380933E+00   0.216875196500333E-02   0.126939E-01   0.944235E-01   0.165543E+03   0.336898E-16
   LPB:    3  -0.347620474628043E+00   0.149901732534765E-02   0.189347E-01   0.119038E+00   0.158440E+03   0.366799E-16
   LPB:    4  -0.347620353455702E+00   0.181138740016378E-02   0.386014E-01   0.428367E+00   0.540703E+02   0.384095E-16
  Finished solving LPB equations
  A_corr:   -0.273018961152712     
 End minimization
 Ecorr=   3240.93253928281     
 A_corr= -0.273018961152712     
 Ecorr_band=  -3241.20555824396     
 End Solvation calculations
RMM:   5    -0.249906372713E+03   -0.11804E-04   -0.21644E-05  8298   0.842E-03
 Begin Solvation calculations
  rms_SCF =   6.417831953872254E-002 tol =   6.417831953872253E-003
 Begin minimization
 Creating dielectric and ionic cavities
  area:      142.097914085087     
  volume:    726.700288492668     
  Acav:     7.460140489467054E-002
  Solving linear dielectric/ionic screening model
        iter                  A_solv                     rms
   LPB:       -0.347806355647517E+00   0.389941476337527E-01
   LPB:    0  -0.347805976610296E+00   0.358806359182645E-01  -0.155300E-03   0.000000E+00   0.314316E+02  -0.488134E-02
   LPB:    1  -0.347801056211376E+00   0.652160960162218E-02   0.105505E-01   0.000000E+00   0.643675E+02  -0.134897E-18
   LPB:    2  -0.347800476848095E+00   0.162372927978787E-02   0.125615E-01   0.988975E-01   0.150889E+03  -0.998775E-17
   LPB:    3  -0.347800354966676E+00   0.668875739925979E-03   0.224883E-01   0.117509E+00   0.120146E+03  -0.930975E-17
   LPB:    4  -0.347800232295174E+00   0.924282992896712E-03   0.508879E-01   0.444783E+00   0.692670E+02  -0.109934E-16
  Finished solving LPB equations
  A_corr:   -0.273198827400503     
 End minimization
 Ecorr=   3240.80270279406     
 A_corr= -0.273198827400503     
 Ecorr_band=  -3241.07590162146     
 End Solvation calculations
   6 F= -.24990637E+03 E0= -.24990944E+03  d E =-.626846E-04
quench:  g(F)=  0.000E+00 g(S)=  0.000E+00 dE (1.order)= 0.000E+00
 bond charge predicted
       N       E                     dE             d eps       ncg     rms          rms(c)
 Begin Solvation calculations
  rms_SCF =   6.417831953872254E-002 tol =   6.417831953872253E-003
 Begin minimization
 Creating dielectric and ionic cavities
  area:      142.097445475487     
  volume:    726.698288308665     
  Acav:     7.460115887463044E-002
  Solving linear dielectric/ionic screening model
        iter                  A_solv                     rms
   LPB:       -0.347839166898890E+00   0.113944643529269E-02
   LPB:    0  -0.347839166898325E+00   0.114664556061189E-02  -0.189551E-06   0.000000E+00   0.314317E+02  -0.595792E-05
   LPB:    1  -0.347809108592878E+00   0.679105795952727E-03   0.156375E-01   0.000000E+00   0.134979E+06  -0.130010E-22
   LPB:    2  -0.347805927922761E+00   0.101582692959255E-02   0.275200E-01   0.601274E-01   0.152916E+05   0.280744E-17
   LPB:    3  -0.347804882744984E+00   0.217156871331464E-02   0.319942E-01   0.282650E+00   0.205197E+04   0.275309E-17
   LPB:    4  -0.347804440130824E+00   0.323844978770089E-02   0.294059E-01   0.460757E+00   0.204799E+03   0.202721E-17
  Finished solving LPB equations
  A_corr:   -0.273203281256193     
 End minimization
 Ecorr=   3240.77715978540     
 A_corr= -0.273203281256193     
 Ecorr_band=  -3241.05036306666     
 End Solvation calculations
DAV:   1    -0.249906383179E+03   -0.22270E-04   -0.22572E-03 14685   0.821E-02    0.349E-02
 Begin Solvation calculations
  rms_SCF =   5.557663846255779E-002 tol =   5.557663846255779E-003
 Begin minimization
 Creating dielectric and ionic cavities
  area:      142.096950980256     
  volume:    726.691792886461     
  Acav:     7.460089926463429E-002
  Solving linear dielectric/ionic screening model
        iter                  A_solv                     rms
   LPB:       -0.348715443798975E+00   0.391026786753451E+00
   LPB:    0  -0.348704088635841E+00   0.384310873045299E+00  -0.850013E-03   0.000000E+00   0.314320E+02  -0.267176E-01
   LPB:    1  -0.348326523233002E+00   0.397738551666074E-01   0.877569E-02   0.000000E+00   0.659145E+02   0.146160E-17
   LPB:    2  -0.348291157376524E+00   0.636423226677504E-02   0.152313E-01   0.539681E-01   0.124050E+03   0.204773E-15
   LPB:    3  -0.348287353493956E+00   0.239189543890382E-02   0.205092E-01   0.798787E-01   0.241844E+03   0.185028E-15
   LPB:    4  -0.348286280615100E+00   0.245894347604637E-02   0.271117E-01   0.213361E+00   0.224344E+03   0.181826E-15
  Finished solving LPB equations
  A_corr:   -0.273685381350466     
 End minimization
[...]
   LPB:    0  -0.351911126011056E+00   0.451361186639780E-01  -0.351509E-03   0.000000E+00   0.314233E+02  -0.110456E-01
   LPB:    1  -0.351905781289434E+00   0.401766913589852E-02   0.865680E-02   0.000000E+00   0.686093E+02   0.676060E-18
   LPB:    2  -0.351905403075203E+00   0.150616179609331E-02   0.146544E-01   0.418023E-01   0.145833E+03  -0.398873E-17
   LPB:    3  -0.351905355469201E+00   0.762648624178291E-03   0.186170E-01   0.990796E-01   0.789608E+02  -0.140930E-16
   LPB:    4  -0.351905341107499E+00   0.298581340653302E-03   0.205210E-01   0.273687E+00   0.208777E+03  -0.224969E-16
   LPB:    5  -0.351905333938276E+00   0.125112848824027E-03   0.268518E-01   0.381497E+00   0.434249E+03  -0.172891E-16
  Finished solving LPB equations
  A_corr:   -0.277215926796516     
 End minimization
 Ecorr=   3238.90163251198     
 A_corr= -0.277215926796516     
 Ecorr_band=  -3239.17884843878     
 End Solvation calculations
  93 F= -.24990744E+03 E0= -.24991048E+03  d E =-.804715E-04
quench:  g(F)=  0.000E+00 g(S)=  0.000E+00 dE (1.order)= 0.000E+00
 bond charge predicted
       N       E                     dE             d eps       ncg     rms          rms(c)
 Begin Solvation calculations
  rms_SCF =   2.174670378261460E-003 tol =   2.174670378261460E-004
 Begin minimization
 Creating dielectric and ionic cavities
  area:      142.267744313082     
  volume:    726.882009127499     
  Acav:     7.469056576436781E-002
  Solving linear dielectric/ionic screening model
        iter                  A_solv                     rms
   LPB:       -0.351905576760147E+00   0.590837968749396E-03
   LPB:    0  -0.351905576755932E+00   0.603685132824915E-03   0.517970E-06   0.000000E+00   0.314231E+02   0.162762E-04
   LPB:    1  -0.351883971068356E+00   0.253406840382995E-03   0.154452E-01   0.000000E+00   0.399435E+06  -0.760436E-21
   LPB:    2  -0.351881699425605E+00   0.308015074158641E-03   0.276193E-01   0.587965E-01   0.824116E+05  -0.272361E-17
   LPB:    3  -0.351880943748644E+00   0.604235905186234E-03   0.329638E-01   0.278722E+00   0.130252E+05  -0.188135E-17
   LPB:    4  -0.351880617559243E+00   0.128251275076929E-02   0.347175E-01   0.409848E+00   0.143276E+04  -0.443244E-17
   LPB:    5  -0.351880470911663E+00   0.200224605352110E-02   0.290303E-01   0.537653E+00   0.239552E+03  -0.492728E-17
   LPB:    6  -0.351880385114178E+00   0.123163302147367E-02   0.221447E-01   0.766975E+00   0.175979E+03  -0.462249E-17
   LPB:    7  -0.351880321997873E+00   0.131638669658880E-02   0.287507E-01   0.566615E+00   0.359715E+03  -0.131676E-16
   LPB:    8  -0.351880288172396E+00   0.108155153367799E-02   0.211757E-01   0.727633E+00   0.159753E+03  -0.234158E-16
   LPB:    9  -0.351880257360478E+00   0.300738280242198E-03   0.268895E-01   0.717350E+00   0.339804E+03  -0.325243E-16
   LPB:   10  -0.351880234697984E+00   0.837986653719818E-04   0.386093E-01   0.512247E+00   0.295715E+04  -0.462426E-16
  Finished solving LPB equations
  A_corr:   -0.277189668933617     
 End minimization
 Ecorr=   3238.90068467182     
 A_corr= -0.277189668933617     
 Ecorr_band=  -3239.17787434075     
 End Solvation calculations
DAV:   1    -0.249907378416E+03   -0.21203E-04   -0.17038E-03 15129   0.112E-01    0.485E-02
 Begin Solvation calculations
  rms_SCF =   2.174670378261460E-003 tol =   2.174670378261460E-004
 Begin minimization
 Creating dielectric and ionic cavities
  area:      142.253332114326     
  volume:    726.886351542974     
  Acav:     7.468299936002139E-002
  Solving linear dielectric/ionic screening model
        iter                  A_solv                     rms
   LPB:       -0.352943883677730E+00   0.472457403439097E+00
   LPB:    0  -0.352943820117554E+00   0.472368003986185E+00  -0.636040E-04   0.000000E+00   0.314229E+02  -0.199862E-02
   LPB:    1  -0.352382098995265E+00   0.460483344100086E-01   0.863487E-02   0.000000E+00   0.674899E+02  -0.408475E-19
   LPB:    2  -0.352332361296783E+00   0.785090139201520E-02   0.158387E-01   0.482726E-01   0.122629E+03  -0.465992E-16
   LPB:    3  -0.352326957348515E+00   0.318695979954968E-02   0.212831E-01   0.808556E-01   0.204114E+03  -0.343812E-16
   LPB:    4  -0.352325506395533E+00   0.178840030118658E-02   0.268364E-01   0.212938E+00   0.319408E+03  -0.585356E-16
   LPB:    5  -0.352324998141746E+00   0.181925330721758E-02   0.268335E-01   0.350328E+00   0.304793E+03  -0.713506E-16
   LPB:    6  -0.352324775736254E+00   0.181238511601394E-02   0.258629E-01   0.454010E+00   0.176960E+03  -0.724534E-16
   LPB:    7  -0.352324662622093E+00   0.111988322193567E-02   0.238963E-01   0.550451E+00   0.157802E+03  -0.621233E-16
   LPB:    8  -0.352324590807612E+00   0.367726139082779E-03   0.297386E-01   0.510157E+00   0.200251E+03  -0.631209E-16
   LPB:    9  -0.352324549551652E+00   0.167850447616668E-03   0.354456E-01   0.481984E+00   0.446442E+03  -0.609741E-16
  Finished solving LPB equations
  A_corr:   -0.277641550191631     
 End minimization
 Ecorr=   3238.71457143493     
 A_corr= -0.277641550191631     
 Ecorr_band=  -3238.99221298512     
 End Solvation calculations
RMM:   2    -0.249910871235E+03   -0.34928E-02   -0.61772E-04 13053   0.429E-02    0.680E-01
 Begin Solvation calculations
  rms_SCF =   2.174670378261460E-003 tol =   2.174670378261460E-004
 Begin minimization
 Creating dielectric and ionic cavities
  area:      142.264123494796     
  volume:    726.889662552807     
  Acav:     7.468866483476787E-002
  Solving linear dielectric/ionic screening model
        iter                  A_solv                     rms
   LPB:       -0.352525513851732E+00   0.463426173860568E+00
   LPB:    0  -0.352524495264030E+00   0.462823510511159E+00   0.254620E-03   0.000000E+00   0.314227E+02   0.800085E-02
   LPB:    1  -0.351985410010677E+00   0.446771108222724E-01   0.862654E-02   0.000000E+00   0.675772E+02   0.845518E-18
   LPB:    2  -0.351938808078805E+00   0.723558280585908E-02   0.157217E-01   0.474334E-01   0.124004E+03  -0.224596E-16
   LPB:    3  -0.351933809295776E+00   0.262593789545598E-02   0.212782E-01   0.792548E-01   0.222152E+03  -0.447091E-17
   LPB:    4  -0.351932484804802E+00   0.124772106318436E-02   0.271589E-01   0.207590E+00   0.360605E+03   0.175881E-16
   LPB:    5  -0.351932002465411E+00   0.946728043846778E-03   0.283667E-01   0.348664E+00   0.399931E+03   0.167602E-16
   LPB:    6  -0.351931791548853E+00   0.118981472163797E-02   0.297377E-01   0.417117E+00   0.339335E+03   0.186587E-16
   LPB:    7  -0.351931700730466E+00   0.137952542951391E-02   0.263885E-01   0.485241E+00   0.155072E+03   0.226191E-16
   LPB:    8  -0.351931647138060E+00   0.662767608820105E-03   0.243317E-01   0.639988E+00   0.148728E+03   0.256425E-16
   LPB:    9  -0.351931610195423E+00   0.220556667126533E-03   0.329220E-01   0.509460E+00   0.328936E+03   0.429010E-16
   LPB:   10  -0.351931587004154E+00   0.108444379837346E-03   0.372378E-01   0.555008E+00   0.525419E+03   0.540689E-16
  Finished solving LPB equations
  A_corr:   -0.277242922169386     
 End minimization
 Ecorr=   3238.81912860230     
 A_corr= -0.277242922169386     
 Ecorr_band=  -3239.09637152447     
 End Solvation calculations
RMM:   3    -0.249907409530E+03    0.34617E-02   -0.34335E-04 11964   0.308E-02    0.635E-02
 Begin Solvation calculations
  rms_SCF =   2.174670378261460E-003 tol =   2.174670378261460E-004
 Begin minimization
 Creating dielectric and ionic cavities
  area:      142.265249674558     
  volume:    726.877845890765     
  Acav:     7.468925607914288E-002
  Solving linear dielectric/ionic screening model
        iter                  A_solv                     rms
   LPB:       -0.351987900138551E+00   0.283378848332375E-01
   LPB:    0  -0.351986204344652E+00   0.148775560378998E-01  -0.328531E-03   0.000000E+00   0.314233E+02  -0.103235E-01
   LPB:    1  -0.351985375143917E+00   0.179338274616242E-02   0.961294E-02   0.000000E+00   0.671713E+02  -0.162129E-18
   LPB:    2  -0.351985278944122E+00   0.114201981974903E-02   0.157039E-01   0.710172E-01   0.197806E+03  -0.513205E-17
   LPB:    3  -0.351985242236750E+00   0.106085956485013E-02   0.227675E-01   0.263191E+00   0.121773E+03  -0.637554E-17
   LPB:    4  -0.351985214052686E+00   0.412538875256095E-03   0.279830E-01   0.624699E+00   0.226557E+03  -0.631543E-17
   LPB:    5  -0.351985195196965E+00   0.207874363252144E-03   0.301303E-01   0.621342E+00   0.998546E+03  -0.365516E-17
  Finished solving LPB equations
  A_corr:   -0.277295939117822     
 End minimization
 Ecorr=   3238.91778341355     
 A_corr= -0.277295939117822     
 Ecorr_band=  -3239.19507935267     
 End Solvation calculations
RMM:   4    -0.249907377580E+03    0.31950E-04   -0.43060E-05  8594   0.130E-02
 Begin Solvation calculations
  rms_SCF =   2.174670378261460E-003 tol =   2.174670378261460E-004
 Begin minimization
 Creating dielectric and ionic cavities
  area:      142.264962535418     
  volume:    726.882830474714     
  Acav:     7.468910533109470E-002
  Solving linear dielectric/ionic screening model
        iter                  A_solv                     rms
   LPB:       -0.351988290653858E+00   0.111792586289677E-01
   LPB:    0  -0.351987969544882E+00   0.419390349150172E-02   0.142961E-03   0.000000E+00   0.314230E+02   0.449226E-02
   LPB:    1  -0.351987866704191E+00   0.624500546699844E-03   0.104664E-01   0.000000E+00   0.738285E+02  -0.321180E-18
   LPB:    2  -0.351987852144926E+00   0.561504413023372E-03   0.204239E-01   0.725495E-01   0.356506E+03   0.654471E-17
   LPB:    3  -0.351987843923522E+00   0.636285524383996E-03   0.233183E-01   0.494594E+00   0.100858E+03   0.381491E-17
   LPB:    4  -0.351987834006018E+00   0.395525553528002E-03   0.321707E-01   0.874362E+00   0.194689E+03   0.406831E-17
   LPB:    5  -0.351987824076700E+00   0.176251444030599E-03   0.328385E-01   0.980832E+00   0.578563E+03   0.539638E-17
  Finished solving LPB equations
  A_corr:   -0.277298718745605     
 End minimization
 Ecorr=   3238.85752341493     
 A_corr= -0.277298718745605     
 Ecorr_band=  -3239.13482213367     
 End Solvation calculations
  94 F= -.24990738E+03 E0= -.24991044E+03  d E =0.611928E-04
quench:  g(F)=  0.000E+00 g(S)=  0.000E+00 dE (1.order)= 0.000E+00
 bond charge predicted
       N       E                     dE             d eps       ncg     rms          rms(c)
 Begin Solvation calculations
  rms_SCF =   2.174670378261460E-003 tol =   2.174670378261460E-004
 Begin minimization
 Creating dielectric and ionic cavities
  area:      142.266058657803     
  volume:    726.880748447470     
  Acav:     7.468968079534648E-002
  Solving linear dielectric/ionic screening model
        iter                  A_solv                     rms
   LPB:       -0.352013571762862E+00   0.401120753670079E-03
   LPB:    0  -0.352013571762162E+00   0.402194880924271E-03  -0.211131E-06   0.000000E+00   0.314231E+02  -0.663441E-05
   LPB:    1  -0.351999038160191E+00   0.154772562503026E-03   0.154299E-01   0.000000E+00   0.749197E+06   0.206979E-21
   LPB:    2  -0.351997640688278E+00   0.139549554040441E-03   0.268414E-01   0.552747E-01   0.153336E+06  -0.798144E-19
   LPB:    3  -0.351997211336025E+00   0.308529869586504E-03   0.321553E-01   0.256462E+00   0.398498E+05  -0.189754E-18
   LPB:    4  -0.351997025713448E+00   0.692752388986398E-03   0.354227E-01   0.392453E+00   0.283778E+04  -0.696604E-19
   LPB:    5  -0.351996939740040E+00   0.152430667094564E-02   0.319923E-01   0.512826E+00   0.444763E+03   0.332372E-18
   LPB:    6  -0.351996897139533E+00   0.114350194178290E-02   0.202003E-01   0.784764E+00   0.146270E+03   0.471061E-18
   LPB:    7  -0.351996861731557E+00   0.768144368142189E-03   0.263226E-01   0.637845E+00   0.375995E+03   0.631518E-18
   LPB:    8  -0.351996841506062E+00   0.789352998255480E-03   0.251222E-01   0.598506E+00   0.207988E+03  -0.356238E-17
   LPB:    9  -0.351996825855139E+00   0.303284124968921E-03   0.251154E-01   0.774030E+00   0.192662E+03  -0.617408E-17
   LPB:   10  -0.351996813979287E+00   0.115734702020209E-03   0.366835E-01   0.519511E+00   0.142833E+04  -0.643876E-17
  Finished solving LPB equations
  A_corr:   -0.277307133183940     
 End minimization
 Ecorr=   3238.84843592924     
 A_corr= -0.277307133183940     
 Ecorr_band=  -3239.12574306242     
 End Solvation calculations
DAV:   1    -0.249907375481E+03    0.34048E-04   -0.11385E-03 15066   0.900E-02    0.232E-02
 Begin Solvation calculations
  rms_SCF =   2.174670378261460E-003 tol =   2.174670378261460E-004
 Begin minimization
 Creating dielectric and ionic cavities
  area:      142.268269576818     
  volume:    726.872126763094     
  Acav:     7.469084152782925E-002
  Solving linear dielectric/ionic screening model
        iter                  A_solv                     rms
   LPB:       -0.352072708066332E+00   0.402100108480846E-01
   LPB:    0  -0.352071232904292E+00   0.330819609939364E-01  -0.306413E-03   0.000000E+00   0.314235E+02  -0.962858E-02
   LPB:    1  -0.352068229079256E+00   0.343492787939437E-02   0.893263E-02   0.000000E+00   0.659333E+02  -0.466545E-18
   LPB:    2  -0.352067900593067E+00   0.102165641152209E-02   0.159086E-01   0.614029E-01   0.138780E+03  -0.353053E-17
   LPB:    3  -0.352067849033788E+00   0.835214525814990E-03   0.201632E-01   0.123841E+00   0.190043E+03  -0.520624E-17
   LPB:    4  -0.352067828554007E+00   0.520706787790651E-03   0.224892E-01   0.356126E+00   0.145832E+03  -0.306788E-17
   LPB:    5  -0.352067817125364E+00   0.217293151110789E-03   0.273212E-01   0.459350E+00   0.234114E+03  -0.202867E-17
  Finished solving LPB equations
  A_corr:   -0.277376975597534     
 End minimization
 Ecorr=   3238.93601290837     
 A_corr= -0.277376975597534     
 Ecorr_band=  -3239.21338988397     
 End Solvation calculations
RMM:   2    -0.249907451014E+03   -0.75532E-04   -0.13224E-04  8650   0.254E-02
 Begin Solvation calculations
  rms_SCF =   2.174670378261460E-003 tol =   2.174670378261460E-004
 Begin minimization
 Creating dielectric and ionic cavities
  area:      142.268364844278     
  volume:    726.881337800563     
  Acav:     7.469089154324589E-002
  Solving linear dielectric/ionic screening model
        iter                  A_solv                     rms
   LPB:       -0.351987060722079E+00   0.879070738462897E-01
   LPB:    0  -0.351985666550916E+00   0.849040824941603E-01   0.297885E-03   0.000000E+00   0.314231E+02   0.936047E-02
   LPB:    1  -0.351967426578693E+00   0.844271604722989E-02   0.865908E-02   0.000000E+00   0.669621E+02   0.162956E-18
   LPB:    2  -0.351965767164698E+00   0.126091680122958E-02   0.158992E-01   0.495480E-01   0.118174E+03   0.119390E-16
   LPB:    3  -0.351965581125778E+00   0.696423415176098E-03   0.208881E-01   0.853349E-01   0.308923E+03   0.158597E-16
   LPB:    4  -0.351965533917917E+00   0.795700356028509E-03   0.236325E-01   0.224285E+00   0.221110E+03   0.169561E-16
   LPB:    5  -0.351965517200746E+00   0.466196262039475E-03   0.217529E-01   0.384717E+00   0.112547E+03   0.150374E-16
   LPB:    6  -0.351965508651444E+00   0.194499421935387E-03   0.258587E-01   0.430207E+00   0.236282E+03   0.110423E-16
  Finished solving LPB equations
  A_corr:   -0.277274617108198     
 End minimization
 Ecorr=   3238.87128755841     
 A_corr= -0.277274617108198     
 Ecorr_band=  -3239.14856217552     
 End Solvation calculations
  95 F= -.24990745E+03 E0= -.24991053E+03  d E =-.734338E-04
quench:  g(F)=  0.000E+00 g(S)=  0.000E+00 dE (1.order)= 0.000E+00
 bond charge predicted
       N       E                     dE             d eps       ncg     rms          rms(c)
 Begin Solvation calculations
  rms_SCF =   2.174670378261460E-003 tol =   2.174670378261460E-004
 Begin minimization
 Creating dielectric and ionic cavities
  area:      142.269915698052     
  volume:    726.884259324358     
  Acav:     7.469170574147754E-002
  Solving linear dielectric/ionic screening model
        iter                  A_solv                     rms
   LPB:       -0.351980124352645E+00   0.623536069159987E-03
   LPB:    0  -0.351980124350901E+00   0.631143179733512E-03   0.333130E-06   0.000000E+00   0.314230E+02   0.104679E-04
   LPB:    1  -0.351951902840768E+00   0.281268070957207E-03   0.152631E-01   0.000000E+00   0.515062E+06  -0.259126E-21
   LPB:    2  -0.351949188669085E+00   0.325412763396033E-03   0.272448E-01   0.538784E-01   0.789382E+05   0.162065E-17
   LPB:    3  -0.351948300177966E+00   0.610859185111494E-03   0.329466E-01   0.270700E+00   0.136537E+05   0.120385E-17
   LPB:    4  -0.351947907828034E+00   0.130018941511996E-02   0.352492E-01   0.412745E+00   0.164184E+04   0.106444E-17
   LPB:    5  -0.351947725114306E+00   0.210339219882921E-02   0.303611E-01   0.540667E+00   0.258814E+03   0.427201E-17
   LPB:    6  -0.351947621408599E+00   0.133055949194742E-02   0.226264E-01   0.761612E+00   0.166372E+03   0.124654E-16
   LPB:    7  -0.351947542702578E+00   0.125674690514473E-02   0.293820E-01   0.584438E+00   0.405695E+03   0.265847E-16
   LPB:    8  -0.351947502268775E+00   0.135991839297090E-02   0.225638E-01   0.668970E+00   0.178818E+03   0.367950E-16
   LPB:    9  -0.351947467472292E+00   0.426597172532074E-03   0.236964E-01   0.819445E+00   0.260284E+03   0.415992E-16
   LPB:   10  -0.351947440203872E+00   0.117387275339500E-03   0.375836E-01   0.494093E+00   0.204545E+04   0.402241E-16
  Finished solving LPB equations
  A_corr:   -0.277255734462394     
 End minimization
 Ecorr=   3238.87063449311     
 A_corr= -0.277255734462394     
 Ecorr_band=  -3239.14789022757     
 End Solvation calculations
DAV:   1    -0.249907421650E+03   -0.46169E-04   -0.19034E-03 14871   0.109E-01    0.833E-02
 Begin Solvation calculations
  rms_SCF =   2.174670378261460E-003 tol =   2.174670378261460E-004
 Begin minimization
 Creating dielectric and ionic cavities
  area:      142.251976182444     
  volume:    726.867907266955     
  Acav:     7.468228749578291E-002
  Solving linear dielectric/ionic screening model
        iter                  A_solv                     rms
   LPB:       -0.354998691430312E+00   0.905520203312423E+00
   LPB:    0  -0.354988243674647E+00   0.902795383612595E+00  -0.815450E-03   0.000000E+00   0.314237E+02  -0.256245E-01
   LPB:    1  -0.352938094841494E+00   0.877512376679191E-01   0.862804E-02   0.000000E+00   0.674853E+02   0.658834E-18
   LPB:    2  -0.352759251217907E+00   0.137700365983254E-01   0.157718E-01   0.477220E-01   0.122233E+03   0.151250E-15
   LPB:    3  -0.352740076617591E+00   0.494006193673848E-02   0.213223E-01   0.793050E-01   0.233402E+03   0.184850E-15
   LPB:    4  -0.352734917734823E+00   0.237190510356562E-02   0.272209E-01   0.210747E+00   0.354036E+03   0.191980E-15
   LPB:    5  -0.352733071210024E+00   0.156110954275647E-02   0.285797E-01   0.340913E+00   0.365853E+03   0.192710E-15
   LPB:    6  -0.352732231131160E+00   0.917470624080680E-03   0.318576E-01   0.408140E+00   0.358528E+03   0.190294E-15
   LPB:    7  -0.352731831129881E+00   0.646109566558438E-03   0.346429E-01   0.437866E+00   0.360416E+03   0.179900E-15
   LPB:    8  -0.352731634369208E+00   0.985512739726457E-03   0.339981E-01   0.501230E+00   0.378081E+03   0.175428E-15
   LPB:    9  -0.352731535865405E+00   0.129293614350414E-02   0.293285E-01   0.580335E+00   0.169056E+03   0.177106E-15
   LPB:   10  -0.352731478678404E+00   0.884826309229608E-03   0.247575E-01   0.687744E+00   0.159725E+03   0.173909E-15
   LPB:   11  -0.352731438050132E+00   0.324717667184817E-03   0.298925E-01   0.588406E+00   0.189005E+03   0.172179E-15
   LPB:   12  -0.352731411681809E+00   0.155178403120331E-03   0.358761E-01   0.540768E+00   0.454272E+03   0.169726E-15
  Finished solving LPB equations
  A_corr:   -0.278049124186026     
 End minimization
 Ecorr=   3238.78664712238     
 A_corr= -0.278049124186026     
 Ecorr_band=  -3239.06469624657     
 End Solvation calculations
