 vasp.5.4.4.18Apr17-6-g9f103f2a35 (build Feb 06 2024 13:54:16) complex          
  
 POSCAR found type information on POSCAR  Cu Ni Cu N  O 
 03/POSCAR found :  5 types and      40 ions
 scaLAPACK will be used

 ----------------------------------------------------------------------------- 
|                                                                             |
|  ADVICE TO THIS USER RUNNING 'VASP/VAMP'   (HEAR YOUR MASTER'S VOICE ...):  |
|                                                                             |
|      You enforced a specific xc-type in the INCAR file,                     |
|      a different type was found on the POTCAR file                          |
|          I HOPE YOU KNOW, WHAT YOU ARE  DOING                               |
|                                                                             |
 ----------------------------------------------------------------------------- 

 LDA part: xc-table for Pade appr. of Perdew
 POSCAR found type information on POSCAR  Cu Ni Cu N  O 
 00/POSCAR found :  5 types and      40 ions
 POSCAR found type information on POSCAR  Cu Ni Cu N  O 
 06/POSCAR found :  5 types and      40 ions
 Jacobian:    20.5888137679208     
 POSCAR, INCAR and KPOINTS ok, starting setup
 FFT: planning ...
 WAVECAR not read
 entering main loop
       N       E                     dE             d eps       ncg     rms          rms(c)
  Solvation turned off during non-self-consistent phase (first NELMDL steps)
DAV:   1     0.412646362351E+04    0.41265E+04   -0.17861E+05  4032   0.203E+03
DAV:   2     0.568389916806E+03   -0.35581E+04   -0.34354E+04  4032   0.455E+02
DAV:   3    -0.364865236693E+02   -0.60488E+03   -0.55828E+03  4797   0.228E+02
DAV:   4    -0.146755318302E+03   -0.11027E+03   -0.99171E+02  7326   0.898E+01
DAV:   5    -0.160514691382E+03   -0.13759E+02   -0.12065E+02  6390   0.295E+01    0.436E+01
 Begin Solvation calculations
  rms_SCF =    5.73821218249741      tol =   0.573821218249741     
 Begin minimization
 Creating dielectric and ionic cavities
  area:      171.006016247514     
  volume:    684.961451064535     
  Acav:     8.977815852994504E-002
  Solving linear dielectric/ionic screening model
        iter                  A_solv                     rms
   LPB:       -0.349614139189733E+03   0.228667348352508E+03
   LPB:    0  -0.928972493674117E+01   0.359030930318454E+02  -0.457057E+01   0.000000E+00   0.325823E+02  -0.148920E+03
   LPB:    1  -0.178420157837496E+01   0.764854664054133E+01   0.109048E-01   0.000000E+00   0.933772E+02   0.372252E-14
   LPB:    2  -0.725220769557097E+00   0.134214348776890E+01   0.137598E-01   0.111818E+00   0.344306E+03   0.103479E-14
   LPB:    3  -0.442120428634155E+00   0.144189727265241E+01   0.267061E-01   0.137738E+00   0.644374E+03   0.148226E-14
   LPB:    4  -0.353952395295607E+00   0.111809503190593E+01   0.244937E-01   0.339568E+00   0.851934E+02   0.198920E-14
   LPB:    5  -0.309547666045830E+00   0.618953660057439E+00   0.229108E-01   0.538435E+00   0.487179E+03  -0.361193E-14
   LPB:    6  -0.282707176161296E+00   0.216014358861511E+00   0.306628E-01   0.451636E+00   0.124894E+03  -0.998907E-14
  Finished solving LPB equations
  A_corr:   -0.192929017631351     
 End minimization
 Ecorr=   1762.24402896603     
 A_corr= -0.192929017631351     
 Ecorr_band=  -1762.43695798366     
 End Solvation calculations
RMM:   6    -0.156720904648E+03    0.37938E+01   -0.34796E+02  4100   0.929E+01    0.349E+01
 Begin Solvation calculations
  rms_SCF =    5.73821218249741      tol =   0.573821218249741     
 Begin minimization
 Creating dielectric and ionic cavities
  area:      172.057521181535     
  volume:    702.737952395717     
  Acav:     9.033019862030599E-002
  Solving linear dielectric/ionic screening model
        iter                  A_solv                     rms
   LPB:       -0.123092462291524E+02   0.596528632403921E+02
   LPB:    0  -0.111500822198189E+02   0.568928530035961E+02   0.270223E+00   0.000000E+00   0.317489E+02   0.857930E+01
   LPB:    1  -0.119537498804846E+01   0.512960357010627E+01   0.908843E-02   0.000000E+00   0.739370E+02   0.701489E-15
   LPB:    2  -0.437469941682817E+00   0.159349933822815E+01   0.160665E-01   0.430680E-01   0.151162E+03   0.290263E-14
   LPB:    3  -0.307220613769944E+00   0.106103044962115E+01   0.232360E-01   0.118829E+00   0.109903E+03   0.173524E-14
   LPB:    4  -0.263068119493227E+00   0.749095990378002E+00   0.224492E-01   0.350864E+00   0.249582E+03   0.886340E-14
   LPB:    5  -0.239057614074740E+00   0.267597601707550E+00   0.259241E-01   0.470916E+00   0.143739E+03   0.960161E-14
  Finished solving LPB equations
  A_corr:   -0.148727415454434     
 End minimization
 Ecorr=   1673.08609364712     
 A_corr= -0.148727415454434     
 Ecorr_band=  -1673.23482106257     
 End Solvation calculations
RMM:   7    -0.147344832242E+03    0.93761E+01   -0.87203E+01  4113   0.458E+01    0.281E+01
 Begin Solvation calculations
  rms_SCF =    5.73821218249741      tol =   0.573821218249741     
 Begin minimization
 Creating dielectric and ionic cavities
  area:      169.389659370059     
  volume:    703.284647149985     
  Acav:     8.892957116928089E-002
  Solving linear dielectric/ionic screening model
        iter                  A_solv                     rms
   LPB:       -0.253778187478006E+01   0.263481410484838E+02
   LPB:    0  -0.253602518369242E+01   0.263577290089923E+02   0.105238E-01   0.000000E+00   0.317233E+02   0.333850E+00
   LPB:    1  -0.424575836193871E+00   0.246557157927466E+01   0.913263E-02   0.000000E+00   0.728385E+02   0.131977E-16
   LPB:    2  -0.251258247791904E+00   0.409579213934626E+00   0.161161E-01   0.465155E-01   0.144540E+03  -0.107318E-14
   LPB:    3  -0.221420169390171E+00   0.235158217039257E+00   0.242007E-01   0.114647E+00   0.328290E+03  -0.156830E-15
   LPB:    4  -0.213157111702647E+00   0.122112775369808E+00   0.289309E-01   0.231652E+00   0.226872E+03  -0.524607E-16
  Finished solving LPB equations
  A_corr:   -0.124227540533366     
 End minimization
 Ecorr=   1650.92901920191     
 A_corr= -0.124227540533366     
 Ecorr_band=  -1651.05324674245     
 End Solvation calculations
RMM:   8    -0.136152656444E+03    0.11192E+02   -0.71339E+00  4108   0.106E+01    0.138E+01
 Begin Solvation calculations
  rms_SCF =    4.96736423079707      tol =   0.496736423079707     
 Begin minimization
 Creating dielectric and ionic cavities
  area:      163.242116538655     
  volume:    702.260588311312     
  Acav:     8.570211118279378E-002
  Solving linear dielectric/ionic screening model
        iter                  A_solv                     rms
   LPB:       -0.343354108711557E+00   0.377365957255298E+01
   LPB:    0  -0.341047339891230E+00   0.396560527404586E+01   0.120503E-01   0.000000E+00   0.317713E+02   0.382855E+00
   LPB:    1  -0.264116340063393E+00   0.937304915058647E+00   0.110228E-01   0.000000E+00   0.709578E+02  -0.230779E-16
   LPB:    2  -0.240784139224912E+00   0.285800775785861E+00   0.198716E-01   0.168235E+00   0.113237E+03  -0.921899E-14
   LPB:    3  -0.233149612472223E+00   0.316122787578063E+00   0.267799E-01   0.242801E+00   0.410182E+03  -0.108230E-13
   LPB:    4  -0.229126371217558E+00   0.187762932334124E+00   0.292798E-01   0.481986E+00   0.615354E+02  -0.113780E-13
  Finished solving LPB equations
  A_corr:   -0.143424260034764     
 End minimization
 Ecorr=   1615.73705610248     
 A_corr= -0.143424260034764     
 Ecorr_band=  -1615.88048036251     
 End Solvation calculations
RMM:   9    -0.135065279119E+03    0.10874E+01   -0.63691E+00  4118   0.788E+00    0.187E+01
 Begin Solvation calculations
  rms_SCF =    3.50425085064453      tol =   0.350425085064453     
 Begin minimization
 Creating dielectric and ionic cavities
  area:      161.894437366192     
  volume:    700.682244287600     
  Acav:     8.499457961725068E-002
  Solving linear dielectric/ionic screening model
        iter                  A_solv                     rms
   LPB:       -0.556308655053420E+00   0.925841808191170E+01
   LPB:    0  -0.556125399218557E+00   0.926872038297754E+01   0.339251E-02   0.000000E+00   0.318453E+02   0.108036E+00
   LPB:    1  -0.282181862519681E+00   0.919067113025764E+00   0.934754E-02   0.000000E+00   0.727224E+02   0.878276E-19
   LPB:    2  -0.255646445375572E+00   0.170036291958904E+00   0.158686E-01   0.570588E-01   0.165726E+03  -0.932631E-15
   LPB:    3  -0.249484627508950E+00   0.152387654302483E+00   0.284852E-01   0.129361E+00   0.282473E+03  -0.105287E-14
   LPB:    4  -0.246138450973300E+00   0.114545907784699E+00   0.371890E-01   0.415953E+00   0.100200E+03  -0.962904E-15
  Finished solving LPB equations
  A_corr:   -0.161143871356049     
 End minimization
 Ecorr=   1598.87173040347     
 A_corr= -0.161143871356049     
 Ecorr_band=  -1599.03287427483     
 End Solvation calculations
RMM:  10    -0.133809262655E+03    0.12560E+01   -0.19193E+00  4134   0.475E+00    0.618E+00
 Begin Solvation calculations
  rms_SCF =    2.40649556124887      tol =   0.240649556124887     
 Begin minimization
 Creating dielectric and ionic cavities
  area:      153.518693671472     
  volume:    698.853417401559     
  Acav:     8.059731417752276E-002
  Solving linear dielectric/ionic screening model
        iter                  A_solv                     rms
   LPB:       -0.459706034424115E+00   0.683971179118411E+01
   LPB:    0  -0.441994930432628E+00   0.673351272104775E+01   0.333067E-01   0.000000E+00   0.319310E+02   0.106352E+01
   LPB:    1  -0.293919300546304E+00   0.632529164225998E+00   0.926192E-02   0.000000E+00   0.760009E+02   0.106842E-15
   LPB:    2  -0.279694719929149E+00   0.132675536110456E+00   0.162720E-01   0.546785E-01   0.185742E+03  -0.132862E-14
   LPB:    3  -0.274907686632953E+00   0.112864435600110E+00   0.352877E-01   0.155183E+00   0.260559E+03  -0.175902E-14
   LPB:    4  -0.271196584391001E+00   0.103672799540217E+00   0.417872E-01   0.654661E+00   0.123894E+03  -0.181293E-14
  Finished solving LPB equations
  A_corr:   -0.190599270213478     
 End minimization
 Ecorr=   1572.09746358981     
 A_corr= -0.190599270213478     
 Ecorr_band=  -1572.28806286002     
 End Solvation calculations
RMM:  11    -0.133540935313E+03    0.26833E+00   -0.66874E-01  4133   0.324E+00    0.604E+00
 Begin Solvation calculations
  rms_SCF =    1.86275401292982      tol =   0.186275401292982     
 Begin minimization
 Creating dielectric and ionic cavities
  area:      148.665408842484     
  volume:    694.113921533822     
  Acav:     7.804933964230396E-002
  Solving linear dielectric/ionic screening model
        iter                  A_solv                     rms
   LPB:       -0.354139279214829E+00   0.148066617186611E+01
   LPB:    0  -0.353505620896611E+00   0.173530148191563E+01   0.627813E-02   0.000000E+00   0.321532E+02   0.201862E+00
   LPB:    1  -0.311726944404855E+00   0.505156721992553E+00   0.146001E-01   0.000000E+00   0.846718E+02  -0.995407E-17
   LPB:    2  -0.305445292825403E+00   0.253270246708198E+00   0.180509E-01   0.121611E+00   0.220360E+03   0.116523E-13
   LPB:    3  -0.301331675614188E+00   0.116762545533051E+00   0.328597E-01   0.359738E+00   0.989034E+02   0.118537E-13
   LPB:    4  -0.297525390905281E+00   0.215997322494094E+00   0.431616E-01   0.704441E+00   0.122847E+03   0.158561E-13
   LPB:    5  -0.295156850668828E+00   0.341403031722779E+00   0.265799E-01   0.101047E+01   0.100218E+03   0.195458E-13
   LPB:    6  -0.293373999538010E+00   0.148080400141682E+00   0.221197E-01   0.904499E+00   0.750850E+02   0.218581E-13
  Finished solving LPB equations
  A_corr:   -0.215324659895707     
 End minimization
 Ecorr=   1538.81388296437     
 A_corr= -0.215324659895707     
 Ecorr_band=  -1539.02920762426     
 End Solvation calculations
RMM:  12    -0.133357629099E+03    0.18331E+00   -0.28565E-01  4145   0.197E+00    0.240E+00
 Begin Solvation calculations
  rms_SCF =   0.498920357172366      tol =   4.989203571723661E-002
 Begin minimization
 Creating dielectric and ionic cavities
  area:      148.244666248821     
  volume:    688.428242555422     
  Acav:     7.782844978063119E-002
  Solving linear dielectric/ionic screening model
        iter                  A_solv                     rms
   LPB:       -0.388977351336063E+00   0.144590246208965E+01
   LPB:    0  -0.380790461138764E+00   0.181116828733339E+01   0.224734E-01   0.000000E+00   0.324198E+02   0.728584E+00
   LPB:    1  -0.333811840923980E+00   0.685022023025072E+00   0.151625E-01   0.000000E+00   0.101695E+03   0.435931E-16
   LPB:    2  -0.325478107306798E+00   0.328100753489427E+00   0.149601E-01   0.179794E+00   0.250381E+03  -0.196565E-14
   LPB:    3  -0.322817492648415E+00   0.229299419542852E+00   0.206499E-01   0.231291E+00   0.150252E+03  -0.136526E-14
   LPB:    4  -0.321350374849389E+00   0.178583914163447E+00   0.269560E-01   0.422421E+00   0.121020E+03  -0.129888E-14
   LPB:    5  -0.319875259135381E+00   0.129957771221813E+00   0.320020E-01   0.846915E+00   0.282263E+03  -0.362650E-15
   LPB:    6  -0.318312906030204E+00   0.588712760670985E-01   0.377940E-01   0.896825E+00   0.851667E+02   0.456741E-15
   LPB:    7  -0.317198392709194E+00   0.400162258481453E-01   0.356639E-01   0.755961E+00   0.150817E+03   0.380343E-14
  Finished solving LPB equations
  A_corr:   -0.239369942928562     
 End minimization
 Ecorr=   1511.52255866277     
 A_corr= -0.239369942928562     
 Ecorr_band=  -1511.76192860570     
 End Solvation calculations
RMM:  13    -0.133352799578E+03    0.48295E-02   -0.19591E-01  4149   0.185E+00    0.274E+00
 Begin Solvation calculations
  rms_SCF =   0.497486959553584      tol =   4.974869595535839E-002
 Begin minimization
 Creating dielectric and ionic cavities
  area:      148.485510082970     
  volume:    685.956294778886     
  Acav:     7.795489279355937E-002
  Solving linear dielectric/ionic screening model
        iter                  A_solv                     rms
   LPB:       -0.333882271116037E+00   0.593119546380491E+00
   LPB:    0  -0.333769323851226E+00   0.683830969889480E+00   0.263495E-02   0.000000E+00   0.325357E+02   0.857300E-01
   LPB:    1  -0.326347893908999E+00   0.281391792856006E+00   0.133068E-01   0.000000E+00   0.134580E+03   0.575268E-17
   LPB:    2  -0.325131283502561E+00   0.869720750384095E-01   0.168147E-01   0.129732E+00   0.134900E+03   0.158571E-14
   LPB:    3  -0.324778970983750E+00   0.662230150246035E-01   0.220468E-01   0.220862E+00   0.407963E+03   0.396637E-15
   LPB:    4  -0.324609137927872E+00   0.873957183023008E-01   0.248377E-01   0.427885E+00   0.135466E+03  -0.503123E-16
   LPB:    5  -0.324267204283860E+00   0.839939987972263E-01   0.437946E-01   0.114186E+01   0.193812E+03  -0.261623E-15
   LPB:    6  -0.323754264514783E+00   0.334006324770876E-01   0.458717E-01   0.143219E+01   0.550878E+02  -0.142797E-15
  Finished solving LPB equations
  A_corr:   -0.245799371721224     
 End minimization
 Ecorr=   1502.95557401292     
 A_corr= -0.245799371721224     
 Ecorr_band=  -1503.20137338464     
 End Solvation calculations
RMM:  14    -0.133315461407E+03    0.37338E-01   -0.53492E-02  4195   0.104E+00    0.178E+00
 Begin Solvation calculations
  rms_SCF =   0.292864351867644      tol =   2.928643518676441E-002
 Begin minimization
 Creating dielectric and ionic cavities
  area:      148.716003059215     
  volume:    684.266688967379     
  Acav:     7.807590160608813E-002
  Solving linear dielectric/ionic screening model
        iter                  A_solv                     rms
   LPB:       -0.335159661522736E+00   0.433639981333617E+00
   LPB:    0  -0.335030883187784E+00   0.510961498722879E+00   0.281014E-02   0.000000E+00   0.326149E+02   0.916525E-01
   LPB:    1  -0.329691776901580E+00   0.253073304885776E+00   0.134502E-01   0.000000E+00   0.186224E+03   0.201633E-17
   LPB:    2  -0.328954637624732E+00   0.734388127077405E-01   0.154935E-01   0.119856E+00   0.105213E+03  -0.134213E-14
   LPB:    3  -0.328793115574814E+00   0.452244387140906E-01   0.183295E-01   0.185217E+00   0.338566E+03  -0.119497E-14
   LPB:    4  -0.328713340381059E+00   0.489009783042263E-01   0.250969E-01   0.360719E+00   0.132536E+03  -0.116784E-14
   LPB:    5  -0.328626194536416E+00   0.379307060014977E-01   0.308305E-01   0.889238E+00   0.243458E+03  -0.118114E-14
   LPB:    6  -0.328543214478012E+00   0.153848421872972E-01   0.365487E-01   0.803220E+00   0.888730E+02  -0.126871E-14
  Finished solving LPB equations
  A_corr:   -0.250467312871924     
 End minimization
 Ecorr=   1498.76625312186     
 A_corr= -0.250467312871924     
 Ecorr_band=  -1499.01672043473     
 End Solvation calculations
RMM:  15    -0.133301982746E+03    0.13479E-01   -0.10453E-02  4261   0.373E-01    0.115E+00
 Begin Solvation calculations
  rms_SCF =   0.189066219284591      tol =   1.890662192845909E-002
 Begin minimization
 Creating dielectric and ionic cavities
  area:      149.330302064283     
  volume:    681.730999758953     
  Acav:     7.839840858374870E-002
  Solving linear dielectric/ionic screening model
        iter                  A_solv                     rms
   LPB:       -0.358033478775110E+00   0.967483594828625E+00
   LPB:    0  -0.357687427828377E+00   0.107184769440794E+01   0.459819E-02   0.000000E+00   0.327338E+02   0.150516E+00
   LPB:    1  -0.340463212165349E+00   0.349119018359228E+00   0.140293E-01   0.000000E+00   0.132810E+03   0.106897E-16
   LPB:    2  -0.338149908803616E+00   0.118873371532323E+00   0.156742E-01   0.120211E+00   0.143974E+03   0.116591E-14
   LPB:    3  -0.337616245986784E+00   0.800874444782756E-01   0.212949E-01   0.169802E+00   0.157126E+03   0.940945E-15
   LPB:    4  -0.337409434100428E+00   0.865439837370360E-01   0.232854E-01   0.354406E+00   0.232144E+03   0.904309E-15
   LPB:    5  -0.337275411618548E+00   0.494121340070210E-01   0.225402E-01   0.669465E+00   0.129749E+03   0.954584E-15
   LPB:    6  -0.337141230952715E+00   0.194607835122334E-01   0.332185E-01   0.679344E+00   0.162265E+03   0.934136E-15
   LPB:    7  -0.337027300484243E+00   0.153192579828404E-01   0.391612E-01   0.720234E+00   0.220092E+03   0.114655E-14
  Finished solving LPB equations
  A_corr:   -0.258628891900494     
 End minimization
 Ecorr=   1492.44057308003     
 A_corr= -0.258628891900494     
 Ecorr_band=  -1492.69920197193     
 End Solvation calculations
RMM:  16    -0.133297244406E+03    0.47383E-02   -0.54233E-03  4125   0.223E-01    0.754E-01
 Begin Solvation calculations
  rms_SCF =   0.166133995516967      tol =   1.661339955169671E-002
 Begin minimization
 Creating dielectric and ionic cavities
  area:      149.851001924929     
  volume:    679.906323879667     
  Acav:     7.867177601058765E-002
  Solving linear dielectric/ionic screening model
        iter                  A_solv                     rms
   LPB:       -0.362651943680315E+00   0.975986872230999E+00
   LPB:    0  -0.362469329970599E+00   0.104818220785539E+01   0.333593E-02   0.000000E+00   0.328193E+02   0.109483E+00
   LPB:    1  -0.347575219180280E+00   0.314341981754119E+00   0.139770E-01   0.000000E+00   0.123591E+03  -0.575073E-17
   LPB:    2  -0.345658886628030E+00   0.116053443569124E+00   0.153156E-01   0.117419E+00   0.153408E+03   0.370711E-15
   LPB:    3  -0.345226685451956E+00   0.782225414329642E-01   0.203858E-01   0.169443E+00   0.142297E+03   0.103852E-14
   LPB:    4  -0.345071107438512E+00   0.746987872159469E-01   0.213683E-01   0.343415E+00   0.216435E+03   0.963376E-15
   LPB:    5  -0.344956086871817E+00   0.422711573231182E-01   0.246727E-01   0.640295E+00   0.128940E+03   0.911375E-15
   LPB:    6  -0.344831423940131E+00   0.181409072241657E-01   0.371216E-01   0.720365E+00   0.134326E+03   0.809988E-15
   LPB:    7  -0.344724644183387E+00   0.144034219862444E-01   0.393940E-01   0.807139E+00   0.183726E+03   0.311254E-15
  Finished solving LPB equations
  A_corr:   -0.266052868172799     
 End minimization
 Ecorr=   1486.94026949874     
 A_corr= -0.266052868172799     
 Ecorr_band=  -1487.20632236692     
 End Solvation calculations
RMM:  17    -0.133294900566E+03    0.23438E-02   -0.41786E-03  4097   0.203E-01    0.400E-01
 Begin Solvation calculations
  rms_SCF =   0.166133995516967      tol =   1.661339955169671E-002
 Begin minimization
 Creating dielectric and ionic cavities
  area:      150.297432996700     
  volume:    678.691726818281     
  Acav:     7.890615232326746E-002
  Solving linear dielectric/ionic screening model
        iter                  A_solv                     rms
   LPB:       -0.368354075982531E+00   0.107270837095155E+01
   LPB:    0  -0.368303030274208E+00   0.110762509200203E+01   0.176219E-02   0.000000E+00   0.328762E+02   0.579343E-01
   LPB:    1  -0.354050511783600E+00   0.295023220126877E+00   0.138467E-01   0.000000E+00   0.111123E+03  -0.553624E-18
   LPB:    2  -0.352321072832562E+00   0.119009380785268E+00   0.147477E-01   0.113930E+00   0.170846E+03   0.920753E-15
   LPB:    3  -0.351961580028932E+00   0.760341537497767E-01   0.189212E-01   0.162016E+00   0.130184E+03   0.157632E-14
   LPB:    4  -0.351832269118547E+00   0.622227569340617E-01   0.201314E-01   0.338081E+00   0.213027E+03   0.219643E-14
   LPB:    5  -0.351740657484521E+00   0.359295504250902E-01   0.259476E-01   0.549657E+00   0.119157E+03   0.241314E-14
   LPB:    6  -0.351645073566944E+00   0.160203081800275E-01   0.382520E-01   0.707746E+00   0.130027E+03   0.237919E-14
  Finished solving LPB equations
  A_corr:   -0.272738921243676     
 End minimization
 Ecorr=   1482.65048307039     
 A_corr= -0.272738921243676     
 Ecorr_band=  -1482.92322199163     
 End Solvation calculations
RMM:  18    -0.133294810024E+03    0.90541E-04   -0.30669E-03  4169   0.126E-01    0.135E-01
 Begin Solvation calculations
  rms_SCF =   0.166133995516967      tol =   1.661339955169671E-002
 Begin minimization
 Creating dielectric and ionic cavities
  area:      150.530443252759     
  volume:    678.328026193818     
  Acav:     7.902848270769829E-002
  Solving linear dielectric/ionic screening model
        iter                  A_solv                     rms
   LPB:       -0.364872910344049E+00   0.956587708724882E+00
   LPB:    0  -0.364868642704407E+00   0.948458983289193E+00  -0.509396E-03   0.000000E+00   0.328933E+02  -0.167557E-01
   LPB:    1  -0.356658512937346E+00   0.211387496916835E+00   0.136110E-01   0.000000E+00   0.942805E+02   0.860231E-18
   LPB:    2  -0.355739353747479E+00   0.100104443419662E+00   0.139277E-01   0.109408E+00   0.210189E+03   0.105331E-14
   LPB:    3  -0.355555737174492E+00   0.504839078615212E-01   0.174114E-01   0.159797E+00   0.112342E+03   0.599788E-15
   LPB:    4  -0.355464229703872E+00   0.525736038870254E-01   0.250242E-01   0.346751E+00   0.181520E+03   0.800664E-15
   LPB:    5  -0.355382574331018E+00   0.386014105248408E-01   0.302585E-01   0.737972E+00   0.880631E+02   0.910139E-15
   LPB:    6  -0.355295371866963E+00   0.153873219467490E-01   0.366209E-01   0.882394E+00   0.104108E+03   0.138983E-14
  Finished solving LPB equations
  A_corr:   -0.276266889159265     
 End minimization
 Ecorr=   1480.35430247237     
 A_corr= -0.276266889159265     
 Ecorr_band=  -1480.63056936153     
 End Solvation calculations
RMM:  19    -0.133295753456E+03   -0.94343E-03   -0.83314E-04  4140   0.785E-02    0.107E-01
 Begin Solvation calculations
  rms_SCF =   0.166133995516967      tol =   1.661339955169671E-002
 Begin minimization
 Creating dielectric and ionic cavities
  area:      150.738987157445     
  volume:    678.011834535652     
  Acav:     7.913796825765858E-002
  Solving linear dielectric/ionic screening model
        iter                  A_solv                     rms
   LPB:       -0.366176932583548E+00   0.898717968110854E+00
   LPB:    0  -0.366168628969001E+00   0.887987246611407E+00  -0.710390E-03   0.000000E+00   0.329081E+02  -0.233776E-01
   LPB:    1  -0.359819525965503E+00   0.196918023751944E+00   0.133900E-01   0.000000E+00   0.863964E+02  -0.979408E-18
   LPB:    2  -0.359085861519086E+00   0.857078852501458E-01   0.134308E-01   0.115203E+00   0.228376E+03   0.235439E-15
   LPB:    3  -0.358948943886827E+00   0.394570227350763E-01   0.169753E-01   0.147654E+00   0.125111E+03   0.246004E-15
   LPB:    4  -0.358886807953630E+00   0.413382528099067E-01   0.249869E-01   0.308311E+00   0.177411E+03   0.284455E-15
   LPB:    5  -0.358831841511659E+00   0.318226069225184E-01   0.314143E-01   0.703625E+00   0.855454E+02   0.298810E-15
   LPB:    6  -0.358768547653772E+00   0.135202914486454E-01   0.385805E-01   0.937611E+00   0.981294E+02   0.579843E-15
  Finished solving LPB equations
  A_corr:   -0.279630579396114     
 End minimization
 Ecorr=   1478.51799040537     
 A_corr= -0.279630579396114     
 Ecorr_band=  -1478.79762098476     
 End Solvation calculations
RMM:  20    -0.133296567145E+03   -0.81369E-03   -0.49102E-04  4077   0.581E-02    0.872E-02
 Begin Solvation calculations
  rms_SCF =   0.166133995516967      tol =   1.661339955169671E-002
 Begin minimization
 Creating dielectric and ionic cavities
  area:      150.966443282994     
  volume:    677.762911476199     
  Acav:     7.925738272357190E-002
  Solving linear dielectric/ionic screening model
        iter                  A_solv                     rms
   LPB:       -0.375058100849882E+00   0.126020789666093E+01
   LPB:    0  -0.375000174191182E+00   0.123351641885321E+01  -0.187597E-02   0.000000E+00   0.329198E+02  -0.617565E-01
   LPB:    1  -0.364659137195589E+00   0.264871770420629E+00   0.130428E-01   0.000000E+00   0.773808E+02   0.164547E-17
   LPB:    2  -0.363424202261575E+00   0.103429309774046E+00   0.130219E-01   0.119613E+00   0.241645E+03   0.429977E-15
   LPB:    3  -0.363204125232821E+00   0.436375966191452E-01   0.170094E-01   0.136432E+00   0.137744E+03   0.165095E-15
   LPB:    4  -0.363120570547784E+00   0.442272256050263E-01   0.238237E-01   0.271067E+00   0.179315E+03   0.565981E-16
   LPB:    5  -0.363063528292356E+00   0.302908765609297E-01   0.283063E-01   0.574582E+00   0.889697E+02   0.718915E-16
   LPB:    6  -0.363007900312918E+00   0.129434010125074E-01   0.362858E-01   0.760753E+00   0.115263E+03   0.140149E-15
  Finished solving LPB equations
  A_corr:   -0.283750517589346     
 End minimization
 Ecorr=   1476.69046468639     
 A_corr= -0.283750517589346     
 Ecorr_band=  -1476.97421520398     
 End Solvation calculations
RMM:  21    -0.133297519861E+03   -0.95272E-03   -0.53900E-04  4077   0.454E-02    0.540E-02
 Begin Solvation calculations
  rms_SCF =   9.693195253083153E-002 tol =   9.693195253083153E-003
 Begin minimization
 Creating dielectric and ionic cavities
  area:      151.152546291950     
  volume:    677.827636599661     
  Acav:     7.935508680327381E-002
  Solving linear dielectric/ionic screening model
        iter                  A_solv                     rms
   LPB:       -0.380793048630565E+00   0.139780315841575E+01
   LPB:    0  -0.380619176212671E+00   0.135213156030127E+01  -0.325029E-02   0.000000E+00   0.329168E+02  -0.106989E+00
   LPB:    1  -0.368682796445991E+00   0.271650471503595E+00   0.130403E-01   0.000000E+00   0.746409E+02  -0.613951E-18
   LPB:    2  -0.367379093263298E+00   0.110723507897948E+00   0.128209E-01   0.111090E+00   0.249310E+03   0.976420E-15
   LPB:    3  -0.367142648300298E+00   0.415401642644431E-01   0.168181E-01   0.138259E+00   0.131531E+03   0.929841E-15
   LPB:    4  -0.367053583508443E+00   0.456817666213131E-01   0.248078E-01   0.255366E+00   0.172734E+03   0.111324E-14
   LPB:    5  -0.366992227004882E+00   0.329209811747877E-01   0.283394E-01   0.603049E+00   0.868429E+02   0.106683E-14
   LPB:    6  -0.366932673564166E+00   0.142084626144683E-01   0.351003E-01   0.783657E+00   0.111833E+03   0.780277E-15
   LPB:    7  -0.366884635139500E+00   0.766597311033018E-02   0.374684E-01   0.755663E+00   0.188715E+03   0.534738E-15
  Finished solving LPB equations
  A_corr:   -0.287529548336227     
 End minimization
 Ecorr=   1475.14298206427     
 A_corr= -0.287529548336227     
 Ecorr_band=  -1475.43051161260     
 End Solvation calculations
RMM:  22    -0.133298505938E+03   -0.98608E-03   -0.44824E-04  4050   0.444E-02    0.490E-02
 Begin Solvation calculations
  rms_SCF =   9.115498249953047E-002 tol =   9.115498249953047E-003
 Begin minimization
 Creating dielectric and ionic cavities
  area:      151.210977605834     
  volume:    678.033474521649     
  Acav:     7.938576324306294E-002
  Solving linear dielectric/ionic screening model
        iter                  A_solv                     rms
   LPB:       -0.374008470326876E+00   0.951303488617968E+00
   LPB:    0  -0.373882251521301E+00   0.915705190404978E+00  -0.276970E-02   0.000000E+00   0.329071E+02  -0.911427E-01
   LPB:    1  -0.369378016340982E+00   0.174762018196222E+00   0.124699E-01   0.000000E+00   0.674966E+02   0.608250E-17
   LPB:    2  -0.368876519139667E+00   0.588568306027160E-01   0.124064E-01   0.111909E+00   0.259850E+03  -0.484477E-16
   LPB:    3  -0.368790799493939E+00   0.197312325201977E-01   0.173760E-01   0.122042E+00   0.154163E+03  -0.703379E-16
   LPB:    4  -0.368766560519803E+00   0.214445328106998E-01   0.239886E-01   0.204824E+00   0.168608E+03  -0.462896E-16
   LPB:    5  -0.368749111447662E+00   0.198773727289570E-01   0.311898E-01   0.553668E+00   0.987817E+02  -0.130331E-16
   LPB:    6  -0.368724559833197E+00   0.116555616342057E-01   0.423912E-01   0.103525E+01   0.789722E+02   0.961334E-16
   LPB:    7  -0.368698819081881E+00   0.573248819419068E-02   0.391180E-01   0.113616E+01   0.105228E+03   0.255103E-15
  Finished solving LPB equations
  A_corr:   -0.289313055838818     
 End minimization
 Ecorr=   1474.26941714920     
 A_corr= -0.289313055838818     
 Ecorr_band=  -1474.55873020504     
 End Solvation calculations
RMM:  23    -0.133298853452E+03   -0.34751E-03   -0.19865E-04  3902   0.327E-02    0.410E-02
 Begin Solvation calculations
  rms_SCF =   7.152453585320764E-002 tol =   7.152453585320765E-003
 Begin minimization
 Creating dielectric and ionic cavities
  area:      151.265621515748     
  volume:    678.179858329806     
  Acav:     7.941445129576763E-002
  Solving linear dielectric/ionic screening model
        iter                  A_solv                     rms
   LPB:       -0.375272325645947E+00   0.929113048277276E+00
   LPB:    0  -0.375160514743076E+00   0.896508136193439E+00  -0.260710E-02   0.000000E+00   0.329002E+02  -0.857742E-01
   LPB:    1  -0.371241672276220E+00   0.166083943700158E+00   0.120675E-01   0.000000E+00   0.654052E+02  -0.564869E-17
   LPB:    2  -0.370782533356907E+00   0.494821161348556E-01   0.124206E-01   0.113831E+00   0.254693E+03  -0.340648E-15
   LPB:    3  -0.370713160766599E+00   0.161564193545019E-01   0.173149E-01   0.108384E+00   0.172278E+03  -0.428618E-15
   LPB:    4  -0.370697058540525E+00   0.162220520017159E-01   0.224859E-01   0.178734E+00   0.178632E+03  -0.503844E-15
   LPB:    5  -0.370688834893916E+00   0.122783523300367E-01   0.264904E-01   0.433512E+00   0.105621E+03  -0.407692E-15
   LPB:    6  -0.370680432170805E+00   0.650715630465347E-02   0.365507E-01   0.740540E+00   0.996258E+02  -0.487111E-15
  Finished solving LPB equations
  A_corr:   -0.291265980875037     
 End minimization
 Ecorr=   1473.53645392465     
 A_corr= -0.291265980875037     
 Ecorr_band=  -1473.82771990552     
 End Solvation calculations
RMM:  24    -0.133298899488E+03   -0.46036E-04   -0.23079E-04  3799   0.247E-02    0.465E-02
 Begin Solvation calculations
  rms_SCF =   5.304645811097114E-002 tol =   5.304645811097114E-003
 Begin minimization
 Creating dielectric and ionic cavities
  area:      151.294765478186     
  volume:    678.251172879077     
  Acav:     7.942975187604741E-002
  Solving linear dielectric/ionic screening model
        iter                  A_solv                     rms
   LPB:       -0.374117075367156E+00   0.697713984199087E+00
   LPB:    0  -0.374074050951728E+00   0.682077112671314E+00  -0.161732E-02   0.000000E+00   0.328969E+02  -0.532047E-01
   LPB:    1  -0.372196115439876E+00   0.112839625376935E+00   0.111519E-01   0.000000E+00   0.639178E+02  -0.268060E-17
   LPB:    2  -0.371963381436618E+00   0.289962816676295E-01   0.127692E-01   0.108234E+00   0.223816E+03   0.305019E-15
   LPB:    3  -0.371931456960142E+00   0.860888551098821E-02   0.185025E-01   0.946668E-01   0.174424E+03   0.329894E-15
   LPB:    4  -0.371920807074787E+00   0.114357260787651E-01   0.303035E-01   0.203685E+00   0.154940E+03   0.360873E-15
   LPB:    5  -0.371912932467864E+00   0.137879768159790E-01   0.331519E-01   0.675876E+00   0.986448E+02   0.306339E-15
   LPB:    6  -0.371905461003264E+00   0.848316795078718E-02   0.313027E-01   0.100486E+01   0.782630E+02   0.462461E-15
   LPB:    7  -0.371898662740445E+00   0.360741300349170E-02   0.349495E-01   0.814955E+00   0.149571E+03   0.576884E-15
  Finished solving LPB equations
  A_corr:   -0.292468910864398     
 End minimization
 Ecorr=   1472.89991646568     
 A_corr= -0.292468910864398     
 Ecorr_band=  -1473.19238537654     
 End Solvation calculations
RMM:  25    -0.133298842603E+03    0.56885E-04   -0.69438E-05  2876   0.208E-02    0.458E-02
 Begin Solvation calculations
  rms_SCF =   1.155485800586323E-002 tol =   1.155485800586323E-003
 Begin minimization
 Creating dielectric and ionic cavities
  area:      151.291386163009     
  volume:    678.260167840503     
  Acav:     7.942797773557982E-002
  Solving linear dielectric/ionic screening model
        iter                  A_solv                     rms
   LPB:       -0.372447883743558E+00   0.271278550576510E+00
   LPB:    0  -0.372438004120826E+00   0.263819572425790E+00  -0.775016E-03   0.000000E+00   0.328965E+02  -0.254953E-01
   LPB:    1  -0.372163292205847E+00   0.359078584673977E-01   0.101052E-01   0.000000E+00   0.757332E+02   0.759122E-18
   LPB:    2  -0.372138844498168E+00   0.856819403143266E-02   0.124903E-01   0.720000E-01   0.229350E+03   0.846764E-16
   LPB:    3  -0.372135178587694E+00   0.227028649945999E-02   0.212807E-01   0.880100E-01   0.156973E+03   0.976054E-16
   LPB:    4  -0.372133620073878E+00   0.175484318154201E-02   0.388292E-01   0.233000E+00   0.352108E+03   0.941587E-16
   LPB:    5  -0.372131065256085E+00   0.270142505762670E-02   0.611296E-01   0.104125E+01   0.216078E+03   0.874697E-16
   LPB:    6  -0.372128184339764E+00   0.315638908180815E-02   0.434059E-01   0.158808E+01   0.156896E+03   0.722939E-16
   LPB:    7  -0.372126468203509E+00   0.557817563130152E-02   0.322076E-01   0.802807E+00   0.108434E+03   0.592085E-16
   LPB:    8  -0.372125427301052E+00   0.408846375526720E-02   0.269547E-01   0.724740E+00   0.881750E+02   0.699365E-16
   LPB:    9  -0.372124704656749E+00   0.171570722112090E-02   0.278530E-01   0.671858E+00   0.113425E+03   0.270573E-16
   LPB:   10  -0.372124303159722E+00   0.829173351990959E-03   0.295628E-01   0.523461E+00   0.184766E+03   0.104715E-16
  Finished solving LPB equations
  A_corr:   -0.292696325424142     
 End minimization
 Ecorr=   1472.50984011635     
 A_corr= -0.292696325424142     
 Ecorr_band=  -1472.80253644178     
 End Solvation calculations
RMM:  26    -0.133298970045E+03   -0.12744E-03   -0.34869E-05  2552   0.189E-02    0.374E-02
 Begin Solvation calculations
  rms_SCF =   1.155485800586323E-002 tol =   1.155485800586323E-003
 Begin minimization
 Creating dielectric and ionic cavities
  area:      151.270100914985     
  volume:    678.237995647852     
  Acav:     7.941680298036713E-002
  Solving linear dielectric/ionic screening model
        iter                  A_solv                     rms
   LPB:       -0.371826084306860E+00   0.212117088015130E+00
   LPB:    0  -0.371825071463554E+00   0.209838611550034E+00   0.248144E-03   0.000000E+00   0.328975E+02   0.816334E-02
   LPB:    1  -0.371576712737808E+00   0.430994900862194E-01   0.125996E-01   0.000000E+00   0.702358E+02   0.608058E-18
   LPB:    2  -0.371545888088153E+00   0.144113004749498E-01   0.126902E-01   0.123228E+00   0.250357E+03   0.385523E-16
   LPB:    3  -0.371540099778705E+00   0.541449655526399E-02   0.183321E-01   0.129989E+00   0.156432E+03   0.736168E-16
   LPB:    4  -0.371538216013917E+00   0.567161421405887E-02   0.235057E-01   0.253813E+00   0.243844E+03   0.774255E-16
   LPB:    5  -0.371537372203435E+00   0.358600912586477E-02   0.237479E-01   0.443370E+00   0.100438E+03   0.817967E-16
   LPB:    6  -0.371536815692395E+00   0.147147619203672E-02   0.295370E-01   0.530259E+00   0.179117E+03   0.775902E-16
   LPB:    7  -0.371536408638674E+00   0.818354671788783E-03   0.362949E-01   0.595250E+00   0.313587E+03   0.720469E-16
  Finished solving LPB equations
  A_corr:   -0.292119605658307     
 End minimization
 Ecorr=   1472.66778005034     
 A_corr= -0.292119605658307     
 Ecorr_band=  -1472.95989965599     
 End Solvation calculations
RMM:  27    -0.133299099363E+03   -0.12932E-03   -0.25794E-05  2509   0.160E-02    0.237E-02
 Begin Solvation calculations
  rms_SCF =   5.617616882282391E-003 tol =   5.617616882282391E-004
 Begin minimization
 Creating dielectric and ionic cavities
  area:      151.260164886593     
  volume:    678.245172869481     
  Acav:     7.941158656546118E-002
  Solving linear dielectric/ionic screening model
        iter                  A_solv                     rms
   LPB:       -0.371777516087497E+00   0.155792686303974E+00
   LPB:    0  -0.371763146535136E+00   0.139986025330923E+00  -0.934668E-03   0.000000E+00   0.328972E+02  -0.307479E-01
   LPB:    1  -0.371634484969008E+00   0.291274655665558E-01   0.104098E-01   0.000000E+00   0.114023E+03   0.121331E-17
   LPB:    2  -0.371626213350372E+00   0.501933744021024E-02   0.113868E-01   0.587735E-01   0.163881E+03  -0.153708E-15
   LPB:    3  -0.371624627521638E+00   0.211988462596015E-02   0.228488E-01   0.955440E-01   0.151194E+03  -0.131905E-15
   LPB:    4  -0.371624097807763E+00   0.216442039273642E-02   0.313511E-01   0.243442E+00   0.282711E+03  -0.141860E-15
   LPB:    5  -0.371623734872918E+00   0.259355044634467E-02   0.324747E-01   0.661446E+00   0.766191E+02  -0.148833E-15
   LPB:    6  -0.371623411478610E+00   0.193654864519652E-02   0.310992E-01   0.930465E+00   0.284276E+03  -0.166503E-15
   LPB:    7  -0.371623133343911E+00   0.126895339253274E-02   0.324166E-01   0.825096E+00   0.127354E+03  -0.179578E-15
   LPB:    8  -0.371622916249603E+00   0.553286998441840E-03   0.367761E-01   0.688011E+00   0.295095E+03  -0.190180E-15
  Finished solving LPB equations
  A_corr:   -0.292211329684142     
 End minimization
 Ecorr=   1472.45849296007     
 A_corr= -0.292211329684142     
 Ecorr_band=  -1472.75070428976     
 End Solvation calculations
RMM:  28    -0.133299231443E+03   -0.13208E-03   -0.30346E-05  2590   0.132E-02    0.216E-02
 Begin Solvation calculations
  rms_SCF =   5.617616882282391E-003 tol =   5.617616882282391E-004
 Begin minimization
 Creating dielectric and ionic cavities
  area:      151.253947457336     
  volume:    678.241605504128     
  Acav:     7.940832241510165E-002
  Solving linear dielectric/ionic screening model
        iter                  A_solv                     rms
   LPB:       -0.371469924101370E+00   0.843982439484878E-01
   LPB:    0  -0.371469922800741E+00   0.844344234006797E-01  -0.889224E-05   0.000000E+00   0.328973E+02  -0.292531E-03
   LPB:    1  -0.371430623222491E+00   0.178293615805912E-01   0.125682E-01   0.000000E+00   0.696746E+02   0.205576E-19
   LPB:    2  -0.371425460140026E+00   0.561376519840322E-02   0.127053E-01   0.129960E+00   0.251422E+03  -0.319607E-16
   LPB:    3  -0.371424441310230E+00   0.190804932962179E-02   0.191100E-01   0.131195E+00   0.163629E+03  -0.250811E-17
   LPB:    4  -0.371424114643239E+00   0.216340453817892E-02   0.245927E-01   0.249149E+00   0.306560E+03  -0.125906E-16
   LPB:    5  -0.371423962526475E+00   0.174837669196093E-02   0.251960E-01   0.454513E+00   0.101546E+03  -0.144958E-16
   LPB:    6  -0.371423839629182E+00   0.962754068696809E-03   0.319910E-01   0.636312E+00   0.137959E+03  -0.226800E-16
   LPB:    7  -0.371423716091076E+00   0.527017828651397E-03   0.400244E-01   0.803454E+00   0.216400E+03  -0.142522E-16
  Finished solving LPB equations
  A_corr:   -0.292015393675974     
 End minimization
 Ecorr=   1472.50426660287     
 A_corr= -0.292015393675974     
 Ecorr_band=  -1472.79628199655     
 End Solvation calculations
RMM:  29    -0.133299262882E+03   -0.31438E-04   -0.99200E-06  2380   0.112E-02    0.155E-02
 Begin Solvation calculations
  rms_SCF =   5.617616882282391E-003 tol =   5.617616882282391E-004
 Begin minimization
 Creating dielectric and ionic cavities
  area:      151.253401203555     
  volume:    678.232154315937     
  Acav:     7.940803563186632E-002
  Solving linear dielectric/ionic screening model
        iter                  A_solv                     rms
   LPB:       -0.371428169449438E+00   0.745285336222059E-01
   LPB:    0  -0.371427327939619E+00   0.723711881174561E-01  -0.226184E-03   0.000000E+00   0.328978E+02  -0.744094E-02
   LPB:    1  -0.371395405635964E+00   0.156163565475346E-01   0.127608E-01   0.000000E+00   0.732611E+02  -0.261767E-18
   LPB:    2  -0.371391640946445E+00   0.572481552050097E-02   0.124918E-01   0.120472E+00   0.259137E+03  -0.363051E-16
   LPB:    3  -0.371390737126019E+00   0.157288292177522E-02   0.197446E-01   0.151891E+00   0.139114E+03  -0.340579E-16
   LPB:    4  -0.371390443247212E+00   0.117199800247816E-02   0.283020E-01   0.226838E+00   0.365981E+03  -0.492361E-16
   LPB:    5  -0.371390272104618E+00   0.135028093084376E-02   0.344685E-01   0.478173E+00   0.116305E+03  -0.553224E-16
   LPB:    6  -0.371390137428264E+00   0.168932473601845E-02   0.341680E-01   0.793845E+00   0.159348E+03  -0.491142E-16
   LPB:    7  -0.371390025465978E+00   0.118270950936516E-02   0.297847E-01   0.953689E+00   0.857424E+02  -0.497079E-16
   LPB:    8  -0.371389914835817E+00   0.585177506816055E-03   0.359103E-01   0.819551E+00   0.230529E+03  -0.582512E-16
   LPB:    9  -0.371389813423610E+00   0.437843043058565E-03   0.412926E-01   0.797194E+00   0.269882E+03  -0.660678E-16
  Finished solving LPB equations
  A_corr:   -0.291981777791744     
 End minimization
 Ecorr=   1472.41972983421     
 A_corr= -0.291981777791744     
 Ecorr_band=  -1472.71171161200     
 End Solvation calculations
RMM:  30    -0.133299290716E+03   -0.27834E-04   -0.82228E-06  2393   0.716E-03    0.566E-03
 Begin Solvation calculations
  rms_SCF =   2.483585418606311E-003 tol =   2.483585418606311E-004
 Begin minimization
 Creating dielectric and ionic cavities
  area:      151.265062272763     
  volume:    678.216531821757     
  Acav:     7.941415769320044E-002
  Solving linear dielectric/ionic screening model
        iter                  A_solv                     rms
   LPB:       -0.371838000695043E+00   0.103374757645286E+00
   LPB:    0  -0.371832184526765E+00   0.867038749122674E-01  -0.594628E-03   0.000000E+00   0.328985E+02  -0.195624E-01
   LPB:    1  -0.371797530790221E+00   0.139733783651405E-01   0.108308E-01   0.000000E+00   0.666490E+02  -0.158082E-17
   LPB:    2  -0.371794321584989E+00   0.455813898751555E-02   0.125788E-01   0.797386E-01   0.179700E+03   0.974725E-16
   LPB:    3  -0.371793842823493E+00   0.185782160888088E-02   0.170174E-01   0.110273E+00   0.151423E+03   0.128161E-15
   LPB:    4  -0.371793711088470E+00   0.136126050869867E-02   0.245887E-01   0.190433E+00   0.857280E+02   0.133223E-15
   LPB:    5  -0.371793634000818E+00   0.858940584954057E-03   0.252627E-01   0.569558E+00   0.297505E+03   0.141719E-15
   LPB:    6  -0.371793564443818E+00   0.385553222602752E-03   0.367691E-01   0.619945E+00   0.105489E+03   0.149680E-15
   LPB:    7  -0.371793506195526E+00   0.247887067352779E-03   0.432983E-01   0.711139E+00   0.356190E+03   0.158850E-15
  Finished solving LPB equations
  A_corr:   -0.292379348502325     
 End minimization
 Ecorr=   1472.17934351855     
 A_corr= -0.292379348502325     
 Ecorr_band=  -1472.47172286705     
 End Solvation calculations
RMM:  31    -0.133299303613E+03   -0.12897E-04   -0.43265E-06  2345   0.697E-03    0.499E-03
 Begin Solvation calculations
  rms_SCF =   1.928389604390398E-003 tol =   1.928389604390398E-004
 Begin minimization
 Creating dielectric and ionic cavities
  area:      151.267749246001     
  volume:    678.218008542979     
  Acav:     7.941556835415056E-002
  Solving linear dielectric/ionic screening model
        iter                  A_solv                     rms
   LPB:       -0.371933170698994E+00   0.421237948536565E-01
   LPB:    0  -0.371932266295030E+00   0.355871990239588E-01  -0.234481E-03   0.000000E+00   0.328985E+02  -0.771408E-02
   LPB:    1  -0.371927367899332E+00   0.517874185416005E-02   0.992300E-02   0.000000E+00   0.664489E+02   0.165902E-19
   LPB:    2  -0.371926914741387E+00   0.146201559799456E-02   0.134335E-01   0.683362E-01   0.123216E+03   0.326226E-16
   LPB:    3  -0.371926849646657E+00   0.782763506038291E-03   0.178770E-01   0.107942E+00   0.181281E+03   0.424389E-16
   LPB:    4  -0.371926826288130E+00   0.608088644535621E-03   0.271136E-01   0.236597E+00   0.776735E+02   0.431515E-16
   LPB:    5  -0.371926794113289E+00   0.590293988154131E-03   0.424700E-01   0.879377E+00   0.208110E+03   0.389153E-16
   LPB:    6  -0.371926712301891E+00   0.598977631272899E-03   0.658505E-01   0.163991E+01   0.413749E+02   0.368560E-16
   LPB:    7  -0.371926609543186E+00   0.347084627343147E-03   0.470526E-01   0.175784E+01   0.838433E+02   0.222313E-16
   LPB:    8  -0.371926530212321E+00   0.471063621739089E-03   0.403990E-01   0.899158E+00   0.155617E+03   0.860874E-17
   LPB:    9  -0.371926451921787E+00   0.334388059556309E-03   0.474006E-01   0.841113E+00   0.121716E+04  -0.813555E-18
   LPB:   10  -0.371926354202244E+00   0.453438188722815E-03   0.503303E-01   0.117551E+01   0.136268E+04  -0.835184E-17
   LPB:   11  -0.371926247312024E+00   0.480008202506136E-03   0.445504E-01   0.123576E+01   0.139109E+04  -0.172596E-16
   LPB:   12  -0.371926148800875E+00   0.424639950257651E-03   0.399484E-01   0.102778E+01   0.132418E+04  -0.318675E-16
   LPB:   13  -0.371926061817508E+00   0.360445260317367E-03   0.405603E-01   0.869658E+00   0.134460E+04  -0.453066E-16
   LPB:   14  -0.371925981215060E+00   0.286723479261235E-03   0.426524E-01   0.881190E+00   0.775234E+03  -0.577283E-16
   LPB:   15  -0.371925918411930E+00   0.298226288224719E-03   0.398490E-01   0.833986E+00   0.924276E+03  -0.706532E-16
   LPB:   16  -0.371925867785723E+00   0.223675654312970E-03   0.415866E-01   0.772430E+00   0.444589E+03  -0.811189E-16
   LPB:   17  -0.371925828492774E+00   0.245822690828917E-03   0.400854E-01   0.805205E+00   0.669593E+03  -0.911475E-16
   LPB:   18  -0.371925795710113E+00   0.159723373163275E-03   0.411629E-01   0.812475E+00   0.294426E+03  -0.994032E-16
  Finished solving LPB equations
  A_corr:   -0.292510227355962     
 End minimization
 Ecorr=   1472.02533962715     
 A_corr= -0.292510227355962     
 Ecorr_band=  -1472.31784985451     
 End Solvation calculations
RMM:  32    -0.133299308893E+03   -0.52805E-05   -0.17363E-06  2314   0.485E-03
 Begin Solvation calculations
  rms_SCF =   1.928389604390398E-003 tol =   1.928389604390398E-004
 Begin minimization
 Creating dielectric and ionic cavities
  area:      151.268303306959     
  volume:    678.220185435719     
  Acav:     7.941585923615355E-002
  Solving linear dielectric/ionic screening model
        iter                  A_solv                     rms
   LPB:       -0.371978694085067E+00   0.192283124298852E-01
   LPB:    0  -0.371978320431452E+00   0.127094676987898E-01  -0.150717E-03   0.000000E+00   0.328984E+02  -0.495834E-02
   LPB:    1  -0.371976846429053E+00   0.352846677999164E-02   0.120035E-01   0.000000E+00   0.797061E+02   0.571675E-19
   LPB:    2  -0.371976747935303E+00   0.934619396964793E-03   0.131981E-01   0.607722E-01   0.910321E+02   0.518809E-16
   LPB:    3  -0.371976720167588E+00   0.627460099805133E-03   0.202878E-01   0.183404E+00   0.397707E+03   0.584395E-16
   LPB:    4  -0.371976707737683E+00   0.470972217829955E-03   0.222881E-01   0.407464E+00   0.115503E+03   0.606154E-16
   LPB:    5  -0.371976697486281E+00   0.265957894811183E-03   0.298869E-01   0.615047E+00   0.535020E+03   0.590802E-16
   LPB:    6  -0.371976686416927E+00   0.207130965007675E-03   0.412474E-01   0.782390E+00   0.381558E+03   0.597522E-16
   LPB:    7  -0.371976672866459E+00   0.143724760420970E-03   0.477535E-01   0.105736E+01   0.144658E+04   0.597834E-16
  Finished solving LPB equations
  A_corr:   -0.292560813630305     
 End minimization
 Ecorr=   1471.97235229541     
 A_corr= -0.292560813630305     
 Ecorr_band=  -1472.26491310904     
 End Solvation calculations
   1 F= -.13329931E+03 E0= -.13329821E+03  d E =-.133299E+03
quench:  g(F)=  0.000E+00 g(S)=  0.000E+00 dE (1.order)= 0.000E+00
 bond charge predicted
       N       E                     dE             d eps       ncg     rms          rms(c)
 Begin Solvation calculations
  rms_SCF =   1.928389604390398E-003 tol =   1.928389604390398E-004
 Begin minimization
 Creating dielectric and ionic cavities
  area:      151.315821028051     
  volume:    678.210274010342     
  Acav:     7.944080603972688E-002
  Solving linear dielectric/ionic screening model
        iter                  A_solv                     rms
   LPB:       -0.372810404800833E+00   0.216219938588107E-02
   LPB:    0  -0.372810404762243E+00   0.218698296611220E-02  -0.153165E-05   0.000000E+00   0.328988E+02  -0.503895E-04
   LPB:    1  -0.372483748688527E+00   0.114269169319792E-02   0.157451E-01   0.000000E+00   0.499667E+06  -0.215374E-20
   LPB:    2  -0.372449288130234E+00   0.136765953056853E-02   0.275213E-01   0.603545E-01   0.593998E+05  -0.501045E-17
   LPB:    3  -0.372438155932252E+00   0.294264597633264E-02   0.326007E-01   0.272709E+00   0.149428E+05  -0.776962E-17
   LPB:    4  -0.372433596405807E+00   0.762436717495259E-02   0.331718E-01   0.402529E+00   0.128040E+04  -0.985535E-17
   LPB:    5  -0.372431811848983E+00   0.900503448943368E-02   0.221703E-01   0.585608E+00   0.184826E+03  -0.518417E-17
   LPB:    6  -0.372430421650081E+00   0.277893901484121E-02   0.219847E-01   0.785593E+00   0.324359E+03   0.442163E-17
   LPB:    7  -0.372429423066379E+00   0.217353687054847E-02   0.353877E-01   0.446247E+00   0.132515E+04   0.188948E-16
   LPB:    8  -0.372428874719782E+00   0.328642795046510E-02   0.315824E-01   0.615288E+00   0.265461E+03   0.287319E-16
   LPB:    9  -0.372428534767398E+00   0.206943251176471E-02   0.246457E-01   0.794451E+00   0.210175E+03   0.223225E-16
   LPB:   10  -0.372428267753515E+00   0.698956668191092E-03   0.317667E-01   0.609375E+00   0.426411E+03  -0.118941E-16
   LPB:   11  -0.372428092813484E+00   0.443064840726045E-03   0.384301E-01   0.541573E+00   0.258337E+04  -0.531849E-16
   LPB:   12  -0.372427976814250E+00   0.490751680340616E-03   0.385640E-01   0.660778E+00   0.138483E+04  -0.831254E-16
   LPB:   13  -0.372427898639941E+00   0.427377295677759E-03   0.346582E-01   0.749867E+00   0.135707E+04  -0.103925E-15
   LPB:   14  -0.372427842539776E+00   0.257618258851455E-03   0.350836E-01   0.708928E+00   0.128899E+04  -0.119993E-15
   LPB:   15  -0.372427800095952E+00   0.169336285929196E-03   0.394269E-01   0.673228E+00   0.284884E+04  -0.130222E-15
  Finished solving LPB equations
  A_corr:   -0.292986994056225     
 End minimization
 Ecorr=   1471.95656761267     
 A_corr= -0.292986994056225     
 Ecorr_band=  -1472.24955460673     
 End Solvation calculations
DAV:   1    -0.133300916305E+03   -0.16127E-02   -0.25619E-02  4167   0.290E-01    0.478E-02
 Begin Solvation calculations
  rms_SCF =   1.928389604390398E-003 tol =   1.928389604390398E-004
 Begin minimization
 Creating dielectric and ionic cavities
  area:      151.276125765465     
  volume:    678.173187270134     
  Acav:     7.941996602686895E-002
  Solving linear dielectric/ionic screening model
        iter                  A_solv                     rms
   LPB:       -0.372997477863849E+00   0.136766233786720E+00
   LPB:    0  -0.372987823313589E+00   0.121321194366262E+00  -0.766089E-03   0.000000E+00   0.329006E+02  -0.252048E-01
   LPB:    1  -0.372914897718800E+00   0.234492292720929E-01   0.107967E-01   0.000000E+00   0.805609E+02  -0.530814E-18
   LPB:    2  -0.372905422754959E+00   0.427851225150096E-02   0.134029E-01   0.104662E+00   0.293753E+03   0.192641E-15
   LPB:    3  -0.372903254883651E+00   0.418908319998458E-02   0.246488E-01   0.124411E+00   0.594809E+03   0.220228E-15
   LPB:    4  -0.372902601215766E+00   0.315559102726255E-02   0.216819E-01   0.342786E+00   0.137050E+03   0.223827E-15
   LPB:    5  -0.372902243106660E+00   0.143324577610436E-02   0.244102E-01   0.486613E+00   0.323613E+03   0.251931E-15
   LPB:    6  -0.372902048814973E+00   0.638690873736978E-03   0.312247E-01   0.424142E+00   0.287744E+03   0.282616E-15
   LPB:    7  -0.372901941857493E+00   0.381000461594485E-03   0.330159E-01   0.520635E+00   0.743342E+03   0.320045E-15
   LPB:    8  -0.372901877078191E+00   0.241358877716982E-03   0.346695E-01   0.576767E+00   0.675920E+03   0.338173E-15
   LPB:    9  -0.372901835204622E+00   0.167998266221178E-03   0.371654E-01   0.602992E+00   0.684832E+03   0.348476E-15
  Finished solving LPB equations
  A_corr:   -0.293481869177753     
 End minimization
 Ecorr=   1471.84699860161     
 A_corr= -0.293481869177753     
 Ecorr_band=  -1472.14048047079     
 End Solvation calculations
RMM:   2    -0.133301026618E+03   -0.11031E-03   -0.14350E-03  5413   0.780E-02    0.456E-02
 Begin Solvation calculations
  rms_SCF =   1.928389604390398E-003 tol =   1.928389604390398E-004
 Begin minimization
 Creating dielectric and ionic cavities
  area:      151.275507042787     
  volume:    678.181173201516     
  Acav:     7.941964119746336E-002
  Solving linear dielectric/ionic screening model
        iter                  A_solv                     rms
   LPB:       -0.373019773979247E+00   0.338329661114934E-01
   LPB:    0  -0.373019678375411E+00   0.330278756723414E-01  -0.762348E-04   0.000000E+00   0.329002E+02  -0.250814E-02
   LPB:    1  -0.373015825894089E+00   0.468536595525648E-02   0.950025E-02   0.000000E+00   0.766671E+02  -0.964145E-19
   LPB:    2  -0.373015179983202E+00   0.650192470523847E-03   0.175211E-01   0.909090E-01   0.139708E+03   0.217628E-17
   LPB:    3  -0.373015086079576E+00   0.428387555785083E-03   0.273357E-01   0.931838E-01   0.380644E+03   0.374970E-17
   LPB:    4  -0.373015049453992E+00   0.411988798317404E-03   0.295530E-01   0.360769E+00   0.255284E+03   0.464171E-17
   LPB:    5  -0.373015027412737E+00   0.555021861228554E-03   0.322232E-01   0.551932E+00   0.397807E+03   0.608093E-17
   LPB:    6  -0.373015010947031E+00   0.515325252215611E-03   0.304572E-01   0.790355E+00   0.120977E+03   0.115872E-16
   LPB:    7  -0.373014996053904E+00   0.307870849187242E-03   0.317400E-01   0.867938E+00   0.412218E+03   0.147679E-16
   LPB:    8  -0.373014982645460E+00   0.160675224493387E-03   0.380468E-01   0.751071E+00   0.277705E+03   0.150416E-16
  Finished solving LPB equations
  A_corr:   -0.293595341447996     
 End minimization
 Ecorr=   1471.78580262935     
 A_corr= -0.293595341447996     
 Ecorr_band=  -1472.07939797080     
 End Solvation calculations
RMM:   3    -0.133300999047E+03    0.27572E-04   -0.83308E-05  3172   0.221E-02    0.485E-02
 Begin Solvation calculations
  rms_SCF =   1.928389604390398E-003 tol =   1.928389604390398E-004
 Begin minimization
 Creating dielectric and ionic cavities
  area:      151.275982871970     
  volume:    678.178300301836     
  Acav:     7.941989100778420E-002
  Solving linear dielectric/ionic screening model
        iter                  A_solv                     rms
   LPB:       -0.373102940671193E+00   0.138685775459259E-01
   LPB:    0  -0.373102608351955E+00   0.770684417657654E-02  -0.142132E-03   0.000000E+00   0.329003E+02  -0.467620E-02
   LPB:    1  -0.373101502388581E+00   0.197346436377444E-02   0.149350E-01   0.000000E+00   0.115126E+03   0.114067E-18
   LPB:    2  -0.373101395097771E+00   0.122176741539303E-02   0.163634E-01   0.885425E-01   0.264088E+03   0.236880E-16
   LPB:    3  -0.373101355771795E+00   0.774289561529994E-03   0.216257E-01   0.277346E+00   0.117172E+03   0.179759E-16
   LPB:    4  -0.373101339706830E+00   0.679403135707072E-03   0.254668E-01   0.346894E+00   0.162745E+03   0.151101E-16
   LPB:    5  -0.373101331073983E+00   0.395640479114161E-03   0.206583E-01   0.662451E+00   0.257703E+03   0.139932E-16
   LPB:    6  -0.373101322076006E+00   0.151608069122612E-03   0.326759E-01   0.658959E+00   0.228661E+03   0.129281E-16
  Finished solving LPB equations
  A_corr:   -0.293681431068222     
 End minimization
 Ecorr=   1471.76367105676     
 A_corr= -0.293681431068222     
 Ecorr_band=  -1472.05735248783     
 End Solvation calculations
RMM:   4    -0.133300997552E+03    0.14949E-05   -0.45134E-05  2575   0.229E-02
 Begin Solvation calculations
  rms_SCF =   1.928389604390398E-003 tol =   1.928389604390398E-004
 Begin minimization
 Creating dielectric and ionic cavities
  area:      151.276492318691     
  volume:    678.171974511914     
  Acav:     7.942015846731292E-002
  Solving linear dielectric/ionic screening model
        iter                  A_solv                     rms
   LPB:       -0.373501007258643E+00   0.846511067521014E-01
   LPB:    0  -0.373497256451145E+00   0.742395209059005E-01  -0.477502E-03   0.000000E+00   0.329006E+02  -0.157101E-01
   LPB:    1  -0.373469489904828E+00   0.148989338255807E-01   0.107298E-01   0.000000E+00   0.815714E+02  -0.277633E-20
   LPB:    2  -0.373466184598493E+00   0.241444336458410E-02   0.130260E-01   0.980550E-01   0.238126E+03   0.667505E-17
   LPB:    3  -0.373465535278884E+00   0.227368559454465E-02   0.234696E-01   0.109032E+00   0.568929E+03   0.971521E-17
   LPB:    4  -0.373465346892974E+00   0.164388682968080E-02   0.216894E-01   0.313940E+00   0.116431E+03   0.146731E-16
   LPB:    5  -0.373465243229856E+00   0.869129930824435E-03   0.248109E-01   0.481040E+00   0.343284E+03   0.364292E-16
   LPB:    6  -0.373465183893024E+00   0.346909469275203E-03   0.311293E-01   0.456218E+00   0.180477E+03   0.437462E-16
   LPB:    7  -0.373465148488729E+00   0.211545291342174E-03   0.336163E-01   0.552524E+00   0.440281E+03   0.405016E-16
   LPB:    8  -0.373465125221355E+00   0.140832271245290E-03   0.363234E-01   0.608212E+00   0.344939E+03   0.368867E-16
  Finished solving LPB equations
  A_corr:   -0.294044966754042     
 End minimization
 Ecorr=   1471.64935624902     
 A_corr= -0.294044966754042     
 Ecorr_band=  -1471.94340121577     
 End Solvation calculations
   2 F= -.13330100E+03 E0= -.13329992E+03  d E =-.168866E-02
quench:  g(F)=  0.000E+00 g(S)=  0.000E+00 dE (1.order)= 0.000E+00
 bond charge predicted
       N       E                     dE             d eps       ncg     rms          rms(c)
 Begin Solvation calculations
  rms_SCF =   1.928389604390398E-003 tol =   1.928389604390398E-004
 Begin minimization
 Creating dielectric and ionic cavities
  area:      151.388039880308     
  volume:    678.144915843254     
  Acav:     7.947872093716157E-002
  Solving linear dielectric/ionic screening model
        iter                  A_solv                     rms
   LPB:       -0.375776001623340E+00   0.425723814915961E-02
   LPB:    0  -0.375776001376991E+00   0.433391755802552E-02  -0.386972E-05   0.000000E+00   0.329019E+02  -0.127321E-03
   LPB:    1  -0.374628339407164E+00   0.219820820696346E-02   0.155517E-01   0.000000E+00   0.438256E+06   0.142336E-21
   LPB:    2  -0.374521425350244E+00   0.274896156765794E-02   0.272047E-01   0.532541E-01   0.538533E+05  -0.612124E-17
   LPB:    3  -0.374487084930262E+00   0.614381634756443E-02   0.325897E-01   0.268124E+00   0.116986E+05   0.111496E-17
   LPB:    4  -0.374473000135192E+00   0.156251489385663E-01   0.326874E-01   0.408926E+00   0.951513E+03  -0.487633E-17
   LPB:    5  -0.374467403828017E+00   0.152619570914315E-01   0.205020E-01   0.633483E+00   0.172227E+03  -0.366422E-17
   LPB:    6  -0.374462641271782E+00   0.404269275716909E-02   0.239453E-01   0.728642E+00   0.408097E+03  -0.254296E-17
   LPB:    7  -0.374459333947883E+00   0.244191606413428E-02   0.371198E-01   0.447973E+00   0.258629E+04   0.115786E-16
   LPB:    8  -0.374457418274307E+00   0.441717039754771E-02   0.360787E-01   0.595936E+00   0.458000E+03   0.206117E-16
   LPB:    9  -0.374456378304249E+00   0.478706186427000E-02   0.269614E-01   0.726453E+00   0.237429E+03   0.258195E-16
   LPB:   10  -0.374455605757241E+00   0.187665193098301E-02   0.267934E-01   0.747515E+00   0.203692E+03  -0.418660E-17
   LPB:   11  -0.374455041526998E+00   0.841288636464200E-03   0.367528E-01   0.532437E+00   0.184622E+04  -0.228539E-16
   LPB:   12  -0.374454660188312E+00   0.777808468404971E-03   0.394549E-01   0.629571E+00   0.101381E+04  -0.118895E-16
   LPB:   13  -0.374454405439362E+00   0.782248551741421E-03   0.358555E-01   0.735101E+00   0.136026E+04   0.137932E-17
   LPB:   14  -0.374454233230687E+00   0.526065630320574E-03   0.338673E-01   0.715677E+00   0.855115E+03   0.137119E-16
   LPB:   15  -0.374454102654557E+00   0.319734742576035E-03   0.381220E-01   0.673617E+00   0.173013E+04   0.195174E-16
   LPB:   16  -0.374454009627059E+00   0.276144099485047E-03   0.393283E-01   0.690587E+00   0.162107E+04   0.254496E-16
   LPB:   17  -0.374453945280489E+00   0.337304497260318E-03   0.395324E-01   0.688123E+00   0.176522E+04   0.292049E-16
   LPB:   18  -0.374453892967818E+00   0.328109420251669E-03   0.388234E-01   0.827830E+00   0.117358E+04   0.318985E-16
   LPB:   19  -0.374453852773539E+00   0.221962628159790E-03   0.367340E-01   0.812049E+00   0.150615E+04   0.340786E-16
   LPB:   20  -0.374453820909541E+00   0.128645230323202E-03   0.401103E-01   0.726020E+00   0.244076E+04   0.357257E-16
  Finished solving LPB equations
  A_corr:   -0.294975099972379     
 End minimization
 Ecorr=   1471.55676814181     
 A_corr= -0.294975099972379     
 Ecorr_band=  -1471.85174324178     
 End Solvation calculations
DAV:   1    -0.133302904310E+03   -0.19053E-02   -0.81017E-02  4239   0.568E-01    0.824E-02
 Begin Solvation calculations
  rms_SCF =   1.928389604390398E-003 tol =   1.928389604390398E-004
 Begin minimization
 Creating dielectric and ionic cavities
  area:      151.292228702260     
  volume:    678.101277197949     
  Acav:     7.942842006868667E-002
  Solving linear dielectric/ionic screening model
        iter                  A_solv                     rms
   LPB:       -0.375582246033592E+00   0.133740441058890E+00
   LPB:    0  -0.375551988907128E+00   0.756739276097129E-01  -0.135614E-02   0.000000E+00   0.329039E+02  -0.446224E-01
   LPB:    1  -0.375425843527979E+00   0.223935751595021E-01   0.156456E-01   0.000000E+00   0.126910E+03  -0.682634E-18
   LPB:    2  -0.375413079564309E+00   0.121577686089369E-01   0.169476E-01   0.934111E-01   0.217677E+03  -0.123534E-15
   LPB:    3  -0.375408664314400E+00   0.535530545988595E-02   0.212041E-01   0.276476E+00   0.131443E+03  -0.667721E-16
   LPB:    4  -0.375406846869101E+00   0.378673727676635E-02   0.293482E-01   0.297402E+00   0.359047E+03   0.385854E-18
   LPB:    5  -0.375406140763311E+00   0.450088869253658E-02   0.276902E-01   0.411779E+00   0.206255E+03   0.151896E-16
   LPB:    6  -0.375405796466961E+00   0.251616222721177E-02   0.188198E-01   0.717420E+00   0.191133E+03   0.153864E-16
   LPB:    7  -0.375405531131207E+00   0.939350214036803E-03   0.271565E-01   0.534078E+00   0.435380E+03   0.151007E-16
   LPB:    8  -0.375405368223993E+00   0.468488294242431E-03   0.329546E-01   0.505944E+00   0.508525E+03   0.159162E-16
   LPB:    9  -0.375405267678466E+00   0.331077769497736E-03   0.349398E-01   0.582127E+00   0.773884E+03   0.194228E-16
   LPB:   10  -0.375405203946750E+00   0.269321441355053E-03   0.360152E-01   0.614933E+00   0.714000E+03   0.214845E-16
   LPB:   11  -0.375405162960498E+00   0.226022112428985E-03   0.362940E-01   0.638164E+00   0.748617E+03   0.231462E-16
   LPB:   12  -0.375405135809281E+00   0.195348319423085E-03   0.361420E-01   0.665235E+00   0.832834E+03   0.239752E-16
   LPB:   13  -0.375405116652200E+00   0.167754030081005E-03   0.368716E-01   0.691607E+00   0.869537E+03   0.245250E-16
  Finished solving LPB equations
  A_corr:   -0.295976696583514     
 End minimization
 Ecorr=   1471.31166967101     
 A_corr= -0.295976696583514     
 Ecorr_band=  -1471.60764636759     
 End Solvation calculations
RMM:   2    -0.133303296043E+03   -0.39173E-03   -0.41057E-03  5406   0.150E-01    0.151E-01
 Begin Solvation calculations
  rms_SCF =   1.928389604390398E-003 tol =   1.928389604390398E-004
 Begin minimization
 Creating dielectric and ionic cavities
  area:      151.290458664344     
  volume:    678.108674180765     
  Acav:     7.942749079878082E-002
  Solving linear dielectric/ionic screening model
        iter                  A_solv                     rms
   LPB:       -0.375593847672259E+00   0.711757334406413E-01
   LPB:    0  -0.375593693505566E+00   0.705477586811395E-01  -0.968030E-04   0.000000E+00   0.329036E+02  -0.318516E-02
   LPB:    1  -0.375577658381200E+00   0.667733754477069E-02   0.910597E-02   0.000000E+00   0.771886E+02  -0.680536E-19
   LPB:    2  -0.375576254705493E+00   0.132485168372956E-02   0.149557E-01   0.532984E-01   0.204665E+03   0.243751E-16
   LPB:    3  -0.375576010150470E+00   0.946765228367951E-03   0.255412E-01   0.102018E+00   0.356604E+03   0.136509E-16
   LPB:    4  -0.375575931408277E+00   0.848082714415196E-03   0.272493E-01   0.301799E+00   0.194087E+03   0.122875E-16
   LPB:    5  -0.375575890375196E+00   0.744025543777082E-03   0.257140E-01   0.552220E+00   0.339175E+03   0.136097E-17
   LPB:    6  -0.375575863785592E+00   0.454957366518288E-03   0.280866E-01   0.593264E+00   0.148541E+03  -0.100582E-16
   LPB:    7  -0.375575844710937E+00   0.239220570911115E-03   0.322721E-01   0.624335E+00   0.524570E+03  -0.450212E-17
   LPB:    8  -0.375575830165574E+00   0.116625368093084E-03   0.386112E-01   0.637354E+00   0.450933E+03   0.628005E-17
  Finished solving LPB equations
  A_corr:   -0.296148339366793     
 End minimization
 Ecorr=   1471.24812199633     
 A_corr= -0.296148339366793     
 Ecorr_band=  -1471.54427033570     
 End Solvation calculations
RMM:   3    -0.133303245976E+03    0.50067E-04   -0.49876E-04  4432   0.545E-02    0.160E-01
 Begin Solvation calculations
  rms_SCF =   1.928389604390398E-003 tol =   1.928389604390398E-004
 Begin minimization
 Creating dielectric and ionic cavities
  area:      151.295323847565     
  volume:    678.110189300159     
  Acav:     7.943004501997156E-002
  Solving linear dielectric/ionic screening model
        iter                  A_solv                     rms
   LPB:       -0.375889066074490E+00   0.395917554341824E-01
   LPB:    0  -0.375886689859915E+00   0.247528066000488E-01  -0.380046E-03   0.000000E+00   0.329035E+02  -0.125049E-01
   LPB:    1  -0.375876249284734E+00   0.992756017044578E-02   0.146136E-01   0.000000E+00   0.121501E+03  -0.790776E-18
   LPB:    2  -0.375875312664822E+00   0.339627955872796E-02   0.139507E-01   0.939723E-01   0.122715E+03   0.899356E-17
   LPB:    3  -0.375874987800845E+00   0.143781255639792E-02   0.190992E-01   0.253349E+00   0.302331E+03   0.689778E-17
   LPB:    4  -0.375874874031756E+00   0.143276687093123E-02   0.228689E-01   0.292478E+00   0.149578E+03   0.451816E-17
   LPB:    5  -0.375874816352348E+00   0.917296468026713E-03   0.224070E-01   0.517438E+00   0.246795E+03   0.664594E-17
   LPB:    6  -0.375874777191653E+00   0.336252060114971E-03   0.315366E-01   0.482390E+00   0.128446E+03   0.111288E-16
   LPB:    7  -0.375874751665734E+00   0.218064858903957E-03   0.351925E-01   0.584111E+00   0.421970E+03   0.136513E-16
   LPB:    8  -0.375874733323701E+00   0.148161413221681E-03   0.369630E-01   0.684147E+00   0.250217E+03   0.138107E-16
  Finished solving LPB equations
  A_corr:   -0.296444688303730     
 End minimization
 Ecorr=   1471.16260582745     
 A_corr= -0.296444688303730     
 Ecorr_band=  -1471.45905051575     
 End Solvation calculations
RMM:   4    -0.133303098902E+03    0.14707E-03   -0.16766E-04  3412   0.327E-02    0.346E-02
 Begin Solvation calculations
  rms_SCF =   1.928389604390398E-003 tol =   1.928389604390398E-004
 Begin minimization
 Creating dielectric and ionic cavities
  area:      151.296906674473     
  volume:    678.111113599722     
  Acav:     7.943087600409807E-002
  Solving linear dielectric/ionic screening model
        iter                  A_solv                     rms
   LPB:       -0.377009123347924E+00   0.130991971171495E+00
   LPB:    0  -0.376984931205456E+00   0.831975534575674E-01  -0.121264E-02   0.000000E+00   0.329035E+02  -0.399000E-01
   LPB:    1  -0.376877419315881E+00   0.347119197580660E-01   0.144610E-01   0.000000E+00   0.111219E+03   0.163768E-17
   LPB:    2  -0.376867102326163E+00   0.100077453649181E-01   0.135037E-01   0.102764E+00   0.118591E+03  -0.141312E-15
   LPB:    3  -0.376863719314719E+00   0.492000696384754E-02   0.195027E-01   0.227042E+00   0.332308E+03  -0.167772E-15
   LPB:    4  -0.376862591808696E+00   0.456152763730072E-02   0.220527E-01   0.294747E+00   0.132902E+03  -0.173884E-15
   LPB:    5  -0.376862030305400E+00   0.260235505465595E-02   0.221706E-01   0.495357E+00   0.258529E+03  -0.160042E-15
   LPB:    6  -0.376861686710573E+00   0.864318073146995E-03   0.311016E-01   0.436203E+00   0.144357E+03  -0.166639E-15
   LPB:    7  -0.376861491243813E+00   0.550861516274541E-03   0.335828E-01   0.526856E+00   0.421130E+03  -0.179908E-15
   LPB:    8  -0.376861369327020E+00   0.361198985229926E-03   0.347030E-01   0.603589E+00   0.280094E+03  -0.185360E-15
   LPB:    9  -0.376861290461087E+00   0.297298049826328E-03   0.365374E-01   0.614406E+00   0.331081E+03  -0.186812E-15
   LPB:   10  -0.376861239021123E+00   0.261651843747942E-03   0.367769E-01   0.647997E+00   0.301691E+03  -0.187775E-15
   LPB:   11  -0.376861205062429E+00   0.232212159398566E-03   0.358589E-01   0.677062E+00   0.378371E+03  -0.187236E-15
   LPB:   12  -0.376861182119638E+00   0.179931737258524E-03   0.355768E-01   0.680968E+00   0.326298E+03  -0.186890E-15
  Finished solving LPB equations
  A_corr:   -0.297430306115540     
 End minimization
 Ecorr=   1470.82270271187     
 A_corr= -0.297430306115540     
 Ecorr_band=  -1471.12013301798     
 End Solvation calculations
RMM:   5    -0.133303071393E+03    0.27510E-04   -0.54855E-05  2795   0.240E-02    0.208E-02
 Begin Solvation calculations
  rms_SCF =   1.928389604390398E-003 tol =   1.928389604390398E-004
 Begin minimization
 Creating dielectric and ionic cavities
  area:      151.305989107209     
  volume:    678.120709790427     
  Acav:     7.943564428128475E-002
  Solving linear dielectric/ionic screening model
        iter                  A_solv                     rms
   LPB:       -0.377569177940856E+00   0.105088877888601E+00
   LPB:    0  -0.377561039551231E+00   0.860586789778132E-01  -0.703342E-03   0.000000E+00   0.329030E+02  -0.231421E-01
   LPB:    1  -0.377511797530636E+00   0.257719929137049E-01   0.112921E-01   0.000000E+00   0.926314E+02   0.168067E-17
   LPB:    2  -0.377505416495752E+00   0.365744569061175E-02   0.129381E-01   0.113099E+00   0.148588E+03   0.132528E-15
   LPB:    3  -0.377504100160636E+00   0.297341007245154E-02   0.227100E-01   0.117525E+00   0.376077E+03   0.151626E-15
   LPB:    4  -0.377503718336381E+00   0.231929012761858E-02   0.226670E-01   0.290616E+00   0.110341E+03   0.154386E-15
   LPB:    5  -0.377503531869400E+00   0.136122008772076E-02   0.231387E-01   0.478404E+00   0.324103E+03   0.153771E-15
   LPB:    6  -0.377503427773842E+00   0.465693694278053E-03   0.298445E-01   0.432817E+00   0.135309E+03   0.149969E-15
   LPB:    7  -0.377503368059849E+00   0.318112578435835E-03   0.331197E-01   0.516917E+00   0.320413E+03   0.142180E-15
   LPB:    8  -0.377503324880606E+00   0.216150525219506E-03   0.378980E-01   0.631931E+00   0.198181E+03   0.138331E-15
   LPB:    9  -0.377503292539942E+00   0.205816361544770E-03   0.394619E-01   0.719302E+00   0.198275E+03   0.137717E-15
   LPB:   10  -0.377503269155075E+00   0.186583929686895E-03   0.381310E-01   0.748317E+00   0.169274E+03   0.137650E-15
  Finished solving LPB equations
  A_corr:   -0.298067624873790     
 End minimization
 Ecorr=   1470.58259546945     
 A_corr= -0.298067624873790     
 Ecorr_band=  -1470.88066309432     
 End Solvation calculations
RMM:   6    -0.133303064580E+03    0.68122E-05   -0.41952E-05  2944   0.316E-02
 Begin Solvation calculations
  rms_SCF =   1.928389604390398E-003 tol =   1.928389604390398E-004
 Begin minimization
 Creating dielectric and ionic cavities
  area:      151.314870546747     
  volume:    678.135250430987     
  Acav:     7.944030703704204E-002
  Solving linear dielectric/ionic screening model
        iter                  A_solv                     rms
   LPB:       -0.377995814539191E+00   0.566160941637984E-01
   LPB:    0  -0.377991858890437E+00   0.367575835922788E-01  -0.490355E-03   0.000000E+00   0.329023E+02  -0.161338E-01
   LPB:    1  -0.377972639034526E+00   0.865913521758593E-02   0.156687E-01   0.000000E+00   0.824783E+02  -0.153524E-17
   LPB:    2  -0.377970913184100E+00   0.556640751675410E-02   0.145335E-01   0.968090E-01   0.263163E+03   0.115642E-15
   LPB:    3  -0.377970418443696E+00   0.311294265964344E-02   0.184588E-01   0.225705E+00   0.941396E+02   0.131362E-15
   LPB:    4  -0.377970233334003E+00   0.183042543107858E-02   0.214780E-01   0.321559E+00   0.117307E+03   0.135331E-15
   LPB:    5  -0.377970144982891E+00   0.914742675628794E-03   0.212921E-01   0.481457E+00   0.283911E+03   0.128679E-15
   LPB:    6  -0.377970087378725E+00   0.361478040678447E-03   0.296988E-01   0.467435E+00   0.133863E+03   0.118747E-15
   LPB:    7  -0.377970046717441E+00   0.285862210097713E-03   0.366431E-01   0.572104E+00   0.201227E+03   0.115683E-15
   LPB:    8  -0.377970015712063E+00   0.220817238032253E-03   0.382345E-01   0.730790E+00   0.145780E+03   0.111392E-15
   LPB:    9  -0.377969992757320E+00   0.183211693502952E-03   0.385097E-01   0.735056E+00   0.163979E+03   0.107290E-15
  Finished solving LPB equations
  A_corr:   -0.298529685720278     
 End minimization
 Ecorr=   1470.37742653928     
 A_corr= -0.298529685720278     
 Ecorr_band=  -1470.67595622500     
 End Solvation calculations
   3 F= -.13330306E+03 E0= -.13330200E+03  d E =-.206703E-02
quench:  g(F)=  0.000E+00 g(S)=  0.000E+00 dE (1.order)= 0.000E+00
 bond charge predicted
       N       E                     dE             d eps       ncg     rms          rms(c)
 Begin Solvation calculations
  rms_SCF =   1.928389604390398E-003 tol =   1.928389604390398E-004
 Begin minimization
 Creating dielectric and ionic cavities
  area:      151.487474787913     
  volume:    678.075603137001     
  Acav:     7.953092426365435E-002
  Solving linear dielectric/ionic screening model
        iter                  A_solv                     rms
   LPB:       -0.381906710889915E+00   0.635979162280299E-02
   LPB:    0  -0.381906709903746E+00   0.655986675556289E-02  -0.774210E-05   0.000000E+00   0.329051E+02  -0.254755E-03
   LPB:    1  -0.379851318314213E+00   0.308519789831540E-02   0.152665E-01   0.000000E+00   0.321452E+06  -0.254440E-19
   LPB:    2  -0.379703382475242E+00   0.387547162903822E-02   0.262077E-01   0.419266E-01   0.422653E+05  -0.144172E-17
   LPB:    3  -0.379656856641307E+00   0.913114552657168E-02   0.326893E-01   0.252141E+00   0.822301E+04   0.631938E-17
   LPB:    4  -0.379637441342765E+00   0.222488833898739E-01   0.320118E-01   0.426134E+00   0.619939E+03   0.708226E-17
   LPB:    5  -0.379629055700496E+00   0.165533307051243E-01   0.190529E-01   0.725673E+00   0.165495E+03   0.561404E-17
   LPB:    6  -0.379621374408915E+00   0.386387325790611E-02   0.270936E-01   0.644158E+00   0.586480E+03   0.479350E-17
   LPB:    7  -0.379616240740903E+00   0.931581555221454E-03   0.384277E-01   0.471212E+00   0.224413E+04   0.357527E-17
   LPB:    8  -0.379613153050835E+00   0.164365078462748E-02   0.391916E-01   0.589734E+00   0.524161E+04  -0.519386E-17
   LPB:    9  -0.379611349000465E+00   0.291601682919943E-02   0.377946E-01   0.605869E+00   0.575368E+03  -0.140343E-16
   LPB:   10  -0.379610358878267E+00   0.441468808326268E-02   0.316088E-01   0.656239E+00   0.375862E+03  -0.192265E-16
   LPB:   11  -0.379609724864520E+00   0.273535022111517E-02   0.256412E-01   0.789367E+00   0.140605E+03  -0.279480E-16
   LPB:   12  -0.379609210288908E+00   0.137248165051820E-02   0.326742E-01   0.636917E+00   0.784289E+03  -0.530304E-16
   LPB:   13  -0.379608841194196E+00   0.883573081946610E-03   0.354224E-01   0.661632E+00   0.563035E+03  -0.641878E-16
   LPB:   14  -0.379608610406933E+00   0.616126478061009E-03   0.332454E-01   0.666224E+00   0.994383E+03  -0.651157E-16
   LPB:   15  -0.379608440374022E+00   0.354222918428158E-03   0.381182E-01   0.642570E+00   0.982938E+03  -0.663856E-16
   LPB:   16  -0.379608325201020E+00   0.219887394930670E-03   0.378685E-01   0.681822E+00   0.146091E+04  -0.671461E-16
   LPB:   17  -0.379608250893145E+00   0.276576831057140E-03   0.408928E-01   0.597470E+00   0.147420E+04  -0.674798E-16
   LPB:   18  -0.379608193657083E+00   0.340540861822309E-03   0.392632E-01   0.802225E+00   0.119641E+04  -0.676579E-16
   LPB:   19  -0.379608156092976E+00   0.293082338280179E-03   0.339297E-01   0.759467E+00   0.925680E+03  -0.676860E-16
   LPB:   20  -0.379608129362503E+00   0.170750661717688E-03   0.347443E-01   0.694912E+00   0.122648E+04  -0.685418E-16
  Finished solving LPB equations
  A_corr:   -0.300077205098849     
 End minimization
 Ecorr=   1470.23975009866     
 A_corr= -0.300077205098849     
 Ecorr_band=  -1470.53982730376     
 End Solvation calculations
DAV:   1    -0.133304835396E+03   -0.17640E-02   -0.11843E-01  4212   0.750E-01    0.553E-02
 Begin Solvation calculations
  rms_SCF =   1.928389604390398E-003 tol =   1.928389604390398E-004
 Begin minimization
 Creating dielectric and ionic cavities
  area:      151.366582261095     
  volume:    678.051852311281     
  Acav:     7.946745568707468E-002
  Solving linear dielectric/ionic screening model
        iter                  A_solv                     rms
   LPB:       -0.380630019505993E+00   0.167428203552329E+00
   LPB:    0  -0.380607282002263E+00   0.136179961237554E+00  -0.117557E-02   0.000000E+00   0.329062E+02  -0.386835E-01
   LPB:    1  -0.380498362272762E+00   0.350655175120011E-01   0.110734E-01   0.000000E+00   0.862029E+02  -0.985915E-18
   LPB:    2  -0.380483474147886E+00   0.581362095408769E-02   0.134561E-01   0.112484E+00   0.181786E+03  -0.138393E-15
   LPB:    3  -0.380480125541070E+00   0.533246387313108E-02   0.232359E-01   0.130252E+00   0.450339E+03  -0.113352E-15
   LPB:    4  -0.380479119132358E+00   0.393437409329389E-02   0.214375E-01   0.325759E+00   0.114247E+03  -0.104513E-15
   LPB:    5  -0.380478580102217E+00   0.187271562641506E-02   0.242433E-01   0.473611E+00   0.327397E+03  -0.130901E-15
   LPB:    6  -0.380478297422454E+00   0.683580790193401E-03   0.311579E-01   0.408041E+00   0.204118E+03  -0.121136E-15
   LPB:    7  -0.380478146988441E+00   0.433765205749718E-03   0.322913E-01   0.513493E+00   0.479957E+03  -0.138462E-15
   LPB:    8  -0.380478058459236E+00   0.289320495086243E-03   0.341990E-01   0.555665E+00   0.389429E+03  -0.147382E-15
[...]
   LPB:    2  -0.400364006474733E+00   0.539889744309385E-03   0.148124E-01   0.210268E+00   0.167296E+03  -0.314650E-17
   LPB:    3  -0.400363996618016E+00   0.281194567405852E-03   0.239089E-01   0.320404E+00   0.324565E+03  -0.387777E-17
   LPB:    4  -0.400363990205095E+00   0.375386122300630E-03   0.314913E-01   0.493961E+00   0.354339E+03  -0.343413E-17
   LPB:    5  -0.400363983931069E+00   0.344446528596889E-03   0.324522E-01   0.949371E+00   0.126061E+03  -0.306431E-17
   LPB:    6  -0.400363978122183E+00   0.184525030616369E-03   0.317650E-01   0.945892E+00   0.380408E+03   0.127816E-17
   LPB:    7  -0.400363973318168E+00   0.104528587794754E-03   0.364654E-01   0.720411E+00   0.390356E+03   0.523777E-17
  Finished solving LPB equations
  A_corr:   -0.320814590776702     
 End minimization
 Ecorr=   1470.20824348267     
 A_corr= -0.320814590776702     
 Ecorr_band=  -1470.52905807345     
 End Solvation calculations
RMM:   3    -0.133323120799E+03    0.31195E-05   -0.17882E-05  2372   0.143E-02
 Begin Solvation calculations
  rms_SCF =   1.135966554217889E-003 tol =   1.135966554217889E-004
 Begin minimization
 Creating dielectric and ionic cavities
  area:      151.522459883572     
  volume:    676.549978241977     
  Acav:     7.954929143887551E-002
  Solving linear dielectric/ionic screening model
        iter                  A_solv                     rms
   LPB:       -0.400377953684603E+00   0.428113243581595E-02
   LPB:    0  -0.400377943590184E+00   0.386554460789551E-02  -0.247430E-04   0.000000E+00   0.329767E+02  -0.815941E-03
   LPB:    1  -0.400377866975858E+00   0.941741120954925E-03   0.110634E-01   0.000000E+00   0.813353E+02   0.504798E-19
   LPB:    2  -0.400377848574144E+00   0.156206256887932E-03   0.160620E-01   0.165438E+00   0.211862E+03   0.185022E-18
   LPB:    3  -0.400377843858237E+00   0.104916526866854E-03   0.296661E-01   0.138755E+00   0.435120E+03  -0.339551E-18
   LPB:    4  -0.400377841694339E+00   0.142942080103516E-03   0.328872E-01   0.413909E+00   0.413116E+03  -0.698113E-18
   LPB:    5  -0.400377840037590E+00   0.186814961467560E-03   0.317340E-01   0.793454E+00   0.294362E+03   0.195941E-18
   LPB:    6  -0.400377838491749E+00   0.128120715625040E-03   0.312758E-01   0.946727E+00   0.144361E+03   0.700080E-18
   LPB:    7  -0.400377836884423E+00   0.912196517895299E-04   0.401119E-01   0.810727E+00   0.495431E+03   0.330828E-17
  Finished solving LPB equations
  A_corr:   -0.320828545445547     
 End minimization
 Ecorr=   1470.20534649461     
 A_corr= -0.320828545445547     
 Ecorr_band=  -1470.52617504006     
 End Solvation calculations
  78 F= -.13332312E+03 E0= -.13332188E+03  d E =-.181950E-04
quench:  g(F)=  0.000E+00 g(S)=  0.000E+00 dE (1.order)= 0.000E+00
 bond charge predicted
       N       E                     dE             d eps       ncg     rms          rms(c)
 Begin Solvation calculations
  rms_SCF =   1.135966554217889E-003 tol =   1.135966554217889E-004
 Begin minimization
 Creating dielectric and ionic cavities
  area:      151.521835699687     
  volume:    676.546554634718     
  Acav:     7.954896374233562E-002
  Solving linear dielectric/ionic screening model
        iter                  A_solv                     rms
   LPB:       -0.400453774461396E+00   0.808649138717049E-03
   LPB:    0  -0.400453774459209E+00   0.810706139584775E-03  -0.364218E-06   0.000000E+00   0.329768E+02  -0.120107E-04
   LPB:    1  -0.400393686042620E+00   0.297197563338355E-03   0.161966E-01   0.000000E+00   0.683729E+06  -0.583255E-21
   LPB:    2  -0.400386739536121E+00   0.169813936313346E-03   0.268927E-01   0.696252E-01   0.196982E+06   0.451291E-18
   LPB:    3  -0.400384466577818E+00   0.249610560421018E-03   0.328997E-01   0.267465E+00   0.121427E+06   0.267174E-18
   LPB:    4  -0.400383461975910E+00   0.586935329189564E-03   0.359169E-01   0.404852E+00   0.271824E+05   0.578902E-18
   LPB:    5  -0.400382963153245E+00   0.159021972134318E-02   0.367170E-01   0.485717E+00   0.271389E+04  -0.189192E-18
   LPB:    6  -0.400382729965459E+00   0.308288983736557E-02   0.293486E-01   0.584844E+00   0.301691E+03   0.224847E-18
   LPB:    7  -0.400382592359114E+00   0.153461573512633E-02   0.193291E-01   0.895998E+00   0.195899E+03  -0.380481E-17
   LPB:    8  -0.400382473591582E+00   0.899393343071901E-03   0.312998E-01   0.533003E+00   0.671508E+03  -0.700148E-17
   LPB:    9  -0.400382404964352E+00   0.123709119589667E-02   0.305258E-01   0.592480E+00   0.261035E+03  -0.107140E-16
   LPB:   10  -0.400382360170747E+00   0.696305464944074E-03   0.245839E-01   0.810469E+00   0.193079E+03  -0.194546E-16
   LPB:   11  -0.400382323651121E+00   0.260090462292567E-03   0.336292E-01   0.595997E+00   0.605319E+03  -0.245893E-16
   LPB:   12  -0.400382298789653E+00   0.198474040603157E-03   0.383043E-01   0.597680E+00   0.180650E+04  -0.296706E-16
   LPB:   13  -0.400382282655610E+00   0.198604079773363E-03   0.356572E-01   0.697135E+00   0.141753E+04  -0.365446E-16
   LPB:   14  -0.400382271524150E+00   0.137631855959690E-03   0.338023E-01   0.727797E+00   0.141073E+04  -0.420630E-16
   LPB:   15  -0.400382263469684E+00   0.790192300760954E-04   0.366535E-01   0.667291E+00   0.229320E+04  -0.455765E-16
  Finished solving LPB equations
  A_corr:   -0.320833299727349     
 End minimization
 Ecorr=   1470.20594671704     
 A_corr= -0.320833299727349     
 Ecorr_band=  -1470.52678001676     
 End Solvation calculations
DAV:   1    -0.133323137155E+03   -0.13236E-04   -0.45896E-03  4185   0.121E-01    0.243E-02
 Begin Solvation calculations
  rms_SCF =   1.135966554217889E-003 tol =   1.135966554217889E-004
 Begin minimization
 Creating dielectric and ionic cavities
  area:      151.525082509692     
  volume:    676.547812747324     
  Acav:     7.955066831758817E-002
  Solving linear dielectric/ionic screening model
        iter                  A_solv                     rms
   LPB:       -0.400428235287507E+00   0.324107222870206E-01
   LPB:    0  -0.400428222425013E+00   0.322938018274779E-01  -0.279302E-04   0.000000E+00   0.329768E+02  -0.921046E-03
   LPB:    1  -0.400424979666722E+00   0.291334589024107E-02   0.895728E-02   0.000000E+00   0.772813E+02  -0.422890E-19
   LPB:    2  -0.400424628902418E+00   0.855122991907630E-03   0.175845E-01   0.550995E-01   0.185158E+03  -0.260168E-17
   LPB:    3  -0.400424557394876E+00   0.661024653962079E-03   0.249487E-01   0.143687E+00   0.282744E+03  -0.292659E-17
   LPB:    4  -0.400424530542448E+00   0.536439524329770E-03   0.276298E-01   0.339079E+00   0.190832E+03  -0.987459E-18
   LPB:    5  -0.400424517340485E+00   0.393576736540300E-03   0.249368E-01   0.544744E+00   0.279478E+03  -0.306973E-17
   LPB:    6  -0.400424508165843E+00   0.211133493723186E-03   0.288979E-01   0.599688E+00   0.256733E+03  -0.449770E-17
   LPB:    7  -0.400424501899777E+00   0.133506798545505E-03   0.329856E-01   0.598340E+00   0.658291E+03  -0.695345E-17
   LPB:    8  -0.400424497382235E+00   0.712589096959387E-04   0.365794E-01   0.650122E+00   0.489616E+03  -0.101136E-16
  Finished solving LPB equations
  A_corr:   -0.320873829064647     
 End minimization
 Ecorr=   1470.19181240645     
 A_corr= -0.320873829064647     
 Ecorr_band=  -1470.51268623552     
 End Solvation calculations
RMM:   2    -0.133323211070E+03   -0.73916E-04   -0.27162E-04  3730   0.459E-02    0.103E-01
 Begin Solvation calculations
  rms_SCF =   1.135966554217889E-003 tol =   1.135966554217889E-004
 Begin minimization
 Creating dielectric and ionic cavities
  area:      151.524696027449     
  volume:    676.546605615937     
  Acav:     7.955046541441077E-002
  Solving linear dielectric/ionic screening model
        iter                  A_solv                     rms
   LPB:       -0.400422349250762E+00   0.217789922098819E-01
   LPB:    0  -0.400422340460233E+00   0.217380002836666E-01  -0.230897E-04   0.000000E+00   0.329768E+02  -0.761424E-03
   LPB:    1  -0.400420967715608E+00   0.215757279856338E-02   0.886601E-02   0.000000E+00   0.739040E+02   0.130218E-19
   LPB:    2  -0.400420832864606E+00   0.430740755947143E-03   0.173533E-01   0.501892E-01   0.127294E+03  -0.340168E-18
   LPB:    3  -0.400420811284311E+00   0.235351764482939E-03   0.244012E-01   0.113808E+00   0.229558E+03  -0.587073E-18
   LPB:    4  -0.400420802509596E+00   0.165568106634545E-03   0.313536E-01   0.316446E+00   0.351618E+03   0.210696E-17
   LPB:    5  -0.400420798459668E+00   0.174626539666781E-03   0.295017E-01   0.490516E+00   0.354881E+03   0.630970E-17
   LPB:    6  -0.400420796228465E+00   0.183728128382879E-03   0.277532E-01   0.585634E+00   0.262046E+03   0.695164E-17
   LPB:    7  -0.400420794663186E+00   0.129307128059700E-03   0.285023E-01   0.683102E+00   0.191029E+03   0.658359E-17
   LPB:    8  -0.400420793252179E+00   0.690508391519732E-04   0.352589E-01   0.728700E+00   0.471178E+03   0.503929E-17
  Finished solving LPB equations
  A_corr:   -0.320870327837769     
 End minimization
 Ecorr=   1470.19440278113     
 A_corr= -0.320870327837769     
 Ecorr_band=  -1470.51527310897     
 End Solvation calculations
RMM:   3    -0.133323153643E+03    0.57428E-04   -0.60216E-05  2614   0.219E-02    0.209E-02
 Begin Solvation calculations
  rms_SCF =   1.135966554217889E-003 tol =   1.135966554217889E-004
 Begin minimization
 Creating dielectric and ionic cavities
  area:      151.522722851008     
  volume:    676.548304423383     
  Acav:     7.954942949677896E-002
  Solving linear dielectric/ionic screening model
        iter                  A_solv                     rms
   LPB:       -0.400443199016390E+00   0.717384380064678E-02
   LPB:    0  -0.400443198899374E+00   0.715858771865542E-02  -0.266400E-05   0.000000E+00   0.329767E+02  -0.878499E-04
   LPB:    1  -0.400442974383735E+00   0.154019670701479E-02   0.110609E-01   0.000000E+00   0.709308E+02  -0.440186E-20
   LPB:    2  -0.400442921104343E+00   0.222122183235552E-03   0.159082E-01   0.164999E+00   0.203156E+03   0.265194E-17
   LPB:    3  -0.400442909717063E+00   0.144938867518293E-03   0.276292E-01   0.123059E+00   0.442476E+03   0.472411E-17
   LPB:    4  -0.400442905031137E+00   0.158727039762359E-03   0.293624E-01   0.387215E+00   0.563856E+03   0.507904E-17
   LPB:    5  -0.400442902101603E+00   0.200367798641267E-03   0.331913E-01   0.553057E+00   0.213837E+03   0.530352E-17
   LPB:    6  -0.400442900014271E+00   0.182419123607834E-03   0.289276E-01   0.817532E+00   0.245802E+03   0.472037E-17
   LPB:    7  -0.400442898224577E+00   0.103742390516826E-03   0.314078E-01   0.789700E+00   0.193768E+03   0.366959E-17
  Finished solving LPB equations
  A_corr:   -0.320893468727798     
 End minimization
 Ecorr=   1470.17769753664     
 A_corr= -0.320893468727798     
 Ecorr_band=  -1470.49859100537     
 End Solvation calculations
RMM:   4    -0.133323152143E+03    0.14997E-05   -0.54616E-06  2179   0.106E-02
 Begin Solvation calculations
  rms_SCF =   1.135966554217889E-003 tol =   1.135966554217889E-004
 Begin minimization
 Creating dielectric and ionic cavities
  area:      151.522725497159     
  volume:    676.549098344727     
  Acav:     7.954943088600858E-002
  Solving linear dielectric/ionic screening model
        iter                  A_solv                     rms
   LPB:       -0.400465979101316E+00   0.865240950988857E-02
   LPB:    0  -0.400465973633182E+00   0.848657510142261E-02  -0.182109E-04   0.000000E+00   0.329767E+02  -0.600535E-03
   LPB:    1  -0.400465606275591E+00   0.176461471244760E-02   0.101112E-01   0.000000E+00   0.984353E+02   0.172986E-19
   LPB:    2  -0.400465532327160E+00   0.365072074376355E-03   0.171386E-01   0.118759E+00   0.307797E+03  -0.900919E-18
   LPB:    3  -0.400465513620596E+00   0.240129108827586E-03   0.258202E-01   0.167912E+00   0.621394E+03  -0.807237E-18
   LPB:    4  -0.400465505162968E+00   0.202809959130760E-03   0.319593E-01   0.365272E+00   0.303422E+03  -0.458510E-17
   LPB:    5  -0.400465499646768E+00   0.283948215023420E-03   0.340852E-01   0.611537E+00   0.414751E+03  -0.665238E-17
   LPB:    6  -0.400465495462807E+00   0.240660172980466E-03   0.291779E-01   0.886052E+00   0.151939E+03  -0.747659E-17
   LPB:    7  -0.400465491976861E+00   0.147548998322021E-03   0.312283E-01   0.778466E+00   0.409472E+03  -0.630984E-17
   LPB:    8  -0.400465489265320E+00   0.802042283937117E-04   0.345924E-01   0.702204E+00   0.311727E+03  -0.507404E-17
  Finished solving LPB equations
  A_corr:   -0.320916058379311     
 End minimization
 Ecorr=   1470.16288650866     
 A_corr= -0.320916058379311     
 Ecorr_band=  -1470.48380256704     
 End Solvation calculations
  79 F= -.13332315E+03 E0= -.13332191E+03  d E =-.313441E-04
quench:  g(F)=  0.000E+00 g(S)=  0.000E+00 dE (1.order)= 0.000E+00
 bond charge predicted
       N       E                     dE             d eps       ncg     rms          rms(c)
 Begin Solvation calculations
  rms_SCF =   1.135966554217889E-003 tol =   1.135966554217889E-004
 Begin minimization
 Creating dielectric and ionic cavities
  area:      151.525224690555     
  volume:    676.546608698921     
  Acav:     7.955074296254148E-002
  Solving linear dielectric/ionic screening model
        iter                  A_solv                     rms
   LPB:       -0.400558921353388E+00   0.900993518884284E-03
   LPB:    0  -0.400558921352142E+00   0.903523030908836E-03  -0.274916E-06   0.000000E+00   0.329768E+02  -0.906585E-05
   LPB:    1  -0.400486502243061E+00   0.349332493290657E-03   0.160782E-01   0.000000E+00   0.663258E+06  -0.481705E-21
   LPB:    2  -0.400478014900347E+00   0.217144132010003E-03   0.270886E-01   0.695614E-01   0.173253E+06  -0.140661E-17
   LPB:    3  -0.400475209702025E+00   0.358223203683386E-03   0.329131E-01   0.272026E+00   0.977070E+05  -0.165747E-17
   LPB:    4  -0.400473972434277E+00   0.907141356074955E-03   0.358279E-01   0.405179E+00   0.176591E+05  -0.124833E-17
   LPB:    5  -0.400473368967784E+00   0.242908222852506E-02   0.358503E-01   0.487437E+00   0.149218E+04  -0.188692E-17
   LPB:    6  -0.400473104313298E+00   0.356691692473205E-02   0.249713E-01   0.629618E+00   0.217155E+03   0.340848E-19
   LPB:    7  -0.400472909684360E+00   0.130675987747132E-02   0.208620E-01   0.880264E+00   0.255520E+03  -0.163996E-17
   LPB:    8  -0.400472760383133E+00   0.102254372105513E-02   0.338540E-01   0.472718E+00   0.795661E+03  -0.186172E-17
   LPB:    9  -0.400472677235352E+00   0.136409915402540E-02   0.298054E-01   0.632561E+00   0.236398E+03  -0.292334E-17
   LPB:   10  -0.400472620678439E+00   0.716927344446272E-03   0.251199E-01   0.807073E+00   0.208323E+03  -0.142968E-16
   LPB:   11  -0.400472576417377E+00   0.303968911645904E-03   0.340364E-01   0.577577E+00   0.650263E+03  -0.206156E-16
   LPB:   12  -0.400472547175529E+00   0.255813872549874E-03   0.367652E-01   0.611632E+00   0.148217E+04  -0.252358E-16
   LPB:   13  -0.400472528216741E+00   0.216445995522522E-03   0.337911E-01   0.705408E+00   0.122662E+04  -0.248583E-16
   LPB:   14  -0.400472514737312E+00   0.126386364817218E-03   0.342792E-01   0.700862E+00   0.164854E+04  -0.261038E-16
   LPB:   15  -0.400472505119442E+00   0.723602139538138E-04   0.379833E-01   0.643939E+00   0.310785E+04  -0.270492E-16
  Finished solving LPB equations
  A_corr:   -0.320921762156900     
 End minimization
 Ecorr=   1470.16471457017     
 A_corr= -0.320921762156900     
 Ecorr_band=  -1470.48563633233     
 End Solvation calculations
DAV:   1    -0.133323176393E+03   -0.22750E-04   -0.57146E-03  5058   0.143E-01    0.156E-02
 Begin Solvation calculations
  rms_SCF =   1.135966554217889E-003 tol =   1.135966554217889E-004
 Begin minimization
 Creating dielectric and ionic cavities
  area:      151.523870399659     
  volume:    676.543412312606     
  Acav:     7.955003195982116E-002
  Solving linear dielectric/ionic screening model
        iter                  A_solv                     rms
   LPB:       -0.400535482284909E+00   0.939065900372901E-02
   LPB:    0  -0.400535352590951E+00   0.609035645974369E-02  -0.886890E-04   0.000000E+00   0.329770E+02  -0.292469E-02
   LPB:    1  -0.400534898603132E+00   0.247747585174624E-02   0.149422E-01   0.000000E+00   0.860260E+02  -0.312410E-19
   LPB:    2  -0.400534811977280E+00   0.900091963273136E-03   0.141432E-01   0.201590E+00   0.254196E+03   0.455843E-17
   LPB:    3  -0.400534782596985E+00   0.807781156199148E-03   0.233218E-01   0.205682E+00   0.202695E+03   0.975911E-17
   LPB:    4  -0.400534769854283E+00   0.437015451710351E-03   0.214098E-01   0.472448E+00   0.132729E+03   0.124256E-16
   LPB:    5  -0.400534761046410E+00   0.178186036131823E-03   0.276989E-01   0.534269E+00   0.485865E+03   0.119751E-16
   LPB:    6  -0.400534754839093E+00   0.862630726584294E-04   0.354205E-01   0.551113E+00   0.453280E+03   0.132198E-16
  Finished solving LPB equations
  A_corr:   -0.320984722879271     
 End minimization
 Ecorr=   1470.15449885098     
 A_corr= -0.320984722879271     
 Ecorr_band=  -1470.47548357386     
 End Solvation calculations
RMM:   2    -0.133323196158E+03   -0.19765E-04   -0.20076E-04  3501   0.320E-02    0.177E-02
 Begin Solvation calculations
  rms_SCF =   1.135966554217889E-003 tol =   1.135966554217889E-004
 Begin minimization
 Creating dielectric and ionic cavities
  area:      151.524243185867     
  volume:    676.544842045440     
  Acav:     7.955022767257998E-002
  Solving linear dielectric/ionic screening model
        iter                  A_solv                     rms
   LPB:       -0.400548899881313E+00   0.932655636461986E-02
   LPB:    0  -0.400548899287511E+00   0.932922318003878E-02   0.600110E-05   0.000000E+00   0.329769E+02   0.197898E-03
   LPB:    1  -0.400548624097079E+00   0.785252154667364E-03   0.888926E-02   0.000000E+00   0.800042E+02  -0.138249E-19
   LPB:    2  -0.400548600510566E+00   0.153366143823451E-03   0.162169E-01   0.469818E-01   0.210281E+03  -0.239626E-18
   LPB:    3  -0.400548594647183E+00   0.899594950964693E-04   0.295521E-01   0.136415E+00   0.518222E+03  -0.612290E-18
   LPB:    4  -0.400548590916785E+00   0.929016446105728E-04   0.407861E-01   0.460980E+00   0.546215E+03  -0.787326E-18
  Finished solving LPB equations
  A_corr:   -0.320998363244205     
 End minimization
 Ecorr=   1470.14565553569     
 A_corr= -0.320998363244205     
 Ecorr_band=  -1470.46665389893     
 End Solvation calculations
RMM:   3    -0.133323197426E+03   -0.12680E-05   -0.18896E-05  2448   0.159E-02
 Begin Solvation calculations
  rms_SCF =   1.135966554217889E-003 tol =   1.135966554217889E-004
 Begin minimization
 Creating dielectric and ionic cavities
  area:      151.523761120469     
  volume:    676.545042636695     
  Acav:     7.954997458824609E-002
  Solving linear dielectric/ionic screening model
        iter                  A_solv                     rms
   LPB:       -0.400563822591771E+00   0.482474209537134E-02
   LPB:    0  -0.400563817460748E+00   0.460411096908621E-02  -0.176406E-04   0.000000E+00   0.329769E+02  -0.581730E-03
   LPB:    1  -0.400563707859041E+00   0.118146610422179E-02   0.113957E-01   0.000000E+00   0.780616E+02   0.543983E-19
   LPB:    2  -0.400563681349638E+00   0.197717066551044E-03   0.155898E-01   0.176801E+00   0.198399E+03  -0.203680E-17
   LPB:    3  -0.400563674458919E+00   0.103868185584286E-03   0.302854E-01   0.133805E+00   0.294623E+03  -0.257645E-17
   LPB:    4  -0.400563670345285E+00   0.877639765221896E-04   0.353243E-01   0.511824E+00   0.588394E+03  -0.235580E-17
  Finished solving LPB equations
  A_corr:   -0.321013695757039     
 End minimization
 Ecorr=   1470.13845092994     
 A_corr= -0.321013695757039     
 Ecorr_band=  -1470.45946462569     
 End Solvation calculations
  80 F= -.13332320E+03 E0= -.13332195E+03  d E =-.452825E-04
quench:  g(F)=  0.000E+00 g(S)=  0.000E+00 dE (1.order)= 0.000E+00
 reached required accuracy - stopping structural energy minimisation
